Title
82294
    1SAPS     N    1   0.238   2.741  11.072 -0.2146  0.6510  0.2913
    1SAPS   HN1    2   0.152   2.706  11.118 -0.4548  1.4512  0.4425
    1SAPS   HN2    3   0.232   2.746  10.968  0.4054  1.4370  0.2878
    1SAPS   HN3    4   0.307   2.663  11.078 -0.2542  0.6407  0.6027
    1SAPS   C12    5   0.299   2.871  11.123 -0.1308 -0.3317  0.6797
    1SAPS  H12A    6   0.247   2.953  11.075  2.4609  2.0421  1.7825
    1SAPS   C13    7   0.288   2.880  11.280  0.9292 -0.1169 -0.2888
    1SAPS  O13A    8   0.248   2.776  11.337  0.0526 -0.1638 -0.2641
    1SAPS  O13B    9   0.355   2.971  11.337  0.5424  0.4369  0.6601
    1SAPS   C11   10   0.448   2.888  11.075  0.3106  0.7865 -0.7442
    1SAPS  H11A   11   0.504   2.822  11.144 -0.9185  1.8339  1.2954
    1SAPS  H11B   12   0.478   2.993  11.098 -1.1019  1.2179 -0.8267
    1SAPS     P   13   0.589   2.823  10.869 -0.1319 -0.2623  0.2816
    1SAPS   O13   14   0.683   2.907  10.944  0.4804  0.1576 -0.8872
    1SAPS   O14   15   0.605   2.682  10.878  0.2382 -0.4154 -0.2708
    1SAPS   O12   16   0.452   2.861  10.937 -0.5757 -0.0697  0.3794
    1SAPS   O11   17   0.585   2.870  10.719 -0.3325 -0.6300 -0.1600
    1SAPS    C1   18   0.515   2.995  10.694 -0.0403 -0.2091 -0.3334
    1SAPS    HA   19   0.406   2.981  10.678 -0.5474  1.0615  1.7616
    1SAPS    HB   20   0.510   3.071  10.776  0.3395 -1.1600  0.5794
    1SAPS    C2   21   0.560   3.061  10.557  0.2127 -0.4438  0.2885
    1SAPS    HS   22   0.470   3.110  10.515 -0.2179 -0.4563  1.1750
    1SAPS   O21   23   0.602   2.960  10.459 -0.2602  0.1478  0.0107
    1SAPS   C21   24   0.511   2.876  10.428  0.5232  0.1163  0.4177
    1SAPS   O22   25   0.394   2.879  10.458  0.3110  0.0238 -0.4194
    1SAPS   C22   26   0.577   2.779  10.334  0.6061 -0.8027 -0.2499
    1SAPS   H2R   27   0.688   2.787  10.331  0.6854 -1.4563  0.6522
    1SAPS   H2S   28   0.544   2.678  10.368 -0.3635 -0.4324 -0.0852
    1SAPS    C3   29   0.668   3.172  10.575  0.1851 -0.3018 -0.4801
    1SAPS    HX   30   0.765   3.146  10.622  0.5327 -0.2168 -1.1393
    1SAPS    HY   31   0.613   3.254  10.624  1.5254  0.7367 -0.6912
    1SAPS   O31   32   0.690   3.228  10.447 -0.3700  0.3125  0.4466
    1SAPS   C31   33   0.806   3.220  10.387  0.5396 -0.1062 -0.1250
    1SAPS   O32   34   0.908   3.177  10.437 -0.1246 -0.1060 -0.0012
    1SAPS   C32   35   0.794   3.272  10.247  0.1862 -0.2343  0.3804
    1SAPS   H2X   36   0.767   3.380  10.242  1.0346 -0.1309 -3.5994
    1SAPS   H2Y   37   0.706   3.224  10.198  2.1697 -2.1740 -1.3938
    1SAPS   C23   38   0.525   2.795  10.193  0.2678  0.7661  0.0936
    1SAPS   H3R   39   0.415   2.797  10.200  0.4097  3.1923  2.3008
    1SAPS   H3S   40   0.553   2.707  10.131  0.2707  1.5151 -0.9917
    1SAPS   C24   41   0.574   2.925  10.126 -0.0279  0.2831 -0.0226
    1SAPS   H4R   42   0.544   3.014  10.185 -1.0275  0.9517 -1.4941
    1SAPS   H4S   43   0.520   2.933  10.030 -0.4540 -1.4752  0.0622
    1SAPS   C25   44   0.724   2.920  10.095 -0.1180 -0.0716  0.3858
    1SAPS   H5R   45   0.790   2.970  10.168 -0.6815 -0.4295  1.1534
    1SAPS   C26   46   0.780   2.862   9.985 -0.4853 -0.7769  0.0560
    1SAPS   H6R   47   0.889   2.861   9.977 -0.5189  0.7479 -0.7948
    1SAPS   C27   48   0.710   2.783   9.877 -0.9558 -0.2927 -0.0396
    1SAPS   H7R   49   0.650   2.703   9.926 -0.0620 -0.0491  1.4597
    1SAPS   H7S   50   0.787   2.734   9.813 -0.5704 -1.8518  1.5746
    1SAPS   C28   51   0.626   2.864   9.775 -0.1829  0.7037  0.2394
    1SAPS   H8R   52   0.548   2.922   9.826 -0.8922  0.2674 -0.3296
    1SAPS   C29   53   0.633   2.870   9.646  0.0211 -0.0469 -0.1216
    1SAPS   H9R   54   0.565   2.942   9.598 -0.6764  0.4285  1.5489
    1SAPS  C210   55   0.724   2.796   9.551 -0.5523 -0.2058 -0.5584
    1SAPS  H10R   56   0.662   2.764   9.465  0.4396  0.0316 -1.3727
    1SAPS  H10S   57   0.759   2.706   9.605 -0.8139 -0.1720 -0.3340
    1SAPS  C211   58   0.851   2.867   9.511  0.3126 -1.3481 -0.7635
    1SAPS  H11R   59   0.882   2.940   9.587 -1.2944 -1.6060  0.1599
    1SAPS  C212   60   0.926   2.836   9.404 -0.2190 -0.7639  0.2572
    1SAPS  H12R   61   1.015   2.895   9.380  0.2473 -0.9909  1.3618
    1SAPS  C213   62   0.904   2.724   9.312  0.1754 -0.1784  0.1881
    1SAPS  H13R   63   0.833   2.646   9.347 -0.2507 -0.0109 -0.3175
    1SAPS  H13S   64   1.000   2.671   9.291  1.3591  1.9729 -0.0030
    1SAPS  C214   65   0.860   2.779   9.183  0.2767 -0.5246  0.0221
    1SAPS  H14R   66   0.862   2.889   9.174  0.7400 -0.1263  4.1181
    1SAPS  C215   67   0.801   2.714   9.089  0.5497  0.7856  0.5088
    1SAPS  H15R   68   0.759   2.761   8.999 -0.6311 -1.6172 -0.2583
    1SAPS  C216   69   0.787   2.560   9.098  0.1138  0.1037  0.8043
    1SAPS  H16R   70   0.679   2.548   9.121 -0.3396 -0.0833 -1.2804
    1SAPS  H16S   71   0.841   2.516   9.184  0.9528 -0.4781 -0.0135
    1SAPS  C217   72   0.805   2.491   8.965  0.0158 -0.3075  0.3361
    1SAPS  H17R   73   0.828   2.383   8.981  1.5944  0.2526  2.0499
    1SAPS  H17S   74   0.901   2.524   8.921  0.2147 -0.5192  0.6074
    1SAPS  C218   75   0.680   2.499   8.869 -0.2997  0.2237 -0.2138
    1SAPS  H18R   76   0.646   2.604   8.866  0.1941  0.3918 -0.0225
    1SAPS  H18S   77   0.607   2.436   8.925 -0.0102  1.2534  1.3396
    1SAPS  C219   78   0.712   2.442   8.735  0.3340  0.5339  0.6926
    1SAPS  H19R   79   0.744   2.337   8.744 -0.4854  0.1624 -0.5218
    1SAPS  H19S   80   0.792   2.509   8.696  1.9303 -1.8617 -0.2242
    1SAPS  C220   81   0.595   2.444   8.646 -0.0646 -0.6563  0.3715
    1SAPS  H20R   82   0.514   2.398   8.708 -0.3625  1.3323  1.5014
    1SAPS  H20S   83   0.614   2.406   8.544  1.3127 -0.9727  0.7317
    1SAPS  H20T   84   0.564   2.549   8.628  0.5061 -0.8874 -2.0715
    1SAPS   C33   85   0.913   3.237  10.165 -0.1553  0.4246 -0.0090
    1SAPS   H3X   86   0.946   3.132  10.185  0.9077  0.7944  0.2197
    1SAPS   H3Y   87   0.997   3.300  10.201 -1.3314  0.4098  2.9514
    1SAPS   C34   88   0.896   3.253  10.013  0.1458  0.3649  0.6325
    1SAPS   H4X   89   0.887   3.361   9.988 -1.2846 -0.3279 -2.0144
    1SAPS   H4Y   90   0.797   3.215   9.981  0.4191 -0.2737  0.5294
    1SAPS   C35   91   1.010   3.202   9.917  0.1512 -0.8575  0.0574
    1SAPS   H5X   92   1.016   3.091   9.916  1.5543 -0.8079 -2.6181
    1SAPS   H5Y   93   1.105   3.245   9.956 -0.2100 -0.5195  0.5737
    1SAPS   C36   94   0.983   3.245   9.770  0.2313  0.4530 -0.2898
    1SAPS   H6X   95   0.984   3.356   9.764  2.5679  0.4946  0.3905
    1SAPS   H6Y   96   0.880   3.217   9.739 -0.0012  1.3009 -0.2871
    1SAPS   C37   97   1.076   3.190   9.658  0.1217  0.7737  0.1546
    1SAPS   H7X   98   1.081   3.079   9.650 -1.0016  0.6987  0.4435
    1SAPS   H7Y   99   1.177   3.232   9.677  0.7691 -0.8437  0.3220
    1SAPS   C38  100   1.023   3.242   9.520 -0.6769 -0.1675 -0.1452
    1SAPS   H8X  101   0.990   3.348   9.518  0.6848  0.2454 -2.7870
    1SAPS   H8Y  102   0.928   3.190   9.498 -1.0335  0.6440 -0.5609
    1SAPS   C39  103   1.132   3.220   9.412 -0.2618 -0.5789  0.7909
    1SAPS   H9X  104   1.176   3.118   9.418 -1.0266 -1.0641 -1.4102
    1SAPS   H9Y  105   1.219   3.289   9.427 -0.7241  0.7387 -2.2195
    1SAPS  C310  106   1.079   3.247   9.264 -0.4972 -0.2938 -0.0710
    1SAPS  H10X  107   1.031   3.347   9.275  0.1176 -0.0699  0.6120
    1SAPS  H10Y  108   1.008   3.168   9.231 -0.2403 -0.1540 -0.9641
    1SAPS  C311  109   1.183   3.257   9.161  0.1245 -0.3499 -0.3371
    1SAPS  H11X  110   1.237   3.161   9.145  1.0614  0.0856  0.1813
    1SAPS  H11Y  111   1.256   3.335   9.192 -0.7526 -0.3515  1.8108
    1SAPS  C312  112   1.118   3.305   9.029  0.0185  0.2257  0.1595
    1SAPS  H12X  113   1.036   3.379   9.040  0.5822  0.9432 -0.4035
    1SAPS  H12Y  114   1.071   3.214   8.987  0.0354  1.1854 -1.9916
    1SAPS  C313  115   1.219   3.349   8.920 -0.8369  0.4438  0.2429
    1SAPS  H13X  116   1.289   3.264   8.908 -0.8511  0.5833 -0.8275
    1SAPS  H13Y  117   1.280   3.437   8.949  1.0998 -0.6068 -0.5499
    1SAPS  C314  118   1.154   3.377   8.783  0.1735 -0.4250 -0.3643
    1SAPS  H14X  119   1.212   3.463   8.745 -0.8137  0.5498  0.2839
    1SAPS  H14Y  120   1.055   3.426   8.795  0.1357  0.2793 -3.3223
    1SAPS  C315  121   1.129   3.255   8.686  0.2191 -0.6613  0.2522
    1SAPS  H15X  122   1.094   3.300   8.592  0.5332  1.1747  0.9921
    1SAPS  H15Y  123   1.051   3.187   8.726  0.6678 -0.5912  1.2824
    1SAPS  C316  124   1.236   3.146   8.649 -0.8206  0.7898  0.4766
    1SAPS  H16X  125   1.195   3.075   8.575 -1.5754 -0.3153  1.9276
    1SAPS  H16Y  126   1.254   3.098   8.748 -0.1007 -0.3856 -0.2120
    1SAPS  C317  127   1.368   3.213   8.606  0.2069  0.0272 -0.0853
    1SAPS  H17X  128   1.438   3.127   8.606  1.3858  0.9666 -0.3055
    1SAPS  H17Y  129   1.399   3.297   8.673 -2.0557  1.4654 -0.7812
    1SAPS  C318  130   1.361   3.260   8.458  0.3546  0.2525  0.4205
    1SAPS  H18X  131   1.322   3.364   8.460  1.2267  0.7313 -3.6571
    1SAPS  H18Y  132   1.298   3.191   8.397  0.9446 -0.7479  0.9208
    1SAPS  H18Z  133   1.463   3.255   8.414 -0.6435 -2.4349 -1.7938
    2SAPS     N  134   5.996   3.418  11.117 -0.1763 -0.4991 -0.8782
    2SAPS   HN1  135   5.930   3.450  11.191 -1.4758 -1.0060 -1.8065
    2SAPS   HN2  136   6.092   3.446  11.146  0.5156 -1.9529 -1.7378
    2SAPS   HN3  137   5.975   3.475  11.032 -0.1789  1.2654  0.2753
    2SAPS   C12  138   6.006   3.273  11.093  0.4799  0.3279 -0.6673
    2SAPS  H12A  139   6.073   3.267  11.009  0.0580  2.7890 -1.1998
    2SAPS   C13  140   6.082   3.208  11.211 -0.6620  0.7179  0.2136
    2SAPS  O13A  141   6.109   3.272  11.316  0.1230  0.2088 -0.0263
    2SAPS  O13B  142   6.113   3.089  11.193 -0.2809  0.5308 -0.8342
    2SAPS   C11  143   5.859   3.213  11.081  0.3292 -0.4459 -0.1366
    2SAPS  H11A  144   5.795   3.216  11.172 -0.1633  1.5510 -0.5327
    2SAPS  H11B  145   5.872   3.103  11.068  0.0564 -0.6895  1.4896
    2SAPS     P  146   5.722   3.231  10.835 -0.3198 -0.2767 -0.0186
    2SAPS   O13  147   5.578   3.221  10.842 -0.0514  0.3152 -0.2766
    2SAPS   O14  148   5.770   3.321  10.728 -0.5780  0.2046 -0.5170
    2SAPS   O12  149   5.782   3.279  10.976 -0.2960  0.2189 -0.0783
    2SAPS   O11  150   5.781   3.082  10.815  0.4655 -0.3357 -0.1433
    2SAPS    C1  151   5.923   3.046  10.795  0.1556  0.5119 -0.3978
    2SAPS    HA  152   5.978   3.138  10.826 -1.3145  1.1377  0.3661
    2SAPS    HB  153   5.951   2.961  10.862 -0.8406 -0.1817 -0.8558
    2SAPS    C2  154   5.963   3.006  10.649 -0.7053 -0.5296 -0.2641
    2SAPS    HS  155   6.062   2.955  10.653  0.0757  0.7674 -2.3459
    2SAPS   O21  156   5.971   3.130  10.566  0.2049 -0.1758 -0.1938
    2SAPS   C21  157   6.058   3.130  10.458  0.7420 -1.2383 -0.4950
    2SAPS   O22  158   6.134   3.045  10.434 -0.6597 -0.2881 -0.8286
    2SAPS   C22  159   6.038   3.255  10.366 -0.1639 -0.2814  1.1667
    2SAPS   H2R  160   5.940   3.304  10.381 -0.6621 -0.7065 -0.5677
    2SAPS   H2S  161   6.113   3.334  10.390 -0.2514  0.6434 -1.4222
    2SAPS    C3  162   5.861   2.906  10.592  0.5181  0.4232 -0.0031
    2SAPS    HX  163   5.764   2.953  10.619  0.8158  0.9677  0.1423
    2SAPS    HY  164   5.876   2.814  10.652  2.3310 -0.6566 -2.0071
    2SAPS   O31  165   5.881   2.895  10.448 -0.0881 -0.0446 -0.5351
    2SAPS   C31  166   5.861   2.777  10.391 -0.0064  0.4606 -0.0840
    2SAPS   O32  167   5.849   2.674  10.455 -0.4693  0.3972 -0.2307
    2SAPS   C32  168   5.848   2.784  10.239 -0.4966  0.1359  0.5341
    2SAPS   H2X  169   5.947   2.823  10.207 -0.7927 -0.1969 -0.7953
    2SAPS   H2Y  170   5.764   2.854  10.223 -0.5123  0.8670  3.4285
    2SAPS   C23  171   6.057   3.236  10.211 -0.5915  0.2016 -0.0446
    2SAPS   H3R  172   6.146   3.173  10.188 -0.5908  0.5945 -1.1275
    2SAPS   H3S  173   6.077   3.334  10.162 -0.9401 -0.5697 -1.7855
    2SAPS   C24  174   5.925   3.187  10.145 -0.0866  0.5468 -0.4456
    2SAPS   H4R  175   5.837   3.255  10.146 -0.7031 -0.2521  1.3922
    2SAPS   H4S  176   5.889   3.102  10.207 -0.8411  1.4062  0.3148
    2SAPS   C25  177   5.958   3.123  10.014 -0.1362  0.1475  1.0296
    2SAPS   H5R  178   6.041   3.051  10.021 -0.2942 -0.1955 -0.3746
    2SAPS   C26  179   5.906   3.155   9.893 -0.0446  0.4981  1.1548
    2SAPS   H6R  180   5.938   3.089   9.812  2.8142  0.9191  1.8796
    2SAPS   C27  181   5.810   3.270   9.877  0.2317 -0.0268 -0.5262
    2SAPS   H7R  182   5.867   3.365   9.867  1.8928 -0.5856  2.9113
    2SAPS   H7S  183   5.742   3.278   9.965  2.1426  0.7122  0.9140
    2SAPS   C28  184   5.729   3.243   9.759 -0.3438  1.3719  0.4377
    2SAPS   H8R  185   5.659   3.159   9.773  1.3957 -0.0012  0.9903
    2SAPS   C29  186   5.723   3.322   9.648 -0.1643 -0.1608  0.0054
    2SAPS   H9R  187   5.649   3.290   9.573 -0.2394 -2.3567  0.9702
    2SAPS  C210  188   5.815   3.440   9.606 -0.6085 -1.1323 -0.1613
    2SAPS  H10R  189   5.831   3.526   9.675 -0.3200 -0.8951 -0.5249
    2SAPS  H10S  190   5.757   3.491   9.526 -1.8817  1.1598  2.1408
    2SAPS  C211  191   5.943   3.383   9.554  0.2178 -0.8351  0.3724
    2SAPS  H11R  192   5.989   3.318   9.630 -0.1402  0.5032  1.7672
    2SAPS  C212  193   6.009   3.424   9.445 -1.0249  0.2253 -0.2675
    2SAPS  H12R  194   6.096   3.357   9.430 -1.0114  0.0668  0.4940
    2SAPS  C213  195   5.977   3.521   9.342 -0.3490 -0.0551 -0.0234
    2SAPS  H13R  196   6.009   3.617   9.387  1.5584 -0.2319 -0.9611
    2SAPS  H13S  197   5.867   3.536   9.340 -0.3760  0.0114  1.7676
    2SAPS  C214  198   6.033   3.495   9.202 -0.2684 -0.7556 -0.2801
    2SAPS  H14R  199   6.138   3.527   9.194 -0.7428  1.3574  1.4434
    2SAPS  C215  200   5.981   3.428   9.102  0.0003 -0.5870  0.3727
    2SAPS  H15R  201   6.026   3.430   9.001 -0.4044 -0.5290  0.1913
    2SAPS  C216  202   5.841   3.368   9.109 -0.0708  0.3493  0.0833
    2SAPS  H16R  203   5.774   3.421   9.038 -0.4841  1.0921  1.0177
    2SAPS  H16S  204   5.794   3.384   9.208  1.5561 -1.5763  1.2011
    2SAPS  C217  205   5.852   3.219   9.072 -0.4353  0.1663  0.0535
    2SAPS  H17R  206   5.935   3.172   9.129  0.1819  0.7900 -0.3273
    2SAPS  H17S  207   5.886   3.216   8.966 -2.1384  1.9348 -0.5708
    2SAPS  C218  208   5.721   3.137   9.076 -0.6681 -0.0454  0.9357
    2SAPS  H18R  209   5.755   3.035   9.049  0.0097 -0.3043  2.6898
    2SAPS  H18S  210   5.646   3.170   9.000  1.4868 -0.8501 -1.6257
    2SAPS  C219  211   5.656   3.135   9.213 -0.5080 -0.1052  0.1329
    2SAPS  H19R  212   5.622   3.240   9.225 -0.8930 -0.2580  0.4161
    2SAPS  H19S  213   5.733   3.109   9.290  0.4662 -0.6445 -1.0076
    2SAPS  C220  214   5.533   3.048   9.243  0.4396 -0.0201 -0.2848
    2SAPS  H20R  215   5.453   3.087   9.176 -0.5592 -0.5848  0.5591
    2SAPS  H20S  216   5.506   3.045   9.351  3.2152 -0.3842  0.4340
    2SAPS  H20T  217   5.568   2.948   9.210  1.7227 -0.1678  1.4272
    2SAPS   C33  218   5.835   2.649  10.165 -0.4038  0.3572  0.0023
    2SAPS   H3X  219   5.728   2.619  10.160 -0.9653  2.3287 -0.3330
    2SAPS   H3Y  220   5.876   2.568  10.229  0.6075  0.1095 -0.9536
    2SAPS   C34  221   5.883   2.646  10.017 -0.0133  0.0816  0.4478
    2SAPS   H4X  222   5.857   2.544   9.980  0.6341  0.0584  0.0534
    2SAPS   H4Y  223   5.988   2.680  10.014 -0.4395  1.2879 -1.9190
    2SAPS   C35  224   5.804   2.738   9.916  0.2351  0.1506  0.7007
    2SAPS   H5X  225   5.796   2.841   9.958  1.2807  0.0528  1.1636
    2SAPS   H5Y  226   5.703   2.696   9.898  1.2536 -2.3473  0.6414
    2SAPS   C36  227   5.866   2.751   9.776  0.4059  0.1640 -0.6897
    2SAPS   H6X  228   5.910   2.659   9.732  1.5396 -1.0460  2.8261
    2SAPS   H6Y  229   5.953   2.817   9.799  1.7849 -2.3485  1.4999
    2SAPS   C37  230   5.763   2.808   9.675 -0.1669  0.6969  0.1986
    2SAPS   H7X  231   5.735   2.905   9.723 -0.5962  1.2681 -1.1735
    2SAPS   H7Y  232   5.674   2.743   9.664  1.6862 -1.5744 -2.0638
    2SAPS   C38  233   5.815   2.843   9.531  0.1173 -0.3020 -0.5262
    2SAPS   H8X  234   5.885   2.929   9.539 -0.1191 -0.1457 -0.0984
    2SAPS   H8Y  235   5.730   2.884   9.472  0.6804 -1.9182 -2.5369
    2SAPS   C39  236   5.878   2.731   9.447  0.0229  0.0436  0.1892
    2SAPS   H9X  237   5.816   2.644   9.477 -0.0586  0.1648  0.3717
    2SAPS   H9Y  238   5.979   2.706   9.486 -0.5903 -0.8205  1.2399
    2SAPS  C310  239   5.880   2.762   9.298 -0.5879 -0.3764  0.1876
    2SAPS  H10X  240   5.944   2.852   9.289  0.2953 -0.8962  1.1709
    2SAPS  H10Y  241   5.785   2.786   9.245 -0.0361 -0.8389 -1.0147
    2SAPS  C311  242   5.967   2.661   9.215 -0.0016  0.6570  0.2869
    2SAPS  H11X  243   5.922   2.560   9.220 -0.0566  0.7301  1.3223
    2SAPS  H11Y  244   6.067   2.654   9.262  0.5993 -1.1833 -1.1874
    2SAPS  C312  245   5.975   2.704   9.070 -0.3342  0.3209  0.5686
    2SAPS  H12X  246   5.992   2.814   9.065 -0.6395  0.3667  0.5485
    2SAPS  H12Y  247   5.879   2.680   9.021 -0.6469  0.5007  1.0909
    2SAPS  C313  248   6.095   2.637   9.004  0.4031  0.0444  0.8962
    2SAPS  H13X  249   6.094   2.529   9.029  0.6871 -0.6761 -2.0164
    2SAPS  H13Y  250   6.191   2.676   9.045  1.7604 -1.7017 -0.5436
    2SAPS  C314  251   6.084   2.652   8.848  0.2502  0.0839  0.3846
    2SAPS  H14X  252   6.062   2.761   8.836 -2.5693 -0.5218 -0.4493
    2SAPS  H14Y  253   5.990   2.600   8.818 -0.6739  1.6880  0.4179
    2SAPS  C315  254   6.204   2.601   8.773 -0.3434  0.0485 -0.3210
    2SAPS  H15X  255   6.287   2.661   8.815  0.1060  0.0445 -1.1879
    2SAPS  H15Y  256   6.201   2.626   8.664  3.1207  0.6431 -0.3447
    2SAPS  C316  257   6.239   2.457   8.793 -0.4904 -0.2969 -0.6668
    2SAPS  H16X  258   6.157   2.387   8.766  0.8173 -1.1620 -2.4528
    2SAPS  H16Y  259   6.254   2.426   8.899  0.1854 -0.7892 -0.9056
    2SAPS  C317  260   6.363   2.420   8.718  0.1808  0.1001  0.6555
    2SAPS  H17X  261   6.450   2.472   8.763 -0.6307  2.5308 -0.4888
    2SAPS  H17Y  262   6.364   2.466   8.617  3.2699 -0.7806  0.2481
    2SAPS  C318  263   6.380   2.276   8.707  0.1504 -0.0806 -0.0142
    2SAPS  H18X  264   6.484   2.270   8.669 -0.7094 -1.0361 -2.3099
    2SAPS  H18Y  265   6.304   2.229   8.640  0.5653  1.3754 -1.5119
    2SAPS  H18Z  266   6.376   2.227   8.807 -0.2669  1.4877  0.7534
    3SAPS     N  267   5.873   4.782  11.067 -0.0392 -0.0315 -0.4615
    3SAPS   HN1  268   5.794   4.775  11.000  1.1721 -0.2941 -1.8892
    3SAPS   HN2  269   5.865   4.700  11.130 -2.0228  1.0730  0.7920
    3SAPS   HN3  270   5.862   4.869  11.123 -0.2513 -1.1658  1.3105
    3SAPS   C12  271   5.995   4.770  10.991 -0.3989  0.1983 -0.6514
    3SAPS  H12A  272   6.070   4.821  11.049 -1.5503  0.3678  0.7219
    3SAPS   C13  273   6.050   4.629  10.960  0.2037  0.0913  0.0361
    3SAPS  O13A  274   5.979   4.525  10.990  0.1813  0.0587 -0.5379
    3SAPS  O13B  275   6.163   4.615  10.913 -0.6306  0.6817 -0.6105
    3SAPS   C11  276   5.976   4.847  10.853  0.4007  0.4953 -0.5103
    3SAPS  H11A  277   5.897   4.805  10.788 -1.7569  0.3233  2.1712
    3SAPS  H11B  278   6.062   4.829  10.784  0.7103 -0.7045  0.1718
    3SAPS     P  279   6.018   5.111  10.862  0.1639  0.3551  0.1544
    3SAPS   O13  280   5.915   5.215  10.895 -0.6447  0.4695  0.8721
    3SAPS   O14  281   6.133   5.102  10.952  0.2532 -0.4481 -0.5171
    3SAPS   O12  282   5.931   4.983  10.883  0.4890  0.1722  0.3394
    3SAPS   O11  283   6.072   5.117  10.713 -0.2483 -0.0495  0.0854
    3SAPS    C1  284   6.195   5.058  10.676  0.0026 -0.9408 -0.7459
    3SAPS    HA  285   6.270   5.078  10.756 -1.2977  1.7315 -0.1592
    3SAPS    HB  286   6.177   4.949  10.661 -0.5198 -0.6961 -1.9632
    3SAPS    C2  287   6.260   5.117  10.542 -1.3302 -0.0220 -0.1178
    3SAPS    HS  288   6.367   5.086  10.531 -1.0022  1.0831 -0.0507
    3SAPS   O21  289   6.259   5.259  10.528  0.1636 -0.4018  0.0848
    3SAPS   C21  290   6.317   5.325  10.628  0.2144  0.0446  1.1936
    3SAPS   O22  291   6.407   5.282  10.695  0.0592  0.1169 -0.1261
    3SAPS   C22  292   6.277   5.475  10.614 -0.1388  0.3951 -0.3292
    3SAPS   H2R  293   6.249   5.485  10.507  0.0253  1.2248 -0.2992
    3SAPS   H2S  294   6.185   5.495  10.674 -0.4988  0.7172 -0.9861
    3SAPS    C3  295   6.187   5.053  10.417  0.4966 -0.6699  0.3685
    3SAPS    HX  296   6.239   5.055  10.319 -1.6484 -0.1582 -0.7920
    3SAPS    HY  297   6.097   5.118  10.412  0.3486 -0.6540  2.5138
    3SAPS   O31  298   6.145   4.919  10.440 -0.1650  0.1871 -0.5622
    3SAPS   C31  299   6.224   4.814  10.412  0.4142  0.2405  0.7287
    3SAPS   O32  300   6.334   4.822  10.362 -0.1251 -0.4789 -0.4825
    3SAPS   C32  301   6.145   4.681  10.424 -0.3856  0.2177  0.1527
    3SAPS   H2X  302   6.035   4.700  10.422 -0.7652 -1.6685  1.7243
    3SAPS   H2Y  303   6.167   4.636  10.523 -0.2284 -0.5836 -0.2413
    3SAPS   C23  304   6.385   5.572  10.662 -0.0789 -0.2539 -0.1403
    3SAPS   H3R  305   6.482   5.519  10.657  0.1927  0.0545  1.6126
    3SAPS   H3S  306   6.368   5.598  10.768  0.4265 -0.3885 -0.0243
    3SAPS   C24  307   6.376   5.702  10.573 -0.2205  0.0761  0.2862
    3SAPS   H4R  308   6.278   5.755  10.584 -0.7889 -1.5159  3.5602
    3SAPS   H4S  309   6.371   5.667  10.468  0.5622  0.5873  0.0702
    3SAPS   C25  310   6.490   5.798  10.595  0.3272  0.0857 -0.3481
    3SAPS   H5R  311   6.519   5.811  10.701  1.3617  1.2658 -0.7716
    3SAPS   C26  312   6.547   5.865  10.496  0.0110 -0.5586 -0.6866
    3SAPS   H6R  313   6.607   5.952  10.527  1.1846 -0.7074 -2.4125
    3SAPS   C27  314   6.521   5.867  10.347  0.0653 -0.4674 -0.0973
    3SAPS   H7R  315   6.491   5.970  10.318  2.1132  0.4397  0.8839
    3SAPS   H7S  316   6.439   5.801  10.314  0.3392 -2.1867  2.5440
    3SAPS   C28  317   6.637   5.813  10.275  0.1778  0.1534  0.6297
    3SAPS   H8R  318   6.694   5.739  10.333 -0.2822  0.0766  0.9869
    3SAPS   C29  319   6.683   5.833  10.148  0.7598 -0.1712  0.3651
    3SAPS   H9R  320   6.773   5.775  10.124  0.5407 -0.0065 -0.9096
    3SAPS  C210  321   6.625   5.924  10.045 -0.4230 -0.1823  0.1331
    3SAPS  H10R  322   6.542   5.992  10.074 -0.3117 -1.1352  2.8364
    3SAPS  H10S  323   6.586   5.865   9.959 -0.6864  0.8483 -0.4694
    3SAPS  C211  324   6.734   6.012   9.989  0.3046  0.2435 -0.2674
    3SAPS  H11R  325   6.769   6.088  10.060  0.1499 -2.5048  2.8876
    3SAPS  C212  326   6.777   6.024   9.864 -0.5020 -0.0023 -0.1164
    3SAPS  H12R  327   6.862   6.093   9.850 -1.9230  2.2295  1.8841
    3SAPS  C213  328   6.731   5.949   9.742  0.2564  0.0073  0.2073
    3SAPS  H13R  329   6.641   6.000   9.700 -1.9768 -1.1129  3.4658
    3SAPS  H13S  330   6.694   5.854   9.787 -1.1231 -0.2490 -1.3849
    3SAPS  C214  331   6.852   5.926   9.655  0.0787 -0.1228 -0.3375
    3SAPS  H14R  332   6.943   5.894   9.709  0.1744 -1.0436 -1.0311
    3SAPS  C215  333   6.866   5.955   9.528 -0.1454 -0.1283  0.7738
    3SAPS  H15R  334   6.957   5.919   9.478 -0.6391  0.6078 -0.6735
    3SAPS  C216  335   6.754   6.015   9.437  0.5529  0.2993 -0.7573
    3SAPS  H16R  336   6.795   6.104   9.384 -0.9040  1.2203 -0.3682
    3SAPS  H16S  337   6.661   6.038   9.494  0.0086  2.0421 -2.2880
    3SAPS  C217  338   6.713   5.926   9.315 -0.1042  0.5326  0.2790
    3SAPS  H17R  339   6.626   5.965   9.259 -1.0131 -2.2031 -0.3057
    3SAPS  H17S  340   6.693   5.819   9.340 -1.5246  0.5940 -0.5747
    3SAPS  C218  341   6.817   5.910   9.206 -0.0382  0.5127  0.1812
    3SAPS  H18R  342   6.894   5.857   9.265 -0.4518  1.4940  1.6267
    3SAPS  H18S  343   6.853   6.003   9.157  0.2162  0.2976 -0.0446
    3SAPS  C219  344   6.773   5.823   9.090 -0.1625 -0.4194  1.0273
    3SAPS  H19R  345   6.670   5.859   9.065 -0.8634 -2.8162  0.3451
    3SAPS  H19S  346   6.772   5.716   9.118  0.8351 -0.3918  1.1650
    3SAPS  C220  347   6.848   5.844   8.961  0.9243  0.2018 -0.0130
    3SAPS  H20R  348   6.804   5.794   8.872 -0.4002  0.0541  0.7283
    3SAPS  H20S  349   6.951   5.802   8.972 -0.0772 -2.7820 -1.5655
    3SAPS  H20T  350   6.865   5.951   8.937  2.0612  0.6611  2.7036
    3SAPS   C33  351   6.191   4.581  10.316 -0.4455 -0.6142  0.2013
    3SAPS   H3X  352   6.130   4.489  10.323 -2.2882  0.6095  0.5346
    3SAPS   H3Y  353   6.298   4.559  10.338 -0.4912 -0.5633  0.4690
    3SAPS   C34  354   6.176   4.611  10.168 -0.2000 -0.7487  0.0193
    3SAPS   H4X  355   6.224   4.710  10.149 -1.0025  0.0535  2.0844
    3SAPS   H4Y  356   6.068   4.619  10.142  0.3129  1.3846 -1.6731
    3SAPS   C35  357   6.237   4.514  10.073 -0.6218 -0.5749 -0.1105
    3SAPS   H5X  358   6.216   4.414  10.117  2.3829 -0.1744  2.4197
    3SAPS   H5Y  359   6.347   4.530  10.079 -0.8050 -0.3501  3.1192
    3SAPS   C36  360   6.179   4.528   9.931  1.4852 -0.3386 -0.6242
    3SAPS   H6X  361   6.165   4.632   9.896 -1.2927 -0.9181 -1.3566
    3SAPS   H6Y  362   6.077   4.485   9.935  0.2603  2.0891 -3.9051
    3SAPS   C37  363   6.268   4.452   9.828 -0.0414  0.1565  0.2872
    3SAPS   H7X  364   6.262   4.342   9.842 -1.5262 -0.0665 -1.9712
    3SAPS   H7Y  365   6.373   4.488   9.831  0.0681  0.0918 -2.1500
    3SAPS   C38  366   6.216   4.500   9.690 -0.9369  0.1803 -0.8387
    3SAPS   H8X  367   6.234   4.610   9.680 -1.6237  0.4957  1.2548
    3SAPS   H8Y  368   6.108   4.475   9.683 -0.6146 -1.6931  0.4936
    3SAPS   C39  369   6.294   4.447   9.578 -0.0294 -0.1273  0.5609
    3SAPS   H9X  370   6.286   4.337   9.591 -0.5044 -0.3754 -1.5846
    3SAPS   H9Y  371   6.400   4.471   9.598 -0.2335  0.5382  0.8809
    3SAPS  C310  372   6.257   4.492   9.435 -0.1815  0.0149  0.3627
    3SAPS  H10X  373   6.257   4.603   9.432  2.0611 -0.0158 -2.3711
    3SAPS  H10Y  374   6.150   4.464   9.426 -0.5618  2.0294 -1.8081
    3SAPS  C311  375   6.345   4.430   9.321 -0.1779  0.2949  0.7732
    3SAPS  H11X  376   6.390   4.331   9.345 -1.6700 -1.0329 -1.6154
    3SAPS  H11Y  377   6.432   4.499   9.310 -0.5192  0.7549  0.9765
    3SAPS  C312  378   6.281   4.440   9.177  0.7581  0.3641 -0.0735
    3SAPS  H12X  379   6.173   4.421   9.196  1.2825 -2.1310  0.6415
    3SAPS  H12Y  380   6.312   4.361   9.105 -1.2528 -2.6317  2.2128
    3SAPS  C313  381   6.269   4.572   9.101  0.4239  0.6194  0.3129
    3SAPS  H13X  382   6.366   4.624   9.117  0.5503  0.3375  0.4619
    3SAPS  H13Y  383   6.180   4.619   9.147  1.4565  0.9202  2.0372
    3SAPS  C314  384   6.247   4.532   8.955  0.2642 -0.2480  0.2323
    3SAPS  H14X  385   6.162   4.462   8.942  0.7854 -1.1916  1.8398
    3SAPS  H14Y  386   6.333   4.469   8.926  0.3002 -0.3719  0.6006
    3SAPS  C315  387   6.230   4.659   8.866 -0.5631  0.6646  0.2262
    3SAPS  H15X  388   6.316   4.727   8.880 -0.5955  1.0134 -1.2492
    3SAPS  H15Y  389   6.136   4.711   8.896 -0.4607 -0.1821  2.0843
    3SAPS  C316  390   6.230   4.621   8.714  0.0526 -0.5470 -0.2395
    3SAPS  H16X  391   6.151   4.546   8.693  0.5003 -0.6715 -1.5270
    3SAPS  H16Y  392   6.319   4.559   8.693  2.0385  2.2906 -0.4696
    3SAPS  C317  393   6.216   4.736   8.618  0.9201  0.5414  0.6253
    3SAPS  H17X  394   6.242   4.689   8.520 -0.8155 -1.0820  0.8946
    3SAPS  H17Y  395   6.278   4.823   8.647  0.3927  1.5551 -1.2212
    3SAPS  C318  396   6.071   4.785   8.604  0.1248 -0.4289  0.3548
    3SAPS  H18X  397   6.033   4.827   8.509  0.1939 -2.3162 -0.5426
    3SAPS  H18Y  398   6.040   4.852   8.686  1.7791 -0.2338  0.8285
    3SAPS  H18Z  399   6.009   4.693   8.606 -0.3840 -0.2862 -3.4767
    4SAPS     N  400   1.791   6.563  10.900  0.0396 -0.2594  0.2257
    4SAPS   HN1  401   1.707   6.536  10.954  0.0333 -0.5558  0.0689
    4SAPS   HN2  402   1.755   6.629  10.828  0.5142 -0.9286 -0.6286
    4SAPS   HN3  403   1.841   6.480  10.862 -1.9777 -1.0240 -0.7844
    4SAPS   C12  404   1.873   6.626  11.012 -0.9364  0.3200 -0.5086
    4SAPS  H12A  405   1.804   6.694  11.059 -0.1430  1.7197 -1.3592
    4SAPS   C13  406   1.912   6.525  11.129 -0.9555  0.2366  0.1198
    4SAPS  O13A  407   1.879   6.402  11.117  0.3697 -0.0826 -0.2175
    4SAPS  O13B  408   1.977   6.565  11.232 -0.1604 -0.3812  0.2508
    4SAPS   C11  409   1.989   6.695  10.944  0.0990  0.0468 -0.2490
    4SAPS  H11A  410   2.066   6.738  11.012 -0.2121  0.5134 -0.1866
    4SAPS  H11B  411   1.955   6.780  10.882  2.3406 -0.3799 -2.1400
    4SAPS     P  412   2.204   6.598  10.815  0.1154  0.2625  0.1988
    4SAPS   O13  413   2.272   6.730  10.852 -0.1291 -0.1795  0.2144
    4SAPS   O14  414   2.271   6.477  10.865 -0.5520 -0.0727  0.5257
    4SAPS   O12  415   2.054   6.603  10.848  0.4130  0.3820 -0.2834
    4SAPS   O11  416   2.212   6.587  10.666 -0.2680  0.1510 -0.3588
    4SAPS    C1  417   2.106   6.597  10.568  0.5396  0.8000  0.2476
    4SAPS    HA  418   2.038   6.680  10.600  0.7830  0.8721  0.5732
    4SAPS    HB  419   2.153   6.617  10.469 -0.9460  1.5276 -0.3451
    4SAPS    C2  420   2.017   6.479  10.541 -0.2785  0.3151  0.3081
    4SAPS    HS  421   1.956   6.460  10.632 -1.0045 -2.8248 -0.7588
    4SAPS   O21  422   2.099   6.369  10.505 -0.2048  0.2826 -0.3050
    4SAPS   C21  423   2.042   6.249  10.506  0.2054 -0.1734  0.2128
    4SAPS   O22  424   1.923   6.227  10.529 -0.2952  0.5274  0.9290
    4SAPS   C22  425   2.144   6.142  10.456 -0.2481 -0.7594 -0.3836
    4SAPS   H2R  426   2.225   6.197  10.403 -3.3098  2.2348 -2.1284
    4SAPS   H2S  427   2.178   6.080  10.542  2.2713 -0.7064 -1.2906
    4SAPS    C3  428   1.905   6.500  10.426  0.2986 -0.3786  0.5314
    4SAPS    HX  429   1.847   6.593  10.440  0.2834 -0.4901  1.2434
    4SAPS    HY  430   1.831   6.420  10.449 -0.5654  0.6342  1.3143
    4SAPS   O31  431   1.945   6.494  10.280 -0.0950  0.0922  0.2448
    4SAPS   C31  432   1.974   6.604  10.224 -0.5096  0.2612  0.3019
    4SAPS   O32  433   1.973   6.715  10.278 -0.4987 -0.3052  0.2659
    4SAPS   C32  434   2.000   6.584  10.076 -0.1716  0.7086  0.2123
    4SAPS   H2X  435   1.906   6.606  10.022 -0.6072  0.3040  0.8065
    4SAPS   H2Y  436   2.022   6.478  10.051  1.2222  0.6700  1.5431
    4SAPS   C23  437   2.079   6.044  10.354  0.3946  0.0280  1.2464
    4SAPS   H3R  438   1.993   5.992  10.400 -0.3650 -1.6826 -1.9795
    4SAPS   H3S  439   2.147   5.961  10.326 -0.9108  0.2507 -2.9331
    4SAPS   C24  440   2.042   6.124  10.222  1.1679  0.5195  0.5142
    4SAPS   H4R  441   2.132   6.164  10.171  1.2849 -0.6631 -0.2456
    4SAPS   H4S  442   1.975   6.206  10.255  0.5394  0.5264 -0.7781
    4SAPS   C25  443   1.957   6.039  10.127  0.1011  0.2294 -0.0511
    4SAPS   H5R  444   1.917   5.952  10.182  2.4744 -1.9871 -1.6694
    4SAPS   C26  445   1.928   6.057   9.994  0.0109  0.2602 -0.0019
    4SAPS   H6R  446   1.861   5.984   9.947 -1.1125  0.8286  0.6868
    4SAPS   C27  447   1.974   6.175   9.910 -0.3057 -0.3702  0.0442
    4SAPS   H7R  448   2.043   6.139   9.831 -0.7865 -0.2252 -0.4425
    4SAPS   H7S  449   2.035   6.245   9.972 -0.6939 -0.7624  0.8691
    4SAPS   C28  450   1.854   6.254   9.857  0.4786  0.0389  0.4980
    4SAPS   H8R  451   1.759   6.236   9.909 -0.1260  1.4336 -0.0697
    4SAPS   C29  452   1.867   6.339   9.750  0.4151  0.5885 -0.3845
    4SAPS   H9R  453   1.771   6.389   9.726 -0.1991  0.8272  2.3861
    4SAPS  C210  454   1.986   6.362   9.659 -0.1011  0.2349  0.4655
    4SAPS  H10R  455   1.987   6.275   9.590 -0.8311  2.0788 -1.9527
    4SAPS  H10S  456   2.079   6.358   9.719 -0.3036  0.0700  0.7687
    4SAPS  C211  457   1.977   6.490   9.584  0.2013 -0.1723  0.2858
    4SAPS  H11R  458   2.021   6.574   9.640 -1.4925 -0.7281  2.5248
    4SAPS  C212  459   1.908   6.502   9.468 -0.5622 -0.2146 -0.5089
    4SAPS  H12R  460   1.906   6.601   9.420 -0.8186  0.2509  0.4419
    4SAPS  C213  461   1.841   6.387   9.392 -0.3513  0.2295 -0.0206
    4SAPS  H13R  462   1.739   6.428   9.379 -1.5136 -2.5798 -0.2059
    4SAPS  H13S  463   1.844   6.291   9.448  1.6319  1.0115  1.2457
    4SAPS  C214  464   1.914   6.358   9.257  1.0442  0.1686 -0.3447
    4SAPS  H14R  465   2.023   6.366   9.249  1.3213  0.0259  2.7598
    4SAPS  C215  466   1.870   6.300   9.150  0.7413  0.2806  0.3648
    4SAPS  H15R  467   1.942   6.280   9.069 -0.6475 -1.2150 -0.5271
    4SAPS  C216  468   1.734   6.251   9.116 -0.3591  0.3797  0.0549
    4SAPS  H16R  469   1.663   6.299   9.187  0.3155  1.0648  0.2713
    4SAPS  H16S  470   1.726   6.141   9.121 -1.4142  0.4337 -0.1780
    4SAPS  C217  471   1.702   6.289   8.966 -0.0914  0.1462 -0.5367
    4SAPS  H17R  472   1.599   6.252   8.950  0.1254 -0.8389  0.2968
    4SAPS  H17S  473   1.779   6.240   8.904  1.8768  1.0528  1.0946
    4SAPS  C218  474   1.701   6.443   8.938  0.2914 -0.0465  0.6856
    4SAPS  H18R  475   1.808   6.474   8.936  0.2687  0.1747  2.4967
    4SAPS  H18S  476   1.654   6.503   9.018 -1.1885  0.8103 -0.8094
    4SAPS  C219  477   1.632   6.476   8.810  0.1606  0.2207 -0.6489
    4SAPS  H19R  478   1.633   6.587   8.809  2.3838  0.2259  0.2029
    4SAPS  H19S  479   1.525   6.448   8.824  0.8610 -2.1054  0.2546
    4SAPS  C220  480   1.691   6.428   8.675 -0.0706  0.0314  0.0242
    4SAPS  H20R  481   1.702   6.320   8.698  1.3352  0.3221  0.7857
    4SAPS  H20S  482   1.792   6.469   8.657 -0.8758  2.9415  1.9019
    4SAPS  H20T  483   1.614   6.426   8.595 -1.2175 -0.6131  1.1195
    4SAPS   C33  484   2.104   6.689  10.016  0.9334  0.4430  0.2342
    4SAPS   H3X  485   2.199   6.642  10.051 -0.7563 -2.5351  1.0240
    4SAPS   H3Y  486   2.099   6.793  10.055  0.4946  1.7254 -3.0905
    4SAPS   C34  487   2.101   6.695   9.864 -0.4362 -0.3900 -0.7820
    4SAPS   H4X  488   2.006   6.733   9.821 -1.0068 -2.1790 -1.1398
    4SAPS   H4Y  489   2.098   6.590   9.827  0.2121 -1.0805  1.0403
    4SAPS   C35  490   2.225   6.755   9.803 -0.3168  0.1043  1.0071
    4SAPS   H5X  491   2.320   6.722   9.849  0.2765  0.6092  0.1471
    4SAPS   H5Y  492   2.232   6.865   9.816 -1.1507 -0.0306  2.7382
    4SAPS   C36  493   2.248   6.719   9.658 -0.2624  0.1679  0.4595
    4SAPS   H6X  494   2.157   6.748   9.602  1.0246  0.2842 -1.6416
    4SAPS   H6Y  495   2.274   6.611   9.647 -0.4141  0.2676 -1.0609
    4SAPS   C37  496   2.368   6.792   9.592 -0.1015 -0.3273 -0.3484
    4SAPS   H7X  497   2.467   6.781   9.643 -1.0346 -2.4187  1.0823
    4SAPS   H7Y  498   2.341   6.899   9.598  2.8007  0.4154  0.3468
    4SAPS   C38  499   2.387   6.752   9.443  0.0852 -0.3312 -0.5551
    4SAPS   H8X  500   2.289   6.760   9.390 -0.8191  1.2728  1.2963
    4SAPS   H8Y  501   2.437   6.653   9.439  1.3372  0.3255 -1.2203
    4SAPS   C39  502   2.488   6.841   9.359  0.0236  0.1986  0.4273
    4SAPS   H9X  503   2.584   6.838   9.415 -0.1169 -0.5508  0.6345
    4SAPS   H9Y  504   2.460   6.947   9.345  1.0152  0.5034  0.7109
    4SAPS  C310  505   2.533   6.787   9.224  0.3495 -0.8248 -0.2262
    4SAPS  H10X  506   2.441   6.756   9.171  1.2221 -0.4805 -1.9995
    4SAPS  H10Y  507   2.593   6.693   9.227 -1.4324 -1.9727 -0.1557
    4SAPS  C311  508   2.609   6.886   9.138  0.1821  0.0030  0.0472
    4SAPS  H11X  509   2.699   6.910   9.198  0.1267 -1.0261  0.5465
    4SAPS  H11Y  510   2.551   6.979   9.119  1.5381  0.9345  0.3734
    4SAPS  C312  511   2.647   6.840   8.999  0.4720 -0.1227  0.7452
    4SAPS  H12X  512   2.677   6.734   9.018 -0.3444 -0.8138 -1.6086
    4SAPS  H12Y  513   2.729   6.899   8.953  2.4968 -2.1327  1.6118
    4SAPS  C313  514   2.522   6.842   8.903 -0.4071 -0.1021  0.0251
    4SAPS  H13X  515   2.516   6.950   8.878  1.4131  0.0137  0.0193
    4SAPS  H13Y  516   2.431   6.812   8.961 -0.1663 -2.9770 -1.0069
    4SAPS  C314  517   2.536   6.751   8.784  0.6105  0.6443 -0.3581
    4SAPS  H14X  518   2.622   6.783   8.721  0.1762 -1.4025 -2.0496
    4SAPS  H14Y  519   2.445   6.766   8.722 -1.2092 -2.2036  1.5145
    4SAPS  C315  520   2.549   6.601   8.802 -0.0111  0.1755 -0.1147
    4SAPS  H15X  521   2.475   6.572   8.881  2.5097  1.3199  2.7518
    4SAPS  H15Y  522   2.643   6.566   8.849  0.6287  0.2538 -1.3341
    4SAPS  C316  523   2.539   6.532   8.668 -0.3109 -0.3631 -0.3221
    4SAPS  H16X  524   2.593   6.598   8.597 -0.4561  0.7896  0.6340
    4SAPS  H16Y  525   2.434   6.530   8.633  0.0095  2.4669 -1.5511
    4SAPS  C317  526   2.619   6.401   8.657  0.6136 -0.4314  0.4232
    4SAPS  H17X  527   2.585   6.333   8.738 -1.9486  0.4618  0.1495
    4SAPS  H17Y  528   2.727   6.427   8.668  0.2857  2.6338 -2.9396
    4SAPS  C318  529   2.600   6.332   8.527  0.1098  0.1422 -0.2604
    4SAPS  H18X  530   2.669   6.246   8.516  0.3916  0.4442 -0.8863
    4SAPS  H18Y  531   2.625   6.401   8.443  0.0884  1.7542  1.0284
    4SAPS  H18Z  532   2.501   6.297   8.493  0.6692  0.7649 -2.7042
    5SAPS     N  533   5.515   5.173  11.187  0.7078 -0.1814  0.6658
    5SAPS   HN1  534   5.556   5.242  11.253  2.2592  0.3115 -0.7944
    5SAPS   HN2  535   5.563   5.183  11.095  0.7134  4.5469  1.0993
    5SAPS   HN3  536   5.412   5.188  11.181  0.4341 -1.4590  1.8250
    5SAPS   C12  537   5.524   5.038  11.244  0.0971  0.8032 -0.3414
    5SAPS  H12A  538   5.631   5.023  11.256 -0.0963 -0.2950  0.0021
    5SAPS   C13  539   5.441   5.023  11.375 -0.4244  0.4210  0.6355
    5SAPS  O13A  540   5.345   5.104  11.390 -0.1223 -0.3127 -0.2977
    5SAPS  O13B  541   5.455   4.920  11.447  0.4220 -0.4507  0.4265
    5SAPS   C11  542   5.466   4.939  11.140  0.1465  0.8231  0.1759
    5SAPS  H11A  543   5.370   4.973  11.095  0.0930 -0.8673 -1.0424
    5SAPS  H11B  544   5.453   4.836  11.181  3.7586 -0.0902 -0.8278
    5SAPS     P  545   5.536   4.832  10.912  0.1076  0.1073 -0.1455
    5SAPS   O13  546   5.656   4.747  10.915 -0.5420  0.0321 -0.3935
    5SAPS   O14  547   5.404   4.761  10.921  0.1472 -0.3991 -0.5399
    5SAPS   O12  548   5.556   4.927  11.031  0.5483 -0.0756  0.3463
    5SAPS   O11  549   5.538   4.925  10.787 -0.3134 -0.4540 -0.1961
    5SAPS    C1  550   5.598   5.055  10.799  0.1694 -0.6786  1.0714
    5SAPS    HA  551   5.526   5.127  10.842  0.5070  0.2821  0.0493
    5SAPS    HB  552   5.692   5.056  10.858  1.5579 -2.2785 -1.0323
    5SAPS    C2  553   5.645   5.109  10.659 -0.7205 -0.0226 -0.5632
    5SAPS    HS  554   5.702   5.203  10.677 -2.2304  0.3761  2.5240
    5SAPS   O21  555   5.534   5.134  10.571  0.2419  0.2770 -0.4406
    5SAPS   C21  556   5.451   5.236  10.604 -0.8145 -0.1271 -0.2704
    5SAPS   O22  557   5.459   5.311  10.703  0.6697 -0.1134 -0.4258
    5SAPS   C22  558   5.345   5.252  10.497 -0.3505  0.0056 -0.1530
    5SAPS   H2R  559   5.328   5.156  10.444 -0.2704 -0.6855  1.0418
    5SAPS   H2S  560   5.252   5.284  10.549 -0.1147  0.4732 -0.0132
    5SAPS    C3  561   5.747   5.013  10.584 -0.0489  0.3200  0.6182
    5SAPS    HX  562   5.705   4.911  10.601  0.0201  0.5132  1.9489
    5SAPS    HY  563   5.839   5.015  10.646 -0.7739 -1.2064  1.7839
    5SAPS   O31  564   5.766   5.052  10.449 -0.3361 -0.3206  0.6961
    5SAPS   C31  565   5.693   4.979  10.365  0.3116  0.4452  0.1712
    5SAPS   O32  566   5.602   4.904  10.395 -0.0417  0.3854 -0.0319
    5SAPS   C32  567   5.746   4.991  10.222  0.6245 -0.0311  0.4608
    5SAPS   H2X  568   5.709   5.088  10.182  1.7818  0.4611  0.5403
    5SAPS   H2Y  569   5.705   4.906  10.165  2.1445 -1.5741  1.5914
    5SAPS   C23  570   5.395   5.354  10.392 -0.1424  0.4918 -0.3257
    5SAPS   H3R  571   5.407   5.452  10.443 -0.8752  1.5651 -2.1674
    5SAPS   H3S  572   5.312   5.365  10.319 -0.9133  1.4814  0.6954
    5SAPS   C24  573   5.528   5.325  10.311 -0.1997  0.5195  0.1420
    5SAPS   H4R  574   5.516   5.226  10.264 -0.4261 -0.9638  3.1997
    5SAPS   H4S  575   5.615   5.319  10.381  2.4978  0.1267 -3.1493
    5SAPS   C25  576   5.552   5.427  10.202  0.3826 -0.4304  0.5860
    5SAPS   H5R  577   5.535   5.528  10.243  1.0854  0.2426 -0.7489
    5SAPS   C26  578   5.581   5.419  10.071  0.2445 -0.1089 -0.1793
    5SAPS   H6R  579   5.591   5.508  10.008  0.7349 -0.1151 -0.1135
    5SAPS   C27  580   5.602   5.293   9.989  0.1922  0.2259  0.3387
    5SAPS   H7R  581   5.586   5.200  10.047 -0.8630  0.5790  0.6315
    5SAPS   H7S  582   5.712   5.294   9.975  0.1321 -2.8205 -0.7956
    5SAPS   C28  583   5.529   5.270   9.859 -0.2715  0.6345 -0.1727
    5SAPS   H8R  584   5.422   5.292   9.866 -0.2366  0.5376  0.7657
    5SAPS   C29  585   5.579   5.238   9.736 -0.0426  0.3131  0.1013
    5SAPS   H9R  586   5.517   5.235   9.645 -0.5225 -0.7656  0.4502
    5SAPS  C210  587   5.728   5.213   9.707 -0.1487 -0.9647  0.3614
    5SAPS  H10R  588   5.781   5.218   9.804 -0.8777  1.3590  0.6819
    5SAPS  H10S  589   5.767   5.298   9.647 -0.8981 -1.2719 -0.5836
    5SAPS  C211  590   5.762   5.086   9.625 -0.4504  0.6667 -0.0778
    5SAPS  H11R  591   5.770   5.003   9.697  1.0319 -0.5743 -1.6488
    5SAPS  C212  592   5.789   5.077   9.494  0.1750  0.0592 -0.5258
    5SAPS  H12R  593   5.823   4.979   9.457  2.5710  2.1975 -4.3336
    5SAPS  C213  594   5.791   5.182   9.389 -0.3173  0.4397 -0.3303
    5SAPS  H13R  595   5.866   5.154   9.311  1.3781 -1.5486  1.9210
    5SAPS  H13S  596   5.824   5.275   9.440  0.2825 -0.6754  1.3560
    5SAPS  C214  597   5.658   5.224   9.326 -0.5156 -0.5518  0.1860
    5SAPS  H14R  598   5.575   5.244   9.394 -4.0532 -1.4470 -3.6793
    5SAPS  C215  599   5.622   5.216   9.197 -0.0629 -0.0199  0.4298
    5SAPS  H15R  600   5.526   5.262   9.172  0.5357  0.4876 -0.9659
    5SAPS  C216  601   5.707   5.182   9.083 -0.5433 -0.0224  0.0839
    5SAPS  H16R  602   5.652   5.128   9.003 -1.8439  3.4402 -1.4586
    5SAPS  H16S  603   5.787   5.114   9.119 -1.0681 -0.4356  0.4899
    5SAPS  C217  604   5.763   5.308   9.014 -0.8104  0.3022  0.3744
    5SAPS  H17R  605   5.807   5.379   9.088  0.7187  0.9845 -1.1543
    5SAPS  H17S  606   5.677   5.354   8.962  0.3462  1.2943 -0.6903
    5SAPS  C218  607   5.866   5.265   8.913  0.3079 -0.4788 -0.9243
    5SAPS  H18R  608   5.917   5.175   8.954  1.5582  0.6497  0.0319
    5SAPS  H18S  609   5.815   5.232   8.820  0.0085  2.3786 -1.8040
    5SAPS  C219  610   5.962   5.374   8.870 -0.4270  0.3775  0.6240
    5SAPS  H19R  611   6.055   5.329   8.829 -1.5633 -1.0047 -0.4579
    5SAPS  H19S  612   5.983   5.434   8.962  1.7395 -0.6281  0.8250
    5SAPS  C220  613   5.911   5.462   8.753  0.4937  0.5812 -0.7478
    5SAPS  H20R  614   5.831   5.518   8.805 -1.2500 -2.0717 -0.4547
    5SAPS  H20S  615   5.875   5.392   8.674 -0.4432 -0.0583  0.2233
    5SAPS  H20T  616   5.985   5.536   8.717  1.1322  0.0291 -0.5663
    5SAPS   C33  617   5.904   5.001  10.218 -0.6086 -0.6013 -0.0799
    5SAPS   H3X  618   5.933   4.915  10.281 -2.7308 -0.1567  1.5452
    5SAPS   H3Y  619   5.953   5.084  10.274 -2.9716  0.4933  0.4018
    5SAPS   C34  620   5.956   4.974  10.078 -0.3376  0.1873 -0.2399
    5SAPS   H4X  621   5.898   5.042  10.012 -2.3354 -2.2456 -1.0647
    5SAPS   H4Y  622   5.923   4.871  10.053 -0.4880 -0.2639  1.7394
    5SAPS   C35  623   6.109   4.993  10.066 -0.0044  0.2781 -0.5743
    5SAPS   H5X  624   6.145   4.912  10.134 -1.6774 -0.0371 -0.0463
    5SAPS   H5Y  625   6.127   5.096  10.105 -0.8569 -0.6094  2.2762
    5SAPS   C36  626   6.147   4.981   9.919  0.2445 -0.3920 -0.1603
    5SAPS   H6X  627   6.091   4.892   9.882  0.8602 -0.0832 -1.9159
    5SAPS   H6Y  628   6.257   4.965   9.912  0.1988 -0.5085 -0.6520
    5SAPS   C37  629   6.109   5.101   9.833  0.1132  0.1643  0.0498
    5SAPS   H7X  630   6.173   5.184   9.871  0.0236  0.3972 -0.3024
    5SAPS   H7Y  631   6.003   5.132   9.849  0.2036  1.0420 -1.0011
    5SAPS   C38  632   6.130   5.072   9.685 -0.2044 -0.1255  0.2436
    5SAPS   H8X  633   6.116   5.172   9.639 -0.6563 -0.3599 -0.1249
    5SAPS   H8Y  634   6.040   5.014   9.655 -0.7710  0.8544  0.0066
    5SAPS   C39  635   6.254   5.003   9.632  0.0616 -0.1800 -0.2286
    5SAPS   H9X  636   6.270   4.896   9.658  1.5240 -0.0682 -0.6453
    5SAPS   H9Y  637   6.352   5.053   9.651  0.5174 -1.5298  1.1414
    5SAPS  C310  638   6.234   4.997   9.482 -1.1487  0.6930 -0.3731
    5SAPS  H10X  639   6.213   5.093   9.430  1.0058  0.9836 -0.7471
    5SAPS  H10Y  640   6.153   4.925   9.457 -0.0738  0.0475 -2.0616
    5SAPS  C311  641   6.363   4.935   9.414 -0.3126 -0.1096 -0.0495
    5SAPS  H11X  642   6.375   4.835   9.462 -0.3166 -0.1739 -0.1800
    5SAPS  H11Y  643   6.454   4.990   9.445  0.3205 -2.2975  2.1367
    5SAPS  C312  644   6.344   4.914   9.263  0.5588 -0.1156 -0.0187
    5SAPS  H12X  645   6.254   4.853   9.243  1.9518 -2.0749 -0.4267
    5SAPS  H12Y  646   6.430   4.858   9.220  1.3330  1.0128  0.0454
    5SAPS  C313  647   6.338   5.050   9.184 -0.3275  0.6086  0.2007
    5SAPS  H13X  648   6.441   5.092   9.177 -0.2252  0.0663 -1.8142
    5SAPS  H13Y  649   6.269   5.117   9.238  0.7606  0.2316  2.1082
    5SAPS  C314  650   6.282   5.020   9.045  0.1168  0.2552 -0.4663
    5SAPS  H14X  651   6.171   5.019   9.037  0.1751  0.8338 -1.5095
    5SAPS  H14Y  652   6.325   4.920   9.022  2.0057  1.6030 -3.1833
    5SAPS  C315  653   6.333   5.120   8.945  0.4661 -0.3294  0.4020
    5SAPS  H15X  654   6.443   5.130   8.938  0.2525  1.1626 -1.4052
    5SAPS  H15Y  655   6.273   5.211   8.968  0.9027  0.7762 -2.6124
    5SAPS  C316  656   6.293   5.076   8.807 -0.0890  0.4117  0.0593
    5SAPS  H16X  657   6.183   5.069   8.803 -0.2305  2.2785  0.2096
    5SAPS  H16Y  658   6.332   4.973   8.790 -2.0948 -0.3218 -0.1381
    5SAPS  C317  659   6.334   5.168   8.695  0.4234 -0.6659  0.7558
    5SAPS  H17X  660   6.445   5.176   8.685  0.4813 -1.9104  0.3302
    5SAPS  H17Y  661   6.298   5.267   8.729  0.3022  1.2822 -4.5308
    5SAPS  C318  662   6.265   5.140   8.563 -0.6766 -0.5643 -0.8805
    5SAPS  H18X  663   6.321   5.052   8.524  1.1408 -0.9747  2.4573
    5SAPS  H18Y  664   6.287   5.217   8.487  1.2183  0.2786  0.4881
    5SAPS  H18Z  665   6.154   5.129   8.563 -0.4524 -3.2722 -1.9097
    6SAPS     N  666   5.732   4.473  10.924  0.0321  0.1171  0.0334
    6SAPS   HN1  667   5.697   4.569  10.905  0.5586  0.0792 -1.1743
    6SAPS   HN2  668   5.834   4.466  10.945  0.5693 -3.9023 -3.1839
    6SAPS   HN3  669   5.714   4.411  10.842 -2.3619  1.8955 -0.8185
    6SAPS   C12  670   5.649   4.413  11.042 -0.3186  0.3460  0.6480
    6SAPS  H12A  671   5.679   4.309  11.037 -1.3374 -0.0412  2.3283
    6SAPS   C13  672   5.681   4.466  11.174 -0.4996 -0.5870 -0.4744
    6SAPS  O13A  673   5.770   4.545  11.196  0.3211  0.0506 -0.8172
    6SAPS  O13B  674   5.616   4.415  11.269 -0.4053 -0.2915 -0.1079
    6SAPS   C11  675   5.498   4.442  11.019  0.3439  0.1613 -0.4509
    6SAPS  H11A  676   5.473   4.550  11.024  1.9110  0.5354 -0.1201
    6SAPS  H11B  677   5.437   4.385  11.093  0.0699  1.2309  0.1492
    6SAPS     P  678   5.324   4.307  10.864 -0.0336 -0.1951 -0.4250
    6SAPS   O13  679   5.352   4.164  10.884  0.4177 -0.0504 -0.1995
    6SAPS   O14  680   5.214   4.360  10.946 -0.2777 -0.7194  0.1324
    6SAPS   O12  681   5.456   4.392  10.889 -0.7310 -0.2135  0.0113
    6SAPS   O11  682   5.290   4.327  10.706  0.1281 -0.4061 -0.5048
    6SAPS    C1  683   5.203   4.229  10.649  0.3650  0.4406  0.1205
    6SAPS    HA  684   5.273   4.169  10.588  2.0667  1.9367  0.5446
    6SAPS    HB  685   5.163   4.146  10.711 -0.4056  0.0964 -0.8255
    6SAPS    C2  686   5.084   4.282  10.562 -0.7405 -0.4772  0.9928
    6SAPS    HS  687   5.060   4.206  10.485 -1.1661 -0.0074  0.6605
    6SAPS   O21  688   5.105   4.414  10.492 -0.1366 -0.2125 -0.3904
    6SAPS   C21  689   5.220   4.434  10.426 -0.5736  0.3176 -0.5586
    6SAPS   O22  690   5.303   4.352  10.394 -1.3157 -0.6166 -0.1735
    6SAPS   C22  691   5.220   4.580  10.368  0.1142  0.2640 -0.2845
    6SAPS   H2R  692   5.114   4.613  10.366 -0.3262 -0.6488  3.6890
    6SAPS   H2S  693   5.263   4.648  10.444 -2.7838  0.8899  0.8656
    6SAPS    C3  694   4.969   4.304  10.651 -0.0296  0.2822  0.0180
    6SAPS    HX  695   4.994   4.374  10.734  0.4210  1.0805 -0.7955
    6SAPS    HY  696   4.938   4.212  10.707 -0.1309  0.1089 -0.3217
    6SAPS   O31  697   4.849   4.344  10.578 -0.2577 -0.2563  0.0144
    6SAPS   C31  698   4.784   4.242  10.514 -0.5166  0.8183 -0.6703
    6SAPS   O32  699   4.811   4.120  10.526  0.3661 -0.4887  0.0846
    6SAPS   C32  700   4.685   4.311  10.422  0.4565 -0.2651 -0.5512
    6SAPS   H2X  701   4.737   4.384  10.357 -0.1529  0.2531 -0.4675
    6SAPS   H2Y  702   4.604   4.356  10.483  0.0512  0.3740 -1.5573
    6SAPS   C23  703   5.294   4.592  10.226  0.4509 -0.5250 -0.2056
    6SAPS   H3R  704   5.241   4.539  10.144 -1.0983 -1.8909  1.6255
    6SAPS   H3S  705   5.390   4.545  10.256  1.1003  1.5071  1.0383
    6SAPS   C24  706   5.318   4.732  10.181  0.2595 -0.7356 -0.1048
    6SAPS   H4R  707   5.380   4.715  10.090  0.5739  1.7575 -0.3955
    6SAPS   H4S  708   5.385   4.780  10.255  1.1482 -0.1916 -1.2305
    6SAPS   C25  709   5.189   4.804  10.161 -0.2853  0.4089 -0.0023
    6SAPS   H5R  710   5.124   4.817  10.249  2.3650  2.5420  1.6983
    6SAPS   C26  711   5.145   4.858  10.041 -0.0251 -0.6132 -0.0858
    6SAPS   H6R  712   5.046   4.905  10.031 -0.1291 -0.0601  3.1670
    6SAPS   C27  713   5.225   4.866   9.912 -0.4126  0.8111 -0.0666
    6SAPS   H7R  714   5.301   4.785   9.917 -1.9028 -0.7397 -1.9097
    6SAPS   H7S  715   5.279   4.964   9.908  0.6089  0.2204 -0.8729
    6SAPS   C28  716   5.136   4.836   9.797 -0.3845  0.2144  0.5168
    6SAPS   H8R  717   5.057   4.912   9.788 -0.6060 -0.1969 -1.1658
    6SAPS   C29  718   5.158   4.758   9.689  0.0297 -0.2733  0.3265
    6SAPS   H9R  719   5.082   4.757   9.610  1.4418  1.0921 -1.0871
    6SAPS  C210  720   5.273   4.666   9.666 -0.5414  0.6677  0.5627
    6SAPS  H10R  721   5.251   4.576   9.728 -2.0044  1.7105  1.6024
    6SAPS  H10S  722   5.361   4.706   9.721 -0.0389 -0.8023  0.8577
    6SAPS  C211  723   5.295   4.645   9.518 -0.0241  0.2730  0.6958
    6SAPS  H11R  724   5.238   4.564   9.470  3.0288 -1.8580  0.5266
    6SAPS  C212  725   5.364   4.738   9.449 -0.3900  0.4787 -0.0787
    6SAPS  H12R  726   5.365   4.726   9.340 -1.5726 -0.4209  0.0022
    6SAPS  C213  727   5.426   4.872   9.502 -0.4898  0.5801 -0.2675
    6SAPS  H13R  728   5.530   4.856   9.536 -0.1648 -1.4691 -2.1005
    6SAPS  H13S  729   5.367   4.913   9.587  0.1673  2.4479 -0.6923
    6SAPS  C214  730   5.434   4.977   9.395 -0.3308  0.1342 -1.0524
    6SAPS  H14R  731   5.525   4.970   9.333 -0.6962 -0.2539 -1.5547
    6SAPS  C215  732   5.324   5.049   9.357 -0.1479  0.0066  0.0317
    6SAPS  H15R  733   5.346   5.116   9.273 -0.9874  0.2976  0.0430
    6SAPS  C216  734   5.182   5.046   9.406  0.6448  0.2443  0.1993
    6SAPS  H16R  735   5.134   4.946   9.413  1.3953 -0.0098  2.1284
    6SAPS  H16S  736   5.118   5.091   9.328 -0.3034  0.2672  0.9804
    6SAPS  C217  737   5.162   5.119   9.537 -0.0297  0.2867  0.1773
    6SAPS  H17R  738   5.202   5.222   9.534  5.7130 -1.7526 -0.5545
    6SAPS  H17S  739   5.217   5.071   9.621 -3.0010  0.1496  2.1143
    6SAPS  C218  740   5.011   5.121   9.557 -0.3856 -0.5055  0.1571
    6SAPS  H18R  741   4.973   5.017   9.549  2.6174 -1.6972  0.7820
    6SAPS  H18S  742   4.965   5.194   9.487 -0.2487  0.2289  0.8291
    6SAPS  C219  743   4.986   5.181   9.699  0.3748  0.0193 -0.5981
    6SAPS  H19R  744   5.014   5.288   9.693 -0.8994  0.3483 -0.7120
    6SAPS  H19S  745   5.038   5.115   9.773  0.4455 -0.2273 -0.8668
    6SAPS  C220  746   4.837   5.174   9.735  0.4529 -0.3282 -0.0259
    6SAPS  H20R  747   4.783   5.266   9.703 -1.5167 -1.7036 -0.7496
    6SAPS  H20S  748   4.818   5.171   9.844 -1.4329  1.6669 -0.2693
    6SAPS  H20T  749   4.798   5.079   9.691  2.8107 -1.3347 -0.0476
    6SAPS   C33  750   4.635   4.200  10.318  0.0841 -0.1421 -0.4293
    6SAPS   H3X  751   4.574   4.127  10.375 -0.3101  0.8001  0.3710
    6SAPS   H3Y  752   4.709   4.141  10.260 -0.7313 -0.5682 -1.0564
    6SAPS   C34  753   4.548   4.278  10.221  0.0704 -0.6179 -0.4284
    6SAPS   H4X  754   4.606   4.345  10.154 -0.9233  0.1249 -0.5666
    6SAPS   H4Y  755   4.475   4.338  10.279  0.4737  0.2317 -0.7806
    6SAPS   C35  756   4.461   4.184  10.136  0.0531 -0.3509 -0.1783
    6SAPS   H5X  757   4.376   4.146  10.195 -0.3877 -0.4464 -0.8607
    6SAPS   H5Y  758   4.530   4.100  10.109 -0.3177 -0.5644 -0.4721
    6SAPS   C36  759   4.416   4.250   9.998  0.1595 -0.1836  0.0359
    6SAPS   H6X  760   4.372   4.351  10.007 -1.3780 -0.7485 -0.9907
    6SAPS   H6Y  761   4.345   4.177   9.954  0.8799  0.5631 -2.4569
    6SAPS   C37  762   4.530   4.238   9.892  0.4691 -0.6224  0.7068
    6SAPS   H7X  763   4.582   4.141   9.906  0.7666 -0.4088  1.0993
    6SAPS   H7Y  764   4.595   4.329   9.897  0.2173 -0.4108  0.1778
    6SAPS   C38  765   4.475   4.225   9.749 -0.6361  0.0755  0.1481
    6SAPS   H8X  766   4.414   4.315   9.724  0.6331  0.5833 -1.2393
    6SAPS   H8Y  767   4.391   4.152   9.741  0.4101 -1.4121  2.2611
    6SAPS   C39  768   4.586   4.210   9.648  0.4074 -0.1648 -0.4453
    6SAPS   H9X  769   4.660   4.137   9.689 -1.8298 -0.9567  2.3406
    6SAPS   H9Y  770   4.646   4.303   9.638 -1.3156  0.9907 -0.1700
    6SAPS  C310  771   4.530   4.147   9.516  0.3299  0.3120 -0.7838
    6SAPS  H10X  772   4.421   4.165   9.503  0.3701  0.6963 -0.5961
    6SAPS  H10Y  773   4.549   4.038   9.519  0.3163  0.3351  1.3546
    6SAPS  C311  774   4.587   4.209   9.388  0.3125  0.0964 -0.0561
    6SAPS  H11X  775   4.693   4.177   9.386 -0.1435 -1.4426  0.1191
    6SAPS  H11Y  776   4.594   4.320   9.383 -2.1191  0.2546 -1.0265
    6SAPS  C312  777   4.524   4.148   9.261  0.2889 -0.8469  0.3105
    6SAPS  H12X  778   4.416   4.175   9.260  0.7351  1.0286  0.5668
    6SAPS  H12Y  779   4.526   4.038   9.270 -1.0321 -0.7707  1.6694
    6SAPS  C313  780   4.594   4.190   9.127 -0.9070  0.0883 -0.0231
    6SAPS  H13X  781   4.550   4.130   9.044 -0.1194  1.3705 -1.3847
    6SAPS  H13Y  782   4.704   4.174   9.125 -0.6510  1.6822  0.9664
    6SAPS  C314  783   4.570   4.339   9.098 -0.0283  0.3407  0.5105
    6SAPS  H14X  784   4.596   4.393   9.192 -0.9858  2.3293 -0.3415
    6SAPS  H14Y  785   4.460   4.351   9.088 -0.0523  0.0264  0.3826
    6SAPS  C315  786   4.634   4.393   8.974 -0.7556 -0.3904  0.8609
    6SAPS  H15X  787   4.744   4.376   8.978 -0.2460  2.4701 -0.0850
    6SAPS  H15Y  788   4.630   4.504   8.974  0.9919 -0.2987 -0.8984
    6SAPS  C316  789   4.557   4.339   8.844  0.5571  0.4648 -0.7119
    6SAPS  H16X  790   4.451   4.371   8.856  0.2548 -0.5511 -0.6287
    6SAPS  H16Y  791   4.563   4.232   8.817  2.9460  0.7760 -1.5311
    6SAPS  C317  792   4.608   4.393   8.715 -0.7784 -0.1579  0.0263
    6SAPS  H17X  793   4.622   4.502   8.729 -1.1882 -0.2123  0.8647
    6SAPS  H17Y  794   4.534   4.377   8.633  1.9716 -1.6434 -2.2663
    6SAPS  C318  795   4.742   4.328   8.664  0.9569 -0.5216 -0.0825
    6SAPS  H18X  796   4.714   4.231   8.618 -1.3539 -1.4398  3.0211
    6SAPS  H18Y  797   4.809   4.306   8.750  0.8332 -1.2311 -0.1696
    6SAPS  H18Z  798   4.785   4.405   8.596 -2.3038 -0.5117 -2.2548
    7SAPS     N  799   0.528   5.089  10.689 -0.2408 -0.8341 -0.1640
    7SAPS   HN1  800   0.490   4.992  10.684  0.4753 -1.0507 -1.4097
    7SAPS   HN2  801   0.606   5.094  10.621  0.2460  0.8204  0.4924
    7SAPS   HN3  802   0.561   5.121  10.783  1.0316 -0.0514 -0.8694
    7SAPS   C12  803   0.420   5.186  10.648 -0.2591  0.5205  0.4041
    7SAPS  H12A  804   0.393   5.149  10.551  2.1250 -0.9641  0.2748
    7SAPS   C13  805   0.304   5.179  10.751 -0.0174  0.0196  0.3601
    7SAPS  O13A  806   0.303   5.097  10.849  0.0672  0.4200  0.5937
    7SAPS  O13B  807   0.219   5.269  10.747 -0.2027 -0.4648 -0.1596
    7SAPS   C11  808   0.482   5.330  10.618  0.1897 -0.5844  0.5215
    7SAPS  H11A  809   0.487   5.384  10.715  0.8682 -1.1714  0.8189
    7SAPS  H11B  810   0.411   5.393  10.560  1.0732 -0.1474 -0.0968
    7SAPS     P  811   0.730   5.411  10.603  0.0011 -0.7567 -0.1919
    7SAPS   O13  812   0.665   5.535  10.667 -0.2288  0.0165  0.0109
    7SAPS   O14  813   0.827   5.334  10.685 -0.6437 -0.3553 -0.4685
    7SAPS   O12  814   0.612   5.317  10.553 -0.4185  0.1419  0.1003
    7SAPS   O11  815   0.797   5.456  10.467  0.4110  0.8718 -0.7554
    7SAPS    C1  816   0.712   5.498  10.364 -0.3970 -0.1904 -0.9832
    7SAPS    HA  817   0.750   5.450  10.271  1.8681 -1.2081  0.4305
    7SAPS    HB  818   0.604   5.471  10.374  0.1493 -2.3149 -0.5356
    7SAPS    C2  819   0.742   5.650  10.336  0.7489 -0.2474 -0.6840
    7SAPS    HS  820   0.852   5.655  10.321  1.4290 -1.2958  3.3124
    7SAPS   O21  821   0.703   5.725  10.452 -0.5335 -0.1588  0.2723
    7SAPS   C21  822   0.793   5.815  10.492 -0.1246 -0.1850 -0.7714
    7SAPS   O22  823   0.898   5.833  10.434  0.4420  0.2400 -0.2366
    7SAPS   C22  824   0.728   5.902  10.608  0.2737 -0.3240 -0.3038
    7SAPS   H2R  825   0.714   5.828  10.690  1.1215 -0.3000 -0.1343
    7SAPS   H2S  826   0.803   5.974  10.647  1.6173 -0.9239 -1.7591
    7SAPS    C3  827   0.667   5.703  10.217 -0.0406  0.1491 -0.6908
    7SAPS    HX  828   0.663   5.814  10.214 -0.1114  0.1418 -0.8686
    7SAPS    HY  829   0.563   5.665  10.223  0.7415 -1.8764  0.3620
    7SAPS   O31  830   0.727   5.654  10.088 -0.1566  0.2148 -0.2260
    7SAPS   C31  831   0.668   5.551  10.030  1.0397 -0.8149  0.0714
    7SAPS   O32  832   0.569   5.493  10.074 -0.2964  0.0641  0.0448
    7SAPS   C32  833   0.750   5.514   9.904  0.9445 -0.4691  1.0688
    7SAPS   H2X  834   0.801   5.419   9.930 -0.3160 -1.4304  0.1053
    7SAPS   H2Y  835   0.823   5.596   9.886 -1.0905  0.9983 -0.8085
    7SAPS   C23  836   0.590   5.965  10.569  0.4788  1.1845  1.0381
    7SAPS   H3R  837   0.536   5.986  10.664 -0.0428  3.8992  0.1833
    7SAPS   H3S  838   0.526   5.894  10.513  0.4533 -0.8958  3.6157
    7SAPS   C24  839   0.608   6.099  10.484 -0.2579  0.0348  0.1455
    7SAPS   H4R  840   0.670   6.085  10.393  0.3702 -1.5597  0.7927
    7SAPS   H4S  841   0.653   6.177  10.549 -1.9604  2.1675 -1.1707
    7SAPS   C25  842   0.472   6.158  10.444  0.4786 -0.3866 -0.1543
    7SAPS   H5R  843   0.404   6.168  10.529  0.8692 -0.2983  0.1492
    7SAPS   C26  844   0.427   6.209  10.331  0.0781  0.9295  0.0142
    7SAPS   H6R  845   0.324   6.249  10.325 -1.2125 -2.3583 -0.4819
    7SAPS   C27  846   0.504   6.233  10.203  0.6838  0.4226  1.2320
    7SAPS   H7R  847   0.462   6.164  10.127  0.7260  0.6073  1.0415
    7SAPS   H7S  848   0.612   6.211  10.216  1.2207  1.9880 -0.4409
    7SAPS   C28  849   0.492   6.371  10.150  0.6971 -1.1242 -0.4245
    7SAPS   H8R  850   0.525   6.446  10.223  2.0475 -0.4947 -1.6593
    7SAPS   C29  851   0.456   6.414  10.022  0.0789  0.2394 -0.3620
    7SAPS   H9R  852   0.447   6.522  10.005 -0.8338  0.5273  1.7730
    7SAPS  C210  853   0.432   6.332   9.903  0.3364  0.2218  0.6173
    7SAPS  H10R  854   0.330   6.287   9.911 -0.5430  1.6946 -1.6355
    7SAPS  H10S  855   0.503   6.248   9.914  1.2058  0.6680 -1.3149
    7SAPS  C211  856   0.460   6.393   9.766  0.6555 -0.0679  0.6921
    7SAPS  H11R  857   0.538   6.471   9.761  0.2221  0.3547  0.4228
    7SAPS  C212  858   0.433   6.353   9.640  0.8401 -0.0474 -0.1665
    7SAPS  H12R  859   0.456   6.422   9.557  1.4085  1.4937  1.2481
    7SAPS  C213  860   0.359   6.227   9.602  0.2189 -0.1984  0.3941
    7SAPS  H13R  861   0.323   6.169   9.690  1.4906 -0.0330  1.0234
    7SAPS  H13S  862   0.440   6.160   9.564  1.3642  0.9150  0.8553
    7SAPS  C214  863   0.256   6.254   9.495 -0.2418 -0.7771  0.4421
    7SAPS  H14R  864   0.166   6.296   9.541  0.7661  0.8076  1.0226
    7SAPS  C215  865   0.255   6.216   9.361  0.2026  0.5746  0.1526
    7SAPS  H15R  866   0.169   6.232   9.294  1.2584  1.8796 -0.9309
    7SAPS  C216  867   0.371   6.144   9.294  0.0692 -0.0531  0.2013
    7SAPS  H16R  868   0.331   6.048   9.253  0.8335 -0.2619 -0.0722
    7SAPS  H16S  869   0.453   6.115   9.364  0.2924 -1.2501 -0.5291
    7SAPS  C217  870   0.436   6.222   9.179  0.4584 -0.2400  0.6516
    7SAPS  H17R  871   0.521   6.282   9.219  0.9737  1.0718 -2.2743
    7SAPS  H17S  872   0.364   6.289   9.127 -0.5827 -0.7300  1.4417
    7SAPS  C218  873   0.500   6.139   9.068 -1.0315  0.5469 -0.9940
    7SAPS  H18R  874   0.554   6.053   9.112 -1.9675  0.6032  0.3166
    7SAPS  H18S  875   0.575   6.186   9.002  0.6218 -0.3486  0.2075
    7SAPS  C219  876   0.396   6.084   8.973 -0.1706  0.6307 -0.1329
    7SAPS  H19R  877   0.329   6.019   9.034 -0.5721  0.0461 -1.1808
    7SAPS  H19S  878   0.452   6.022   8.900 -0.4000 -0.5396  0.6565
    7SAPS  C220  879   0.301   6.173   8.893 -0.8130 -0.0575  0.0714
    7SAPS  H20R  880   0.238   6.101   8.837  0.1040 -1.3276  0.6539
    7SAPS  H20S  881   0.349   6.227   8.808 -0.4013 -2.5029 -1.2941
    7SAPS  H20T  882   0.238   6.249   8.943 -0.8751 -0.4054  0.5210
    7SAPS   C33  883   0.668   5.477   9.778 -0.3803  0.0709  0.1200
    7SAPS   H3X  884   0.593   5.556   9.754  1.4883  2.1604  0.9885
    7SAPS   H3Y  885   0.629   5.374   9.790 -3.5552  1.1192 -0.6279
    7SAPS   C34  886   0.755   5.460   9.656  0.1232  0.0288  0.9631
    7SAPS   H4X  887   0.833   5.387   9.688  2.0266  1.3098 -0.5930
    7SAPS   H4Y  888   0.812   5.554   9.640 -0.2042 -0.2956 -2.5135
    7SAPS   C35  889   0.678   5.411   9.530 -0.4977  0.5204 -0.8377
    7SAPS   H5X  890   0.709   5.477   9.446 -0.3508  3.1099  1.1843
    7SAPS   H5Y  891   0.572   5.440   9.547 -1.0766 -1.5330 -0.7615
    7SAPS   C36  892   0.694   5.262   9.500  1.5241 -0.9405  0.1466
    7SAPS   H6X  893   0.655   5.195   9.580  2.0031 -1.8447 -0.3667
    7SAPS   H6Y  894   0.799   5.229   9.487  2.3525  1.0964  1.5049
    7SAPS   C37  895   0.617   5.229   9.372 -0.1410 -0.0799 -0.1285
    7SAPS   H7X  896   0.676   5.280   9.292 -0.6319  0.3597 -0.2173
    7SAPS   H7Y  897   0.529   5.295   9.383 -0.7785 -0.9729  0.0822
    7SAPS   C38  898   0.585   5.082   9.354  0.0536 -0.1468  0.3252
    7SAPS   H8X  899   0.515   5.046   9.432  2.0192 -2.4463  1.0818
    7SAPS   H8Y  900   0.681   5.026   9.360 -1.2612 -2.3562  1.1498
    7SAPS   C39  901   0.531   5.065   9.208  0.2742  0.2971 -0.0311
    7SAPS   H9X  902   0.616   5.092   9.141  1.1274  0.3805  1.0643
    7SAPS   H9Y  903   0.445   5.132   9.188  0.5518  1.0045  1.1684
    7SAPS  C310  904   0.498   4.919   9.169 -0.6979 -0.2913 -0.1091
    7SAPS  H10X  905   0.391   4.905   9.195 -0.7721 -0.2756 -0.4136
    7SAPS  H10Y  906   0.556   4.840   9.223 -1.5307 -0.3677  0.6907
    7SAPS  C311  907   0.532   4.899   9.018  1.3149  0.2644 -0.6555
    7SAPS  H11X  908   0.641   4.917   9.005  1.3870  0.5118  0.2486
    7SAPS  H11Y  909   0.483   4.981   8.962  0.2262  1.2185  1.6162
    7SAPS  C312  910   0.493   4.767   8.956  0.2637 -0.2546  0.2097
    7SAPS  H12X  911   0.386   4.740   8.955  0.7737 -2.4471  1.5084
    7SAPS  H12Y  912   0.543   4.686   9.015  1.0065  1.8125  2.5406
    7SAPS  C313  913   0.561   4.756   8.814  0.9346  0.1441 -0.4438
    7SAPS  H13X  914   0.668   4.784   8.818  1.2577 -1.0010 -0.9178
    7SAPS  H13Y  915   0.528   4.837   8.745 -1.4141 -1.2666 -1.0539
    7SAPS  C314  916   0.560   4.620   8.748  0.4599  0.2122 -0.4684
    7SAPS  H14X  917   0.567   4.543   8.828 -0.9199  0.1889 -0.3614
    7SAPS  H14Y  918   0.638   4.592   8.674  1.6020 -3.2195  1.8858
    7SAPS  C315  919   0.424   4.582   8.688 -0.8225 -0.6088  0.0544
    7SAPS  H15X  920   0.381   4.675   8.643 -0.7272 -0.4138  0.3683
    7SAPS  H15Y  921   0.354   4.552   8.769 -1.3900  3.3354  1.1365
    7SAPS  C316  922   0.429   4.472   8.581  0.1055  0.3364  0.2180
    7SAPS  H16X  923   0.513   4.499   8.513  0.7892 -1.7817  0.1702
    7SAPS  H16Y  924   0.338   4.464   8.518  0.0084 -0.1734  0.4224
    7SAPS  C317  925   0.469   4.343   8.640  0.0454 -0.3869  0.3512
    7SAPS  H17X  926   0.525   4.342   8.736  1.5701 -0.2596 -0.5310
    7SAPS  H17Y  927   0.538   4.286   8.575  1.3531  0.5731  0.8904
    7SAPS  C318  928   0.341   4.255   8.659  0.4143 -0.1324 -0.8086
    7SAPS  H18X  929   0.362   4.178   8.737  1.9856  1.6154  0.5641
    7SAPS  H18Y  930   0.299   4.204   8.570 -0.9572 -0.3948 -0.0197
    7SAPS  H18Z  931   0.249   4.307   8.695  0.4424  0.3254 -1.3912
    8SAPS     N  932   4.739   0.241  11.256 -0.2028  0.1145 -0.1686
    8SAPS   HN1  933   4.834   0.283  11.266  0.3670 -1.0151 -0.7810
    8SAPS   HN2  934   4.695   0.283  11.172  2.0357 -0.3358 -1.6153
    8SAPS   HN3  935   4.676   0.290  11.323 -0.1430  2.8751 -2.0240
    8SAPS   C12  936   4.734   0.093  11.272  0.0116  0.0769  0.4925
    8SAPS  H12A  937   4.795   0.058  11.190 -1.4915 -0.3741 -0.4487
    8SAPS   C13  938   4.787   0.044  11.409 -0.1887 -0.7602 -0.6266
    8SAPS  O13A  939   4.856   0.121  11.478  0.3356 -0.0527 -0.4895
    8SAPS  O13B  940   4.797  -0.081  11.425 -0.1451 -0.0976  0.4368
    8SAPS   C11  941   4.592   0.033  11.254 -0.7080  0.7636  0.3421
    8SAPS  H11A  942   4.527   0.055  11.342 -0.7473  2.9410 -0.2063
    8SAPS  H11B  943   4.612  -0.076  11.248  1.4117  1.0493  1.6515
    8SAPS     P  944   4.423  -0.003  11.062 -0.0862 -0.0614  0.0345
    8SAPS   O13  945   4.407  -0.131  11.132 -0.2917 -0.2184  0.6127
    8SAPS   O14  946   4.301   0.079  11.043  0.2242 -0.5108  0.6347
    8SAPS   O12  947   4.529   0.083  11.137  0.0919 -0.1594  0.0746
    8SAPS   O11  948   4.487  -0.032  10.919  0.7533  0.9934 -0.7028
    8SAPS    C1  949   4.619   0.001  10.906 -0.0859  0.3432 -0.1284
    8SAPS    HA  950   4.629   0.112  10.899 -1.6786  0.5884  1.1034
    8SAPS    HB  951   4.682  -0.033  10.991 -2.6924 -0.6039  1.4968
    8SAPS    C2  952   4.701  -0.055  10.779  0.6748  0.0616  0.2852
    8SAPS    HS  953   4.786   0.016  10.773 -0.9951  2.0146 -1.0512
    8SAPS   O21  954   4.608  -0.061  10.668  0.5605 -0.2735 -0.0708
    8SAPS   C21  955   4.646  -0.000  10.561  0.5822 -0.0336  0.3911
    8SAPS   O22  956   4.733   0.086  10.561 -0.0835  0.0701  0.3163
    8SAPS   C22  957   4.558  -0.044  10.438  0.3999 -0.2676  0.1778
    8SAPS   H2R  958   4.500  -0.136  10.458  1.5696 -0.8989  0.6925
    8SAPS   H2S  959   4.496   0.045  10.414 -1.3721 -1.6526 -0.5056
    8SAPS    C3  960   4.755  -0.194  10.816 -0.5743  0.1112 -0.6216
    8SAPS    HX  961   4.672  -0.265  10.834  0.6281 -0.7956  1.5450
    8SAPS    HY  962   4.817  -0.193  10.908  1.4056 -0.2450 -1.9024
    8SAPS   O31  963   4.829  -0.244  10.702 -0.3894  0.2706 -0.1384
    8SAPS   C31  964   4.941  -0.310  10.723 -0.0488 -0.4639  0.1695
    8SAPS   O32  965   4.997  -0.337  10.829  0.6589 -0.5446 -0.0608
    8SAPS   C32  966   5.015  -0.345  10.592 -0.8568 -0.0606  0.6223
    8SAPS   H2X  967   5.059  -0.248  10.560 -0.3136 -0.1224  1.1643
    8SAPS   H2Y  968   4.932  -0.376  10.525 -0.8582  3.0184 -0.9003
    8SAPS   C23  969   4.642  -0.094  10.311 -0.0988 -0.4259  0.0983
    8SAPS   H3R  970   4.715  -0.014  10.289  0.3025 -1.7991 -4.0602
    8SAPS   H3S  971   4.571  -0.098  10.225  0.9814  2.2617 -0.9916
    8SAPS   C24  972   4.701  -0.225  10.348  0.4735  0.3450  0.2680
    8SAPS   H4R  973   4.619  -0.294  10.375  0.1694  0.4502 -0.3761
    8SAPS   H4S  974   4.771  -0.221  10.434  0.8879 -0.1976 -0.0385
    8SAPS   C25  975   4.774  -0.278  10.232 -0.2676 -0.0317 -0.6196
    8SAPS   H5R  976   4.871  -0.227  10.224  0.5992 -1.2770  1.4515
    8SAPS   C26  977   4.734  -0.362  10.138 -0.8093  0.5400  0.2020
    8SAPS   H6R  978   4.812  -0.395  10.069 -1.3419 -1.1943  0.4174
    8SAPS   C27  979   4.600  -0.425  10.125  0.8555 -0.1490 -0.0326
    8SAPS   H7R  980   4.552  -0.379  10.036 -0.8807 -1.3437  0.2471
    8SAPS   H7S  981   4.526  -0.412  10.207  0.7955  1.8783 -0.3919
    8SAPS   C28  982   4.602  -0.575  10.098 -0.0150  0.0399  0.0740
    8SAPS   H8R  983   4.575  -0.628  10.190  0.3195 -1.0945 -0.4749
    8SAPS   C29  984   4.627  -0.638   9.977 -0.4874 -0.0175  0.5282
    8SAPS   H9R  985   4.650  -0.745   9.980 -0.5662 -0.1134 -1.7028
    8SAPS  C210  986   4.652  -0.564   9.850 -0.9710 -0.0330  0.3546
    8SAPS  H10R  987   4.758  -0.574   9.818 -1.1624  0.4260 -0.4261
    8SAPS  H10S  988   4.641  -0.455   9.867 -0.0556  0.1266 -0.0651
    8SAPS  C211  989   4.570  -0.595   9.731  0.0906  0.5020 -0.0115
    8SAPS  H11R  990   4.472  -0.638   9.757  0.6956 -0.5684  0.5291
    8SAPS  C212  991   4.611  -0.578   9.601  0.5866 -0.5468  0.2119
    8SAPS  H12R  992   4.537  -0.605   9.525 -0.6992 -1.9953  1.9501
    8SAPS  C213  993   4.745  -0.519   9.563 -0.4135  0.1501 -0.0658
    8SAPS  H13R  994   4.826  -0.553   9.630 -0.4376 -2.5961 -1.3329
    8SAPS  H13S  995   4.743  -0.409   9.575 -0.7873  0.0940  0.4256
    8SAPS  C214  996   4.804  -0.547   9.424  0.4937 -0.5716 -0.6119
    8SAPS  H14R  997   4.768  -0.645   9.389 -0.3684  0.4009 -2.5438
    8SAPS  C215  998   4.871  -0.465   9.345 -0.0719  0.3688  0.0244
    8SAPS  H15R  999   4.892  -0.491   9.240  0.1602  1.3063 -0.1706
    8SAPS  C216 1000   4.910  -0.327   9.384 -0.6142 -0.6798  0.1456
    8SAPS  H16R 1001   5.003  -0.293   9.334 -0.6658 -1.7616 -0.7196
    8SAPS  H16S 1002   4.922  -0.317   9.494  3.3170 -0.9271 -0.1786
    8SAPS  C217 1003   4.807  -0.213   9.354  0.1575  0.0700 -0.7194
    8SAPS  H17R 1004   4.826  -0.126   9.420 -0.5503 -0.6510  0.4499
    8SAPS  H17S 1005   4.701  -0.238   9.379  0.1216  1.0686  0.2000
    8SAPS  C218 1006   4.801  -0.161   9.213  0.0534 -0.1268  0.4504
    8SAPS  H18R 1007   4.784  -0.251   9.150  1.2679  0.1268 -0.2454
    8SAPS  H18S 1008   4.899  -0.110   9.196 -1.0999  1.0359 -3.0116
    8SAPS  C219 1009   4.694  -0.053   9.208 -0.1101  0.0317 -0.0518
    8SAPS  H19R 1010   4.708   0.023   9.287 -2.3772 -1.1240  1.4977
    8SAPS  H19S 1011   4.601  -0.107   9.232 -0.0706  0.6314  1.4830
    8SAPS  C220 1012   4.653   0.009   9.066 -0.2275  0.1502  0.4479
    8SAPS  H20R 1013   4.732   0.083   9.039 -1.2039  0.3606 -1.9543
    8SAPS  H20S 1014   4.561   0.071   9.062  0.7402  1.6426  0.6016
    8SAPS  H20T 1015   4.658  -0.076   8.996  1.0381 -1.1769  2.1101
    8SAPS   C33 1016   5.116  -0.458  10.600 -1.0243 -0.3573  0.0461
    8SAPS   H3X 1017   5.095  -0.520  10.510  2.2678 -1.3962 -0.0730
    8SAPS   H3Y 1018   5.097  -0.530  10.683 -1.7733 -0.8358 -0.5407
    8SAPS   C34 1019   5.267  -0.419  10.612  0.0812  0.5671 -0.0296
    8SAPS   H4X 1020   5.319  -0.515  10.632 -2.4901 -0.6766  0.9907
    8SAPS   H4Y 1021   5.280  -0.352  10.700 -0.5693 -0.3543  0.7930
    8SAPS   C35 1022   5.330  -0.335  10.515 -0.0458  0.0971  0.1415
    8SAPS   H5X 1023   5.440  -0.333  10.532 -0.4672 -0.5517  3.3118
    8SAPS   H5Y 1024   5.284  -0.234  10.520 -0.3175  0.0508 -1.2008
    8SAPS   C36 1025   5.315  -0.389  10.366 -0.3014  0.4070  0.0962
    8SAPS   H6X 1026   5.212  -0.396  10.327  0.1378  1.1851 -1.2382
    8SAPS   H6Y 1027   5.362  -0.490  10.368 -1.5651 -0.2366 -1.7211
    8SAPS   C37 1028   5.396  -0.310  10.267  0.9416 -0.3484 -0.2092
    8SAPS   H7X 1029   5.401  -0.349  10.163 -0.7505 -0.8623 -0.1095
    8SAPS   H7Y 1030   5.501  -0.312  10.304  0.5886 -0.7178  0.7813
    8SAPS   C38 1031   5.349  -0.162  10.278 -0.6744  0.0119  0.4984
    8SAPS   H8X 1032   5.355  -0.123  10.382 -0.6000  2.7247 -0.5005
    8SAPS   H8Y 1033   5.241  -0.167  10.252 -1.0507  1.5904  1.7094
    8SAPS   C39 1034   5.400  -0.059  10.179 -0.2876 -0.3935  0.5530
    8SAPS   H9X 1035   5.510  -0.064  10.194  0.0829 -1.9311 -2.4129
    8SAPS   H9Y 1036   5.362   0.040  10.212  1.5136  0.6489 -0.4650
    8SAPS  C310 1037   5.367  -0.083  10.031  0.1390  0.3147  0.9431
    8SAPS  H10X 1038   5.257  -0.095  10.017  0.5169 -1.5698 -0.6596
    8SAPS  H10Y 1039   5.413  -0.181  10.003 -1.1879  0.3229 -1.3752
    8SAPS  C311 1040   5.410   0.030   9.939 -0.7266 -1.1246  1.0047
    8SAPS  H11X 1041   5.520   0.034   9.924 -1.1398  0.0019 -2.0240
    8SAPS  H11Y 1042   5.379   0.127   9.984  0.5272 -0.0115 -0.4599
    8SAPS  C312 1043   5.347   0.013   9.794  0.4836  0.5222 -0.2559
    8SAPS  H12X 1044   5.366   0.111   9.744 -1.9088  0.4545 -1.4114
    8SAPS  H12Y 1045   5.237   0.002   9.808  0.6309  0.7425  1.1278
    8SAPS  C313 1046   5.406  -0.102   9.707 -0.2581 -0.5861 -0.5083
    8SAPS  H13X 1047   5.388  -0.201   9.754  2.0019 -1.4761 -1.4721
    8SAPS  H13Y 1048   5.516  -0.089   9.713 -0.4294  0.4398  0.7017
    8SAPS  C314 1049   5.358  -0.104   9.564  0.2292  0.9321 -0.1256
    8SAPS  H14X 1050   5.374  -0.001   9.527  1.3406  1.2836  1.2631
    8SAPS  H14Y 1051   5.249  -0.126   9.564  0.8253 -2.2686 -0.4743
    8SAPS  C315 1052   5.434  -0.194   9.464 -0.6694  0.5062  0.1075
    8SAPS  H15X 1053   5.474  -0.290   9.503 -1.4872  0.0777 -0.0829
    8SAPS  H15Y 1054   5.522  -0.136   9.429 -0.5880  0.1074 -0.3506
    8SAPS  C316 1055   5.348  -0.233   9.350  0.4649 -0.1523  0.1241
    8SAPS  H16X 1056   5.312  -0.143   9.297  1.7619  0.4090  0.1840
    8SAPS  H16Y 1057   5.251  -0.279   9.381 -0.4322  1.4677 -0.2437
    8SAPS  C317 1058   5.421  -0.332   9.254 -0.5367  0.2639 -0.0575
    8SAPS  H17X 1059   5.359  -0.347   9.164  0.8582 -3.3178 -0.5423
    8SAPS  H17Y 1060   5.432  -0.437   9.289  1.7580  0.2039 -0.8438
    8SAPS  C318 1061   5.564  -0.286   9.214  0.4322 -0.1346  0.4249
    8SAPS  H18X 1062   5.624  -0.273   9.306 -0.0163  0.7169  0.6047
    8SAPS  H18Y 1063   5.579  -0.181   9.180 -0.9694 -0.0879 -0.0739
    8SAPS  H18Z 1064   5.615  -0.365   9.155 -0.8869 -1.2441  0.7391
    9SAPS     N 1065   6.654   2.563   6.268  0.1845  0.4154  1.0337
    9SAPS   HN1 1066   6.597   2.510   6.199 -1.1146  0.8874  1.7215
    9SAPS   HN2 1067   6.731   2.613   6.219  1.2196 -0.8996  1.3071
    9SAPS   HN3 1068   6.680   2.486   6.333 -2.0067 -1.5389 -0.3178
    9SAPS   C12 1069   6.559   2.662   6.337  0.4337  0.4590 -0.6070
    9SAPS  H12A 1070   6.551   2.749   6.273  1.7729  1.1668  0.1500
    9SAPS   C13 1071   6.408   2.625   6.347 -0.3262 -0.5004 -0.0129
    9SAPS  O13A 1072   6.375   2.508   6.319  0.0971 -0.3665 -0.1064
    9SAPS  O13B 1073   6.320   2.710   6.374  0.4230  0.5096  0.2483
    9SAPS   C11 1074   6.613   2.695   6.471  0.8266 -0.4886 -0.0079
    9SAPS  H11A 1075   6.617   2.607   6.538  1.7820  0.5809  1.3893
    9SAPS  H11B 1076   6.546   2.769   6.519 -0.9152 -0.7511 -1.9633
    9SAPS     P 1077   6.765   2.909   6.437  0.3631  0.1386  0.2849
    9SAPS   O13 1078   6.884   2.937   6.355 -0.5896  0.5850 -0.1873
    9SAPS   O14 1079   6.635   2.967   6.395 -0.7899  0.0136  0.0712
    9SAPS   O12 1080   6.749   2.752   6.461 -0.2258 -0.2087 -0.5623
    9SAPS   O11 1081   6.783   2.963   6.580 -0.0225  0.2303 -0.3091
    9SAPS    C1 1082   6.725   2.910   6.694  0.0885 -0.1031 -0.7266
    9SAPS    HA 1083   6.614   2.918   6.697  0.1049 -0.2890  1.8019
    9SAPS    HB 1084   6.748   2.802   6.701 -1.6368 -0.5070 -1.1144
    9SAPS    C2 1085   6.778   2.987   6.816 -0.0248  0.6326  0.0085
    9SAPS    HS 1086   6.747   3.093   6.811 -0.7389  0.4682  0.8394
    9SAPS   O21 1087   6.917   2.967   6.828 -0.2679  0.4498  0.0123
    9SAPS   C21 1088   6.990   3.055   6.767 -0.2590  0.5612 -0.8440
    9SAPS   O22 1089   6.958   3.162   6.715  0.0813 -0.1274  0.4646
    9SAPS   C22 1090   7.128   2.998   6.777  0.3142  0.6201  0.2162
    9SAPS   H2R 1091   7.124   2.891   6.805  0.2251  0.1566 -1.4891
    9SAPS   H2S 1092   7.174   2.994   6.676  0.0310  0.8551  0.0770
    9SAPS    C3 1093   6.708   2.934   6.942 -0.1187  0.4104 -0.0867
    9SAPS    HX 1094   6.690   2.825   6.934 -2.7538  1.0043 -2.9439
    9SAPS    HY 1095   6.603   2.970   6.947  0.5817  2.5668 -0.1984
    9SAPS   O31 1096   6.771   2.966   7.066 -0.6253  0.3226  0.1194
    9SAPS   C31 1097   6.806   3.083   7.097  0.7500  0.0483 -0.2838
    9SAPS   O32 1098   6.780   3.181   7.038  0.2666 -0.1137  0.0730
    9SAPS   C32 1099   6.896   3.075   7.227  0.3333  0.2956  0.3189
    9SAPS   H2X 1100   6.983   3.014   7.195 -1.0171 -0.6311 -1.6461
    9SAPS   H2Y 1101   6.829   3.041   7.308 -1.7092 -0.2261 -1.5650
    9SAPS   C23 1102   7.223   3.068   6.882 -1.1172 -0.1998 -0.7186
    9SAPS   H3R 1103   7.179   3.051   6.983  1.1963 -0.7574  0.2200
    9SAPS   H3S 1104   7.222   3.175   6.851 -0.9427 -0.1556 -0.5705
    9SAPS   C24 1105   7.372   3.026   6.878  0.5271 -0.7954  0.6094
    9SAPS   H4R 1106   7.433   3.087   6.947 -0.2783  0.4030  0.2835
    9SAPS   H4S 1107   7.408   3.038   6.774  0.3237  2.1493  0.8404
    9SAPS   C25 1108   7.395   2.883   6.921  0.5072 -0.0576 -0.5327
    9SAPS   H5R 1109   7.353   2.799   6.862 -0.0383  0.2515 -0.5895
    9SAPS   C26 1110   7.462   2.848   7.032  0.0821  0.1205 -0.3301
    9SAPS   H6R 1111   7.497   2.745   7.045  2.2787  1.0587  1.5610
    9SAPS   C27 1112   7.525   2.930   7.143  0.2850  0.6926 -0.1189
    9SAPS   H7R 1113   7.501   2.878   7.238 -1.3390 -1.5779 -1.7191
    9SAPS   H7S 1114   7.473   3.028   7.155  1.3429  1.0269  1.9818
    9SAPS   C28 1115   7.672   2.944   7.136  0.5300  0.5659  0.4637
    9SAPS   H8R 1116   7.709   2.969   7.036  3.3211 -1.4663  0.9375
    9SAPS   C29 1117   7.767   2.918   7.232 -0.4546 -0.4322  0.2605
    9SAPS   H9R 1118   7.875   2.928   7.215 -0.2284 -3.2731 -0.2520
    9SAPS  C210 1119   7.732   2.872   7.372 -0.3226 -0.7600  0.0391
    9SAPS  H10R 1120   7.628   2.836   7.384 -0.8510  1.3578  2.2651
    9SAPS  H10S 1121   7.736   2.957   7.444 -0.8423 -0.2192 -0.5619
    9SAPS  C211 1122   7.821   2.755   7.411 -0.6193  0.1317  0.8439
    9SAPS  H11R 1123   7.873   2.701   7.331 -0.3810 -1.5780  2.1303
    9SAPS  C212 1124   7.848   2.717   7.536 -0.2390 -0.2790  0.5804
    9SAPS  H12R 1125   7.909   2.629   7.560 -2.5337 -1.4074  2.3590
    9SAPS  C213 1126   7.788   2.784   7.654  0.0167 -0.0875  0.2206
    9SAPS  H13R 1127   7.781   2.702   7.729 -0.3165 -1.8287 -1.6660
    9SAPS  H13S 1128   7.681   2.809   7.636 -0.6382 -2.6454  0.3905
    9SAPS  C214 1129   7.876   2.894   7.699  0.1145 -0.4247 -0.1362
    9SAPS  H14R 1130   7.906   2.962   7.618  0.4990 -0.1674  0.2211
    9SAPS  C215 1131   7.931   2.913   7.826 -0.3667 -0.1994 -0.0733
    9SAPS  H15R 1132   7.990   3.004   7.842  2.1331 -1.6254 -0.7058
    9SAPS  C216 1133   7.918   2.816   7.942  0.0197  0.0094 -0.5698
    9SAPS  H16R 1134   8.001   2.792   8.011 -0.8558 -1.5183 -0.0222
    9SAPS  H16S 1135   7.889   2.716   7.901 -2.0347 -0.2131  1.3595
    9SAPS  C217 1136   7.807   2.862   8.036 -0.5526  0.5735 -0.1354
    9SAPS  H17R 1137   7.717   2.884   7.975  0.4729 -0.1868 -1.9744
    9SAPS  H17S 1138   7.829   2.953   8.096  1.8015 -0.3087  0.4290
    9SAPS  C218 1139   7.775   2.754   8.143  0.1803 -0.2869 -0.3216
    9SAPS  H18R 1140   7.836   2.761   8.236 -1.6723  0.2583  0.8864
    9SAPS  H18S 1141   7.786   2.655   8.095 -0.5704 -0.6615  0.2713
    9SAPS  C219 1142   7.627   2.749   8.168 -0.3998 -1.0451 -0.1926
    9SAPS  H19R 1143   7.584   2.697   8.080 -0.7295 -0.2485 -0.5124
    9SAPS  H19S 1144   7.576   2.848   8.173 -0.3282 -0.9188 -1.7733
    9SAPS  C220 1145   7.588   2.674   8.294  0.3566  0.0064  0.6912
    9SAPS  H20R 1146   7.480   2.687   8.314  0.7484  2.3994  1.4632
    9SAPS  H20S 1147   7.647   2.710   8.382  1.1959  0.4366 -0.0427
    9SAPS  H20T 1148   7.625   2.570   8.280  0.4067  0.2421 -0.9987
    9SAPS   C33 1149   6.973   3.203   7.264  0.2651  0.0715 -0.1968
    9SAPS   H3X 1150   6.898   3.284   7.274 -0.0699 -0.4422  1.4607
    9SAPS   H3Y 1151   7.033   3.239   7.177  0.1824  1.2071  0.2047
    9SAPS   C34 1152   7.059   3.197   7.384 -0.7550  0.4038 -0.0693
    9SAPS   H4X 1153   7.129   3.110   7.383 -0.8832  0.2923 -2.2425
    9SAPS   H4Y 1154   7.005   3.178   7.479  0.6246 -0.1097  0.6308
    9SAPS   C35 1155   7.135   3.332   7.414  1.2462  0.3721  0.1977
    9SAPS   H5X 1156   7.067   3.417   7.391 -0.1471 -0.1513  2.3508
    9SAPS   H5Y 1157   7.217   3.348   7.340 -1.0754 -1.0025 -2.7840
    9SAPS   C36 1158   7.186   3.345   7.559  0.2304  0.5114  0.0114
    9SAPS   H6X 1159   7.230   3.250   7.599 -2.1383 -1.6503 -2.3439
    9SAPS   H6Y 1160   7.093   3.364   7.617 -1.5421  0.0481 -2.6028
    9SAPS   C37 1161   7.282   3.463   7.562  0.5709 -0.0789 -0.1451
    9SAPS   H7X 1162   7.224   3.557   7.549  0.4288 -0.3157 -1.2262
    9SAPS   H7Y 1163   7.361   3.466   7.484 -0.4584  0.7140 -1.1738
    9SAPS   C38 1164   7.359   3.481   7.694  0.4716  1.4584 -0.3174
    9SAPS   H8X 1165   7.425   3.393   7.711 -2.7966 -0.4074  3.5230
    9SAPS   H8Y 1166   7.284   3.488   7.775 -0.1349 -0.5632 -0.6834
    9SAPS   C39 1167   7.437   3.615   7.691  0.3230 -0.3957 -0.1579
    9SAPS   H9X 1168   7.354   3.689   7.688 -1.4102 -2.3132 -0.6603
    9SAPS   H9Y 1169   7.494   3.626   7.596 -0.1623 -2.4479 -0.7031
    9SAPS  C310 1170   7.529   3.647   7.807  0.2905  0.3184 -0.1387
    9SAPS  H10X 1171   7.617   3.708   7.779 -0.3351  0.5085 -1.7206
    9SAPS  H10Y 1172   7.563   3.547   7.842 -1.6876  0.4467  2.3197
    9SAPS  C311 1173   7.459   3.706   7.929 -1.1053  0.2374 -0.1480
    9SAPS  H11X 1174   7.366   3.652   7.958 -1.8416  1.4251 -0.2715
    9SAPS  H11Y 1175   7.420   3.806   7.901 -2.6425  0.0653  1.3120
    9SAPS  C312 1176   7.562   3.723   8.041 -0.7889  0.0472  0.6351
    9SAPS  H12X 1177   7.643   3.796   8.019 -0.3831 -0.9093 -1.0741
    9SAPS  H12Y 1178   7.610   3.625   8.061 -0.2120  0.6595  2.3755
    9SAPS  C313 1179   7.503   3.754   8.176 -0.2361 -0.0243  0.5518
    9SAPS  H13X 1180   7.449   3.663   8.207 -0.9419 -0.0686 -0.7887
    9SAPS  H13Y 1181   7.417   3.823   8.161 -0.3485 -0.0913  0.8703
    9SAPS  C314 1182   7.591   3.830   8.275 -0.4912 -0.3716 -0.2609
    9SAPS  H14X 1183   7.524   3.888   8.342 -0.5373 -0.2751 -0.3900
    9SAPS  H14Y 1184   7.641   3.909   8.214  0.7686 -0.2943  0.8481
    9SAPS  C315 1185   7.683   3.739   8.352  0.4268  0.1884  0.4977
    9SAPS  H15X 1186   7.712   3.800   8.440 -0.1611 -2.3046  2.4836
    9SAPS  H15Y 1187   7.764   3.705   8.284  0.4784 -2.5064  1.8289
    9SAPS  C316 1188   7.608   3.624   8.413  0.4701  0.0514 -0.1089
    9SAPS  H16X 1189   7.583   3.545   8.339  2.6397 -1.1828  0.4405
    9SAPS  H16Y 1190   7.511   3.675   8.433  0.6377  0.0573  0.6750
    9SAPS  C317 1191   7.650   3.564   8.544 -0.4738  0.9390 -0.4564
    9SAPS  H17X 1192   7.679   3.641   8.619  2.1589 -1.5203  1.1704
    9SAPS  H17Y 1193   7.748   3.513   8.530 -0.6373  0.3537  0.5264
    9SAPS  C318 1194   7.547   3.456   8.595  0.2988 -0.1224 -0.0476
    9SAPS  H18X 1195   7.480   3.517   8.659 -1.7197 -1.9916 -0.3326
    9SAPS  H18Y 1196   7.591   3.375   8.659  3.6707  2.2283  0.7548
    9SAPS  H18Z 1197   7.502   3.414   8.503  2.8986  0.4692 -1.6222
   10SAPS     N 1198   1.121   1.865   6.274 -0.3036  0.3152  0.5543
   10SAPS   HN1 1199   1.176   1.949   6.300  2.0109 -1.2758  0.9674
   10SAPS   HN2 1200   1.042   1.854   6.341  0.4625  4.0728  2.1884
   10SAPS   HN3 1201   1.184   1.783   6.278  1.7731  1.8239 -0.3085
   10SAPS   C12 1202   1.080   1.872   6.126  0.8558 -0.5861  0.1319
   10SAPS  H12A 1203   1.159   1.918   6.067 -0.7373  1.2920 -0.6150
   10SAPS   C13 1204   1.048   1.737   6.063 -0.7446  0.6270 -0.1490
   10SAPS  O13A 1205   1.039   1.629   6.122  0.3597 -0.9759 -0.1524
   10SAPS  O13B 1206   1.012   1.735   5.944 -0.2629 -0.5427  0.0461
   10SAPS   C11 1207   0.951   1.953   6.113  0.6811 -0.3832  0.3917
   10SAPS  H11A 1208   0.869   1.892   6.156 -2.1586  2.0759 -1.3850
   10SAPS  H11B 1209   0.925   1.957   6.005  1.0641  2.5175  0.3629
   10SAPS     P 1210   0.828   2.150   6.234 -0.2684  0.0025 -0.0006
   10SAPS   O13 1211   0.763   2.222   6.120  0.2126 -0.3887  0.3806
   10SAPS   O14 1212   0.753   2.050   6.312  0.5507  0.0428  0.8650
   10SAPS   O12 1213   0.960   2.083   6.178 -0.4107  0.2976 -0.4851
   10SAPS   O11 1214   0.883   2.259   6.330  0.4496  0.4890  0.0972
   10SAPS    C1 1215   1.016   2.254   6.374 -0.1111 -0.5546 -0.2852
   10SAPS    HA 1216   1.066   2.159   6.348  0.2571 -0.4662  0.0957
   10SAPS    HB 1217   1.072   2.346   6.346  0.3736 -0.9061 -0.4644
   10SAPS    C2 1218   1.025   2.254   6.532  0.1864  0.0586  0.5108
   10SAPS    HS 1219   1.126   2.229   6.567  0.8240  1.2659 -0.3963
   10SAPS   O21 1220   0.924   2.166   6.576 -0.0272  0.2719  0.3371
   10SAPS   C21 1221   0.956   2.036   6.559  0.4610  0.5389 -0.2017
   10SAPS   O22 1222   1.060   1.986   6.525 -0.0279  0.0677 -0.2816
   10SAPS   C22 1223   0.848   1.951   6.624  0.2611 -0.2518 -0.5902
   10SAPS   H2R 1224   0.779   2.020   6.677  1.0545  1.4479 -1.6953
   10SAPS   H2S 1225   0.786   1.896   6.550 -1.1360 -1.6534  1.5886
   10SAPS    C3 1226   0.987   2.394   6.582 -0.3975  0.2650 -0.0518
   10SAPS    HX 1227   0.885   2.416   6.544 -0.4254 -0.1599 -0.2203
   10SAPS    HY 1228   1.056   2.474   6.547  0.4060 -0.4520 -0.1252
   10SAPS   O31 1229   0.988   2.398   6.723  0.0033  0.2740  0.1390
   10SAPS   C31 1230   0.875   2.401   6.793  0.5574  0.5771 -0.3494
   10SAPS   O32 1231   0.768   2.394   6.743 -0.4264  0.8691  0.1642
   10SAPS   C32 1232   0.899   2.400   6.940 -0.6222  0.6072  0.6189
   10SAPS   H2X 1233   1.006   2.396   6.970 -0.3603 -0.0076 -0.3880
   10SAPS   H2Y 1234   0.858   2.307   6.985  0.0899  0.1886  0.4046
   10SAPS   C23 1235   0.902   1.858   6.738  0.4991  0.0110 -0.6307
   10SAPS   H3R 1236   0.943   1.922   6.819 -1.3281  1.3341 -0.7090
   10SAPS   H3S 1237   0.987   1.802   6.693 -0.1157  0.4513 -2.3721
   10SAPS   C24 1238   0.804   1.757   6.805  0.3683 -0.1260  0.2023
   10SAPS   H4R 1239   0.864   1.686   6.865 -0.1938 -1.3163 -0.6242
   10SAPS   H4S 1240   0.766   1.700   6.717 -1.3257  0.6673  0.3915
   10SAPS   C25 1241   0.676   1.802   6.872 -0.1515 -0.1158  0.3567
   10SAPS   H5R 1242   0.601   1.801   6.792 -0.1159 -2.2072  0.3237
   10SAPS   C26 1243   0.651   1.829   7.001  0.0572  0.0890  0.1872
   10SAPS   H6R 1244   0.544   1.833   7.026  0.4243  0.7586  1.6663
   10SAPS   C27 1245   0.750   1.826   7.113  0.0559 -0.1655  0.0503
   10SAPS   H7R 1246   0.845   1.777   7.085  0.5790  0.7712  0.1491
   10SAPS   H7S 1247   0.703   1.769   7.196  0.7588 -0.7969  0.0210
   10SAPS   C28 1248   0.763   1.966   7.155  0.0040 -0.9082 -0.0803
   10SAPS   H8R 1249   0.700   2.047   7.116  1.1011 -0.4182 -0.8628
   10SAPS   C29 1250   0.831   2.003   7.267  0.2219 -0.0422 -0.1161
   10SAPS   H9R 1251   0.848   2.107   7.301  1.5941 -0.3777  0.2601
   10SAPS  C210 1252   0.918   1.915   7.358  0.2837  0.3938  0.4893
   10SAPS  H10R 1253   1.021   1.953   7.373 -0.0106  0.5904  2.1048
   10SAPS  H10S 1254   0.936   1.819   7.304 -0.1473  0.6057 -0.0375
   10SAPS  C211 1255   0.863   1.895   7.494  0.1700  1.1617  0.1310
   10SAPS  H11R 1256   0.764   1.846   7.495  0.5535  0.3396 -0.9517
   10SAPS  C212 1257   0.910   1.944   7.610 -0.1997  0.5386 -0.5254
   10SAPS  H12R 1258   0.843   1.929   7.696  0.0249  0.3577 -0.3827
   10SAPS  C213 1259   1.030   2.036   7.637  0.1448 -0.4464  0.2704
   10SAPS  H13R 1260   1.032   2.080   7.739 -1.0061  0.7803 -0.2297
   10SAPS  H13S 1261   1.024   2.123   7.568 -0.6474  0.4679  1.4713
   10SAPS  C214 1262   1.171   1.998   7.612 -0.5093  0.1499 -0.3269
   10SAPS  H14R 1263   1.210   2.001   7.509 -2.3741 -1.3870 -1.1093
   10SAPS  C215 1264   1.258   1.975   7.715 -0.1532 -0.4137 -1.0021
   10SAPS  H15R 1265   1.357   1.934   7.691  0.5078  0.6274 -0.0986
   10SAPS  C216 1266   1.222   1.988   7.868  0.8417 -0.0458 -0.1562
   10SAPS  H16R 1267   1.283   1.912   7.921  2.0891  1.2416  0.3034
   10SAPS  H16S 1268   1.117   1.960   7.892  0.0539  2.2192 -0.7890
   10SAPS  C217 1269   1.254   2.132   7.924  0.1451 -0.1084  0.1459
   10SAPS  H17R 1270   1.180   2.206   7.888  0.2912  0.3284  0.7254
   10SAPS  H17S 1271   1.359   2.163   7.906  0.1998 -0.3183  0.0999
   10SAPS  C218 1272   1.239   2.112   8.075  0.1975  0.2854 -0.1720
   10SAPS  H18R 1273   1.148   2.052   8.100  0.7624  0.2222  1.8177
   10SAPS  H18S 1274   1.229   2.207   8.132  2.2429  0.7276 -0.5342
   10SAPS  C219 1275   1.360   2.024   8.143  0.5832  0.9205  0.2952
   10SAPS  H19R 1276   1.437   2.094   8.180  1.5067 -0.0167  0.1671
   10SAPS  H19S 1277   1.416   1.965   8.067 -1.1163 -0.1469 -0.1668
   10SAPS  C220 1278   1.320   1.935   8.267 -0.2518  0.3512  0.0311
   10SAPS  H20R 1279   1.409   1.877   8.298 -1.6251 -0.5330  2.5261
   10SAPS  H20S 1280   1.234   1.868   8.242  0.5681  0.3497 -3.0032
   10SAPS  H20T 1281   1.297   2.003   8.352  0.1701 -0.7236  1.0108
   10SAPS   C33 1282   0.843   2.533   6.992 -0.0650  0.1486 -0.3853
   10SAPS   H3X 1283   0.733   2.534   6.972  0.0609 -0.8360 -1.1489
   10SAPS   H3Y 1284   0.889   2.622   6.944 -2.2174  0.4752 -1.9168
   10SAPS   C34 1285   0.858   2.555   7.145 -0.2095 -0.7000  0.0095
   10SAPS   H4X 1286   0.789   2.636   7.178  2.0969  1.6611 -0.7337
   10SAPS   H4Y 1287   0.960   2.594   7.169 -1.0739  1.1975  0.6647
   10SAPS   C35 1288   0.831   2.427   7.229  0.3767  0.9167 -0.6145
   10SAPS   H5X 1289   0.933   2.384   7.242 -0.4717 -1.8290 -2.7180
   10SAPS   H5Y 1290   0.767   2.357   7.172  0.3040  1.6618 -1.4555
   10SAPS   C36 1291   0.768   2.466   7.363 -0.1725  0.1927  0.1011
   10SAPS   H6X 1292   0.658   2.468   7.345 -0.2021 -0.1289  0.2389
   10SAPS   H6Y 1293   0.792   2.569   7.395 -2.7414  0.8669 -0.0076
   10SAPS   C37 1294   0.795   2.372   7.479 -0.4887  0.4603  0.0775
   10SAPS   H7X 1295   0.904   2.353   7.483 -0.3611  0.8442 -1.3094
   10SAPS   H7Y 1296   0.756   2.271   7.455  0.1942  0.5415 -1.4170
   10SAPS   C38 1297   0.728   2.413   7.602  0.7134  0.2792  0.2706
   10SAPS   H8X 1298   0.617   2.418   7.589  0.8441  0.3077 -0.8673
   10SAPS   H8Y 1299   0.760   2.519   7.616  0.5380  0.5222 -1.0984
   10SAPS   C39 1300   0.778   2.336   7.730 -0.0819 -0.0416  0.4714
   10SAPS   H9X 1301   0.888   2.335   7.723 -0.1483  0.7703 -0.7829
   10SAPS   H9Y 1302   0.735   2.233   7.737 -0.0710 -0.1092 -0.3558
   10SAPS  C310 1303   0.736   2.402   7.863  0.2547  0.0170 -0.7053
   10SAPS  H10X 1304   0.629   2.431   7.867  0.2775 -0.0447  0.4898
   10SAPS  H10Y 1305   0.796   2.493   7.882  1.5241 -0.5781 -1.8168
   10SAPS  C311 1306   0.750   2.294   7.975  0.1663 -0.1095 -0.0938
   10SAPS  H11X 1307   0.703   2.198   7.942 -1.1087 -0.2318  2.0014
   10SAPS  H11Y 1308   0.688   2.326   8.062 -0.4689 -0.1645 -0.5187
   10SAPS  C312 1309   0.894   2.269   8.010  0.0692 -0.2408  1.1497
   10SAPS  H12X 1310   0.938   2.369   8.032 -0.6947  0.8230 -1.9130
   10SAPS  H12Y 1311   0.952   2.225   7.926 -1.1460 -0.5002  0.4490
   10SAPS  C313 1312   0.917   2.186   8.136 -0.0182 -0.7915  0.3290
   10SAPS  H13X 1313   1.012   2.221   8.182 -0.5936  0.1964  0.7560
   10SAPS  H13Y 1314   0.941   2.085   8.095  1.1387 -0.7708  0.9169
   10SAPS  C314 1315   0.804   2.181   8.226 -0.2785  0.3848 -0.5508
   10SAPS  H14X 1316   0.708   2.149   8.180 -0.5743 -0.7674  0.8361
   10SAPS  H14Y 1317   0.802   2.282   8.271 -1.2953 -0.6734  1.8531
   10SAPS  C315 1318   0.829   2.087   8.345 -0.5245  0.2796  0.0165
   10SAPS  H15X 1319   0.932   2.099   8.386 -0.2375  0.4925 -0.7646
   10SAPS  H15Y 1320   0.834   1.982   8.308 -0.9958  0.4193 -0.4388
   10SAPS  C316 1321   0.712   2.084   8.448 -0.0276  0.4536 -0.2567
   10SAPS  H16X 1322   0.616   2.056   8.400 -1.2270  3.7203  0.0956
   10SAPS  H16Y 1323   0.704   2.184   8.495  0.4813  0.4799 -0.2200
   10SAPS  C317 1324   0.718   1.988   8.571 -0.0119  0.2078 -0.0499
   10SAPS  H17X 1325   0.818   2.018   8.610  0.0887  3.6805 -2.6958
   10SAPS  H17Y 1326   0.721   1.886   8.528 -1.3110  0.4823 -0.8184
   10SAPS  C318 1327   0.612   2.001   8.678 -0.1427 -0.9462 -0.0600
   10SAPS  H18X 1328   0.624   1.926   8.759 -1.1891 -2.8372 -1.6289
   10SAPS  H18Y 1329   0.509   1.998   8.638  0.8047  2.2185 -2.9265
   10SAPS  H18Z 1330   0.624   2.103   8.721 -1.9062 -0.2935 -1.0662
   11SAPS     N 1331   2.970   4.947   5.716 -1.0291 -0.0669  0.3330
   11SAPS   HN1 1332   3.025   4.901   5.641  0.2481  2.3180 -0.2576
   11SAPS   HN2 1333   2.885   4.990   5.674  0.0814  0.1809 -1.7182
   11SAPS   HN3 1334   3.017   5.023   5.770 -2.1715  0.9800 -0.1207
   11SAPS   C12 1335   2.928   4.843   5.810 -0.0686  0.0553 -0.3399
   11SAPS  H12A 1336   2.851   4.778   5.771  1.6098 -1.7273 -0.7617
   11SAPS   C13 1337   3.041   4.749   5.857  0.0114  1.3002  0.0056
   11SAPS  O13A 1338   3.161   4.761   5.815 -0.3680 -0.3193  0.8251
   11SAPS  O13B 1339   3.015   4.667   5.947 -0.0146 -0.0630 -0.1731
   11SAPS   C11 1340   2.869   4.919   5.942  0.7594 -0.1259  0.3850
   11SAPS  H11A 1341   2.961   4.948   5.996 -0.4260 -1.6643  3.3389
   11SAPS  H11B 1342   2.819   4.846   6.009  0.5023  1.1093  1.5634
   11SAPS     P 1343   2.630   5.001   5.861 -0.1158 -0.0219 -0.4885
   11SAPS   O13 1344   2.543   5.121   5.869 -0.2589 -0.5349 -0.8358
   11SAPS   O14 1345   2.628   4.932   5.732 -0.1413 -0.3278 -0.0428
   11SAPS   O12 1346   2.778   5.026   5.905  0.2270 -0.0226 -0.0586
   11SAPS   O11 1347   2.586   4.907   5.981  0.4442  0.7983 -0.2682
   11SAPS    C1 1348   2.546   4.961   6.110 -0.1461  1.1448  0.4087
   11SAPS    HA 1349   2.619   5.039   6.142  0.0164  0.7029  1.1061
   11SAPS    HB 1350   2.454   5.023   6.105  0.5467  2.3731  2.4052
   11SAPS    C2 1351   2.516   4.851   6.218 -0.4356 -0.1947  0.1828
   11SAPS    HS 1352   2.446   4.774   6.182  1.3383 -2.3382  1.1837
   11SAPS   O21 1353   2.455   4.923   6.332 -0.1931  0.4161  0.4633
   11SAPS   C21 1354   2.416   4.854   6.433  1.1663 -0.1832 -0.6455
   11SAPS   O22 1355   2.419   4.731   6.445  0.5100  0.5292 -0.4287
   11SAPS   C22 1356   2.366   4.936   6.546 -0.2397 -0.1291 -0.7365
   11SAPS   H2R 1357   2.451   4.991   6.593 -0.3654  0.1871 -0.8834
   11SAPS   H2S 1358   2.297   5.012   6.505 -1.4637 -0.3684  0.8414
   11SAPS    C3 1359   2.658   4.789   6.265 -0.0611  1.2284  0.7357
   11SAPS    HX 1360   2.696   4.724   6.183 -1.9282 -1.4568  1.9200
   11SAPS    HY 1361   2.638   4.723   6.352 -0.8667  2.5230  1.5468
   11SAPS   O31 1362   2.750   4.899   6.292 -1.0248  0.2680  0.5010
   11SAPS   C31 1363   2.830   4.871   6.396 -0.7729 -0.5850  0.2278
   11SAPS   O32 1364   2.840   4.762   6.447  0.8437  0.7220 -0.0401
   11SAPS   C32 1365   2.930   4.979   6.420 -0.1874 -0.0964 -0.1305
   11SAPS   H2X 1366   2.991   4.995   6.329 -1.3780 -1.2572 -1.1427
   11SAPS   H2Y 1367   2.996   4.939   6.499  0.4060 -1.5790 -1.3674
   11SAPS   C23 1368   2.285   4.862   6.660  0.4358 -0.9607  1.0241
   11SAPS   H3R 1369   2.338   4.771   6.697  1.2817 -1.0061 -0.2575
   11SAPS   H3S 1370   2.191   4.824   6.614 -1.5502  3.1842  1.4739
   11SAPS   C24 1371   2.231   4.971   6.750 -0.0023  0.2472  0.0870
   11SAPS   H4R 1372   2.152   4.928   6.814  2.1211 -0.7093  2.1395
   11SAPS   H4S 1373   2.180   5.052   6.693 -1.0864 -0.5912 -0.1587
   11SAPS   C25 1374   2.341   5.021   6.843  0.4410 -0.2240  0.5979
   11SAPS   H5R 1375   2.392   4.946   6.905 -0.1782  1.6660  3.4862
   11SAPS   C26 1376   2.379   5.146   6.860 -0.1446  0.2113  0.8656
   11SAPS   H6R 1377   2.459   5.165   6.933  1.3802 -0.9656 -0.4490
   11SAPS   C27 1378   2.321   5.274   6.795 -0.2356 -0.1896  0.5069
   11SAPS   H7R 1379   2.321   5.356   6.870 -2.0076  2.6754 -2.4630
   11SAPS   H7S 1380   2.223   5.270   6.744  0.0403 -2.4048  0.1278
   11SAPS   C28 1381   2.411   5.322   6.682  0.3070  0.4350  0.0337
   11SAPS   H8R 1382   2.377   5.294   6.581  0.6259 -0.8053  0.2557
   11SAPS   C29 1383   2.523   5.396   6.692  0.5975 -0.2840  0.0253
   11SAPS   H9R 1384   2.572   5.436   6.602  2.2206  0.8404  1.3586
   11SAPS  C210 1385   2.584   5.451   6.819 -0.5330 -0.0769 -0.0007
   11SAPS  H10R 1386   2.694   5.441   6.805 -0.8682 -1.9651 -1.5234
   11SAPS  H10S 1387   2.553   5.396   6.910  0.4900  0.9226  0.9784
   11SAPS  C211 1388   2.543   5.594   6.841  0.0910  0.4469  0.6640
   11SAPS  H11R 1389   2.534   5.658   6.752 -0.5966 -0.9544 -0.2902
   11SAPS  C212 1390   2.516   5.652   6.961 -0.1708  0.1799 -0.5458
   11SAPS  H12R 1391   2.483   5.757   6.969 -1.0630  0.1357 -3.1663
   11SAPS  C213 1392   2.532   5.590   7.099  0.0359  0.0901 -0.6175
   11SAPS  H13R 1393   2.564   5.671   7.168  0.4606  0.6736 -1.4969
   11SAPS  H13S 1394   2.603   5.504   7.105 -1.3583 -0.9510  1.2893
   11SAPS  C214 1395   2.401   5.542   7.156 -0.4736  0.6421 -0.2128
   11SAPS  H14R 1396   2.315   5.609   7.139 -0.0372  1.4376  0.6689
   11SAPS  C215 1397   2.374   5.434   7.233  0.9190 -0.6563  0.0940
   11SAPS  H15R 1398   2.271   5.430   7.270  1.7728 -1.0830  2.5049
   11SAPS  C216 1399   2.483   5.337   7.278 -0.0773  0.7232 -0.0489
   11SAPS  H16R 1400   2.568   5.390   7.325  1.0079 -2.0206  1.1657
   11SAPS  H16S 1401   2.519   5.276   7.192  1.1355  1.5279 -0.1174
   11SAPS  C217 1402   2.423   5.241   7.389 -0.4674 -0.3526  0.2126
   11SAPS  H17R 1403   2.504   5.172   7.420 -0.4655 -0.4728 -0.0669
   11SAPS  H17S 1404   2.337   5.184   7.346 -0.5178 -1.3010  1.5187
   11SAPS  C218 1405   2.386   5.315   7.517  0.2995  0.4090 -0.5793
   11SAPS  H18R 1406   2.311   5.397   7.519 -0.3929 -0.2278  2.6981
   11SAPS  H18S 1407   2.489   5.346   7.544  0.0418 -0.0766  0.9926
   11SAPS  C219 1408   2.350   5.216   7.635 -0.5127 -0.5508  0.0986
   11SAPS  H19R 1409   2.427   5.139   7.654 -0.7661 -0.2909  2.3654
   11SAPS  H19S 1410   2.260   5.160   7.602  0.6802 -1.7825 -1.1192
   11SAPS  C220 1411   2.322   5.280   7.771  0.2220 -0.2017 -0.1129
   11SAPS  H20R 1412   2.418   5.321   7.811 -0.7775  0.1752  1.9814
   11SAPS  H20S 1413   2.294   5.209   7.851 -0.1807 -0.4370 -0.4625
   11SAPS  H20T 1414   2.244   5.359   7.759  1.3456  0.4808 -3.5819
   11SAPS   C33 1415   2.852   5.118   6.456 -0.9132 -0.3948 -0.3771
   11SAPS   H3X 1416   2.785   5.133   6.369 -0.0430  0.8580 -0.8363
   11SAPS   H3Y 1417   2.931   5.196   6.446  1.0874 -2.3471 -0.3377
   11SAPS   C34 1418   2.782   5.110   6.591  0.0672 -0.0304 -0.1623
   11SAPS   H4X 1419   2.703   5.033   6.579 -0.0751  0.4429 -2.4170
   11SAPS   H4Y 1420   2.743   5.212   6.613  0.3603 -0.3532  1.9766
   11SAPS   C35 1421   2.862   5.067   6.706  0.3445  0.1986 -0.9244
   11SAPS   H5X 1422   2.947   5.139   6.702  2.2661 -2.0237 -0.8953
   11SAPS   H5Y 1423   2.902   4.964   6.696 -1.0535 -0.8260  3.0998
   11SAPS   C36 1424   2.788   5.102   6.843  0.1314  0.3136  0.1513
   11SAPS   H6X 1425   2.686   5.059   6.835  1.3460 -2.7637  0.2109
   11SAPS   H6Y 1426   2.776   5.212   6.841 -0.6736  0.1915 -2.3957
   11SAPS   C37 1427   2.861   5.065   6.972 -0.3643 -0.5707  0.4846
   11SAPS   H7X 1428   2.954   5.125   6.977  0.0617 -1.0442 -1.3471
   11SAPS   H7Y 1429   2.893   4.959   6.962  0.4809 -0.4585  1.9665
   11SAPS   C38 1430   2.768   5.067   7.098 -0.1493 -0.4276  1.1854
   11SAPS   H8X 1431   2.678   5.007   7.073  0.8892 -1.2083 -0.7965
   11SAPS   H8Y 1432   2.738   5.171   7.123  2.6445  0.5629  0.5415
   11SAPS   C39 1433   2.829   4.993   7.219  0.2874  0.1556 -0.6916
   11SAPS   H9X 1434   2.917   5.048   7.258  0.2653  0.4801 -1.1010
   11SAPS   H9Y 1435   2.861   4.887   7.207 -0.1051 -0.1476  0.7487
   11SAPS  C310 1436   2.718   4.994   7.343 -0.3675  0.2347 -0.3402
   11SAPS  H10X 1437   2.630   4.936   7.307 -0.7713  0.4538  0.2798
   11SAPS  H10Y 1438   2.687   5.098   7.367  1.1572  0.6399 -0.0818
   11SAPS  C311 1439   2.773   4.929   7.469 -0.2618 -0.3913  0.2976
   11SAPS  H11X 1440   2.859   4.990   7.505 -0.1987  1.5030 -2.8595
   11SAPS  H11Y 1441   2.815   4.829   7.445  1.0300  0.3807 -0.7508
   11SAPS  C312 1442   2.671   4.911   7.583  0.1209 -0.2159 -0.0613
   11SAPS  H12X 1443   2.576   4.870   7.543 -0.7307 -0.5977  2.2329
   11SAPS  H12Y 1444   2.648   5.011   7.626 -0.3318  0.7806 -2.5511
   11SAPS  C313 1445   2.713   4.805   7.683  0.2757  0.4846 -0.5606
   11SAPS  H13X 1446   2.744   4.709   7.635  1.1536  0.9876 -1.0149
   11SAPS  H13Y 1447   2.630   4.785   7.754  0.9600 -0.1531  0.0844
   11SAPS  C314 1448   2.824   4.851   7.787  0.1251 -0.2806  0.9392
   11SAPS  H14X 1449   2.820   4.952   7.833 -2.6224 -0.2039  0.6255
   11SAPS  H14Y 1450   2.923   4.838   7.739 -0.0017 -0.7621  0.8135
   11SAPS  C315 1451   2.839   4.759   7.914  0.2326  0.0799  0.2663
   11SAPS  H15X 1452   2.824   4.653   7.884 -0.8352  0.1957  0.4002
   11SAPS  H15Y 1453   2.751   4.776   7.980 -0.6074 -1.5281 -0.4088
   11SAPS  C316 1454   2.970   4.778   7.993 -1.1595 -0.2705  0.0230
   11SAPS  H16X 1455   2.985   4.886   8.014  0.3969 -0.8439  1.9640
   11SAPS  H16Y 1456   3.054   4.756   7.924 -1.0346  3.2073 -1.0335
   11SAPS  C317 1457   2.966   4.705   8.132  0.8618 -0.4027 -0.4964
   11SAPS  H17X 1458   3.056   4.717   8.197 -0.6555  2.0810  1.2430
   11SAPS  H17Y 1459   2.983   4.600   8.100  0.1799  0.3533 -3.5047
   11SAPS  C318 1460   2.846   4.739   8.216  0.4525  0.3932 -0.2980
   11SAPS  H18X 1461   2.850   4.847   8.241  4.8764 -0.0989  1.6004
   11SAPS  H18Y 1462   2.859   4.686   8.312 -3.4865 -2.0020 -0.9774
   11SAPS  H18Z 1463   2.752   4.705   8.169  0.1745  1.3795 -0.4668
   12SAPS     N 1464   1.714   5.410   6.052  0.4065 -0.3998  0.1295
   12SAPS   HN1 1465   1.799   5.437   6.106  0.2176  1.8670 -0.6194
   12SAPS   HN2 1466   1.627   5.450   6.094  0.8694  0.2169  0.5088
   12SAPS   HN3 1467   1.704   5.307   6.044  0.1992 -0.3749  0.0494
   12SAPS   C12 1468   1.727   5.470   5.919 -0.9350 -0.0085 -1.3145
   12SAPS  H12A 1469   1.779   5.394   5.862 -0.1960 -1.8020  1.6655
   12SAPS   C13 1470   1.601   5.516   5.851 -0.6772 -0.2128  0.0764
   12SAPS  O13A 1471   1.489   5.467   5.896 -0.2993 -0.7101 -0.1209
   12SAPS  O13B 1472   1.601   5.564   5.736  0.6865  0.3442 -0.7465
   12SAPS   C11 1473   1.814   5.609   5.931  0.1462  0.1604 -0.2083
   12SAPS  H11A 1474   1.747   5.681   5.983 -0.5343  0.0335 -0.9032
   12SAPS  H11B 1475   1.819   5.653   5.830 -1.3213  0.1801 -0.2814
   12SAPS     P 1476   1.996   5.695   6.092 -0.3586  0.5452 -0.2261
   12SAPS   O13 1477   2.141   5.674   6.102 -0.1516 -0.5178  0.0116
   12SAPS   O14 1478   1.943   5.827   6.050  0.1598 -0.0863  0.0332
   12SAPS   O12 1479   1.939   5.589   5.991  0.0167  0.0764  1.0209
   12SAPS   O11 1480   1.921   5.641   6.219  0.5443  0.3218  0.8429
   12SAPS    C1 1481   1.859   5.738   6.303  0.2656 -0.5910 -0.2431
   12SAPS    HA 1482   1.782   5.795   6.247  0.9789  2.9391  2.1708
   12SAPS    HB 1483   1.813   5.680   6.385  1.4714 -0.1199  0.7840
   12SAPS    C2 1484   1.950   5.841   6.373 -0.0300 -0.1007  0.2529
   12SAPS    HS 1485   1.988   5.902   6.289  1.0458 -2.4113 -0.9763
   12SAPS   O21 1486   2.050   5.768   6.441 -0.0792 -0.3732  0.0703
   12SAPS   C21 1487   2.162   5.832   6.473  0.3495  0.3888  0.1416
   12SAPS   O22 1488   2.196   5.945   6.442  0.0275 -0.1338  0.4023
   12SAPS   C22 1489   2.240   5.732   6.562  0.5436  0.1381  0.0881
   12SAPS   H2R 1490   2.248   5.631   6.516 -1.4662  0.5602 -1.2829
   12SAPS   H2S 1491   2.345   5.764   6.544  0.7878 -0.7920 -0.2096
   12SAPS    C3 1492   1.870   5.935   6.474 -0.1452 -0.5098  0.2618
   12SAPS    HX 1493   1.839   5.868   6.557 -1.0293  0.0824  0.4067
   12SAPS    HY 1494   1.775   5.972   6.432  1.8929  2.5750 -1.8468
   12SAPS   O31 1495   1.953   6.041   6.524  0.0816  0.7840  0.1514
   12SAPS   C31 1496   1.967   6.152   6.448 -0.5297  0.3303 -0.4370
   12SAPS   O32 1497   1.910   6.168   6.340 -0.1895  0.2789 -0.4067
   12SAPS   C32 1498   2.051   6.264   6.524  0.1050  0.2430 -0.5937
   12SAPS   H2X 1499   2.155   6.227   6.533  0.5543  1.3026 -1.3435
   12SAPS   H2Y 1500   2.014   6.278   6.628  2.9219 -0.5619  0.5469
   12SAPS   C23 1501   2.196   5.731   6.710  0.1776  0.0513 -0.5239
   12SAPS   H3R 1502   2.281   5.703   6.775  0.3240  1.7087  0.0162
   12SAPS   H3S 1503   2.131   5.641   6.719  1.0241 -0.5975 -0.8164
   12SAPS   C24 1504   2.127   5.859   6.762 -0.4924  0.7039 -0.1877
   12SAPS   H4R 1505   2.083   5.841   6.863 -1.1170  1.0340 -0.3950
   12SAPS   H4S 1506   2.034   5.882   6.705  0.5018 -0.2046 -2.2215
   12SAPS   C25 1507   2.221   5.981   6.770  0.4593 -0.1823  0.0373
   12SAPS   H5R 1508   2.242   6.016   6.668 -0.1054 -2.7519 -0.9888
   12SAPS   C26 1509   2.278   6.037   6.879 -0.3113 -0.0302  0.4654
   12SAPS   H6R 1510   2.340   6.127   6.866 -1.7370  0.5387 -2.7261
   12SAPS   C27 1511   2.274   5.999   7.025  0.5526  0.2690  0.0579
   12SAPS   H7R 1512   2.349   5.923   7.056 -0.3430 -0.3279  0.7479
   12SAPS   H7S 1513   2.177   5.950   7.046  0.0717  1.3481  0.3602
   12SAPS   C28 1514   2.280   6.128   7.107 -0.7066 -0.4088 -0.5464
   12SAPS   H8R 1515   2.251   6.223   7.061 -2.1731  0.0163  1.1790
   12SAPS   C29 1516   2.316   6.128   7.235 -0.1373  0.0644 -0.6651
   12SAPS   H9R 1517   2.332   6.227   7.280 -0.7156 -0.1415 -0.0040
   12SAPS  C210 1518   2.358   6.016   7.329 -1.1668  0.1537  0.3242
   12SAPS  H10R 1519   2.443   5.962   7.281  0.2302  2.0161  0.6477
   12SAPS  H10S 1520   2.277   5.942   7.340  0.5138 -1.9048 -0.7975
   12SAPS  C211 1521   2.396   6.078   7.459 -0.4695 -0.1739  0.2458
   12SAPS  H11R 1522   2.352   6.173   7.493 -2.4944 -1.1044  0.2922
   12SAPS  C212 1523   2.479   6.027   7.544  0.0543 -0.0538 -0.3863
   12SAPS  H12R 1524   2.504   6.073   7.641  1.4835  0.0925 -0.8163
   12SAPS  C213 1525   2.555   5.898   7.518  0.1061  0.1836  0.5170
   12SAPS  H13R 1526   2.543   5.860   7.414 -1.3368  1.2571  0.2880
   12SAPS  H13S 1527   2.514   5.820   7.586 -1.9062 -0.0442 -0.9126
   12SAPS  C214 1528   2.699   5.916   7.538  0.0351  0.1160  0.9200
   12SAPS  H14R 1529   2.762   5.939   7.451  0.3566 -1.9073  0.5756
   12SAPS  C215 1530   2.768   5.902   7.654 -0.2046 -0.1448 -0.2233
   12SAPS  H15R 1531   2.877   5.915   7.655 -0.4993  2.5032  0.4754
   12SAPS  C216 1532   2.697   5.876   7.783  0.1940 -0.0584 -0.4215
   12SAPS  H16R 1533   2.713   5.776   7.829 -0.2800 -0.0504 -0.2378
   12SAPS  H16S 1534   2.587   5.882   7.771 -0.1023  0.2913  2.1624
   12SAPS  C217 1535   2.736   5.982   7.889 -0.0314  0.1520 -0.6624
   12SAPS  H17R 1536   2.688   6.076   7.855 -2.1788  0.0711  2.0211
   12SAPS  H17S 1537   2.847   5.987   7.896  0.0150  0.1544 -1.3093
   12SAPS  C218 1538   2.673   5.941   8.021 -0.2158  0.0348 -0.0641
   12SAPS  H18R 1539   2.724   5.845   8.046  2.7457  1.3258 -0.8589
   12SAPS  H18S 1540   2.564   5.924   8.014 -0.3100  1.3150 -2.2465
   12SAPS  C219 1541   2.717   6.025   8.145  0.4674  0.6591  0.4616
   12SAPS  H19R 1542   2.827   6.012   8.145  0.4566  0.1380 -2.7716
   12SAPS  H19S 1543   2.668   5.978   8.232  1.5997 -1.5422 -0.0524
   12SAPS  C220 1544   2.678   6.175   8.142 -0.4762 -0.5055  0.2100
   12SAPS  H20R 1545   2.699   6.227   8.046 -0.7507  0.5431  0.7052
   12SAPS  H20S 1546   2.716   6.235   8.228  0.5973 -1.7043  0.5960
   12SAPS  H20T 1547   2.568   6.183   8.145 -0.3001  2.7342 -0.1497
   12SAPS   C33 1548   2.048   6.401   6.451 -0.4323 -0.8046 -0.6996
   12SAPS   H3X 1549   1.946   6.444   6.441 -1.0066 -2.0488 -0.1925
   12SAPS   H3Y 1550   2.101   6.379   6.356 -0.6590 -1.0080 -0.7799
   12SAPS   C34 1551   2.140   6.494   6.533 -0.4667  0.3468  0.3583
   12SAPS   H4X 1552   2.166   6.575   6.461  0.4246 -1.5722 -1.5293
   12SAPS   H4Y 1553   2.233   6.434   6.543 -0.0764  0.8073 -0.4576
   12SAPS   C35 1554   2.076   6.549   6.665  0.0824 -0.4758  0.5243
   12SAPS   H5X 1555   2.075   6.461   6.733  1.2207 -1.9588 -1.3300
   12SAPS   H5Y 1556   1.974   6.588   6.647 -0.1648 -0.7363  1.3235
   12SAPS   C36 1557   2.160   6.654   6.727 -0.0111  0.6028  0.0952
   12SAPS   H6X 1558   2.183   6.734   6.653  2.2769  0.5268  0.6647
   12SAPS   H6Y 1559   2.262   6.613   6.747 -0.8438 -0.3158  2.6315
   12SAPS   C37 1560   2.104   6.712   6.852  0.0706  0.3686 -0.2652
   12SAPS   H7X 1561   1.997   6.741   6.844 -0.6882 -1.6713  2.0208
   12SAPS   H7Y 1562   2.159   6.804   6.880 -0.8700  0.8293  0.0845
   12SAPS   C38 1563   2.097   6.628   6.983 -0.5020  0.2501 -0.5016
   12SAPS   H8X 1564   2.175   6.549   6.976  0.3530  0.7265  2.7590
   12SAPS   H8Y 1565   2.006   6.569   7.004  0.1729 -0.4214  0.5721
   12SAPS   C39 1566   2.131   6.712   7.110 -0.2046 -0.0550  0.6461
   12SAPS   H9X 1567   2.070   6.805   7.122  1.5046  1.0979  0.6266
   12SAPS   H9Y 1568   2.232   6.755   7.094 -0.2611 -0.5528 -1.1817
   12SAPS  C310 1569   2.124   6.625   7.231  0.4615 -0.5443 -1.0939
   12SAPS  H10X 1570   2.177   6.527   7.224  0.6775 -0.6836  1.9028
   12SAPS  H10Y 1571   2.014   6.608   7.237  0.4465  0.5634  2.9688
   12SAPS  C311 1572   2.150   6.711   7.352  0.2671  0.1051 -0.3951
   12SAPS  H11X 1573   2.082   6.799   7.345 -0.3910 -0.5104 -1.7837
   12SAPS  H11Y 1574   2.252   6.754   7.340 -0.4265  1.9822  0.2673
   12SAPS  C312 1575   2.113   6.632   7.475 -0.1935 -0.4754 -0.4900
   12SAPS  H12X 1576   2.186   6.550   7.492  0.6383  0.5338  0.9034
   12SAPS  H12Y 1577   2.008   6.602   7.455 -0.1241 -0.8173 -0.3571
   12SAPS  C313 1578   2.107   6.723   7.593  0.7225  0.1870  0.0169
   12SAPS  H13X 1579   2.028   6.800   7.576  2.1450  2.0608  1.6190
   12SAPS  H13Y 1580   2.193   6.793   7.583 -0.3666  1.5957  0.3136
   12SAPS  C314 1581   2.084   6.653   7.728 -0.1598 -0.3467 -0.2162
   12SAPS  H14X 1582   2.152   6.566   7.729 -1.1236 -1.1083 -0.1675
   12SAPS  H14Y 1583   1.979   6.617   7.737 -0.1068  0.1246  2.6800
   12SAPS  C315 1584   2.122   6.732   7.852 -0.7461 -0.6778  0.2310
   12SAPS  H15X 1585   2.096   6.673   7.942  1.1539 -0.6523  0.8186
   12SAPS  H15Y 1586   2.063   6.826   7.853 -1.8684 -1.3193 -1.7812
   12SAPS  C316 1587   2.266   6.767   7.878 -0.3220  0.1813  0.1234
   12SAPS  H16X 1588   2.314   6.821   7.793 -2.3819  1.5226 -0.2110
   12SAPS  H16Y 1589   2.327   6.675   7.892 -2.0976 -1.3085 -1.8199
   12SAPS  C317 1590   2.273   6.854   8.013 -0.5834  0.0839 -0.6410
   12SAPS  H17X 1591   2.228   6.807   8.103  0.3052 -1.8628 -1.1669
   12SAPS  H17Y 1592   2.209   6.940   7.985 -1.4740 -0.9336 -1.8099
   12SAPS  C318 1593   2.423   6.898   8.051  0.4765  0.5723  0.9092
   12SAPS  H18X 1594   2.484   6.820   8.101  0.4212  0.1781  0.3633
   12SAPS  H18Y 1595   2.427   6.981   8.125 -0.0698  2.2112 -0.8455
   12SAPS  H18Z 1596   2.470   6.937   7.959 -1.6100  2.1932  0.4850
   13SAPS     N 1597   2.730   2.882   6.128 -1.0802  0.8598 -0.5462
   13SAPS   HN1 1598   2.826   2.871   6.166 -1.3228 -0.5549 -0.3155
   13SAPS   HN2 1599   2.680   2.925   6.208  0.6451  0.4207  0.7984
   13SAPS   HN3 1600   2.677   2.794   6.112 -1.0597  0.2768  2.2849
   13SAPS   C12 1601   2.734   2.984   6.012 -0.3487  0.0402 -0.9759
   13SAPS  H12A 1602   2.816   3.053   6.027 -1.7360  1.2801  1.1456
   13SAPS   C13 1603   2.751   2.927   5.870  0.4313 -0.0353 -0.1530
   13SAPS  O13A 1604   2.740   2.804   5.851  0.1837  0.3450 -0.2461
   13SAPS  O13B 1605   2.761   3.004   5.772 -0.5578 -0.2888  0.0114
   13SAPS   C11 1606   2.606   3.069   6.013 -0.2620  0.0963  0.3300
   13SAPS  H11A 1607   2.518   3.006   5.988 -1.2473  1.1902  1.0088
   13SAPS  H11B 1608   2.620   3.138   5.927  0.3495 -1.2548 -0.6844
   13SAPS     P 1609   2.663   3.271   6.168  0.3221 -0.3470 -0.1435
   13SAPS   O13 1610   2.803   3.249   6.154 -0.1773 -0.1763 -0.0832
   13SAPS   O14 1611   2.605   3.376   6.085  0.1276 -0.0690  0.2541
   13SAPS   O12 1612   2.582   3.138   6.138 -0.5470  0.2585 -0.4566
   13SAPS   O11 1613   2.623   3.298   6.322 -0.0502  0.2041  0.3621
   13SAPS    C1 1614   2.691   3.232   6.430 -0.3069  0.1551 -0.3309
   13SAPS    HA 1615   2.756   3.152   6.389  1.2531  0.8040  0.8376
   13SAPS    HB 1616   2.760   3.301   6.482 -1.7613  1.1773  0.2718
   13SAPS    C2 1617   2.591   3.153   6.513 -0.5911 -0.4327 -0.3610
   13SAPS    HS 1618   2.512   3.104   6.451 -2.1277  1.6099 -0.0752
   13SAPS   O21 1619   2.517   3.245   6.596  0.6926 -0.0920 -0.3386
   13SAPS   C21 1620   2.400   3.291   6.556  0.3697  0.5077  0.4836
   13SAPS   O22 1621   2.351   3.268   6.451 -0.2172 -0.0997  0.3896
   13SAPS   C22 1622   2.333   3.367   6.672  0.1589  0.5784  0.8628
   13SAPS   H2R 1623   2.373   3.323   6.766  0.1346  0.7017  0.9305
   13SAPS   H2S 1624   2.364   3.473   6.668  0.7244  0.3567 -1.9814
   13SAPS    C3 1625   2.657   3.050   6.613  0.3870 -0.4856 -0.3834
   13SAPS    HX 1626   2.674   2.965   6.543 -0.6141 -0.4891 -0.6298
   13SAPS    HY 1627   2.577   3.029   6.686 -1.1767 -1.4363 -2.3227
   13SAPS   O31 1628   2.777   3.106   6.667 -0.2764 -0.2221  0.5315
   13SAPS   C31 1629   2.840   3.031   6.756 -0.6608 -0.3706  0.9271
   13SAPS   O32 1630   2.793   2.928   6.800 -0.2058 -0.8922 -0.0346
   13SAPS   C32 1631   2.972   3.100   6.795  0.8442  0.3854 -0.4638
   13SAPS   H2X 1632   2.947   3.207   6.785  1.3496  0.4603 -0.9447
   13SAPS   H2Y 1633   3.046   3.065   6.719 -0.6372 -1.2843 -1.1770
   13SAPS   C23 1634   2.180   3.353   6.666  0.0791  0.1616 -0.3622
   13SAPS   H3R 1635   2.148   3.248   6.682 -0.3924  0.6540  2.0417
   13SAPS   H3S 1636   2.149   3.390   6.566 -1.7244 -2.4692 -0.8235
   13SAPS   C24 1637   2.111   3.438   6.770 -0.2018 -0.1559 -0.8764
   13SAPS   H4R 1638   2.000   3.428   6.766 -0.4873  1.6675  1.0185
   13SAPS   H4S 1639   2.129   3.543   6.738 -1.2683  0.1778 -0.4179
   13SAPS   C25 1640   2.156   3.400   6.913 -0.1231  0.1351 -0.6719
   13SAPS   H5R 1641   2.143   3.296   6.947 -1.2827  1.0954  1.9608
   13SAPS   C26 1642   2.225   3.477   7.005  0.5353 -0.1252  0.5362
   13SAPS   H6R 1643   2.250   3.437   7.105  1.2319 -0.2622  0.3096
   13SAPS   C27 1644   2.275   3.621   6.986 -0.4192 -0.1333 -0.0834
   13SAPS   H7R 1645   2.304   3.635   6.880  1.9555  0.5307  0.6267
   13SAPS   H7S 1646   2.365   3.632   7.050  0.1301  0.7563 -0.9998
   13SAPS   C28 1647   2.177   3.730   7.019 -0.1522  0.3748  0.0691
   13SAPS   H8R 1648   2.144   3.778   6.926  0.2994  1.1404  0.2987
   13SAPS   C29 1649   2.141   3.776   7.141 -0.4862 -0.4488 -0.6234
   13SAPS   H9R 1650   2.069   3.857   7.159 -1.1808 -1.3555  0.7397
   13SAPS  C210 1651   2.200   3.735   7.271  0.1369 -0.4565 -0.0372
   13SAPS  H10R 1652   2.226   3.825   7.331 -0.1381  2.4367 -4.1006
   13SAPS  H10S 1653   2.293   3.674   7.266 -0.2649 -1.1269  0.4687
   13SAPS  C211 1654   2.092   3.647   7.334 -0.2312 -0.1203  0.1193
   13SAPS  H11R 1655   2.030   3.579   7.274 -1.1037  0.5436  0.2560
   13SAPS  C212 1656   2.075   3.638   7.472 -0.6993 -0.6681 -0.3112
   13SAPS  H12R 1657   2.001   3.568   7.513  1.1060 -0.9625  2.6204
   13SAPS  C213 1658   2.152   3.719   7.576 -0.3338  0.7712  0.7784
   13SAPS  H13R 1659   2.076   3.768   7.639 -1.8266 -0.5910  0.0719
   13SAPS  H13S 1660   2.220   3.793   7.527 -2.5845  0.5300 -2.9312
   13SAPS  C214 1661   2.240   3.622   7.661  0.2394 -0.1358 -0.3338
   13SAPS  H14R 1662   2.300   3.549   7.604 -1.6464 -1.9554 -0.0331
   13SAPS  C215 1663   2.254   3.617   7.793 -0.1907 -0.1340 -0.0917
   13SAPS  H15R 1664   2.313   3.535   7.838  2.1637  1.3605 -0.3313
   13SAPS  C216 1665   2.172   3.704   7.891 -0.0219  0.5844 -0.1702
   13SAPS  H16R 1666   2.153   3.798   7.834  0.1128  0.6918 -0.0358
   13SAPS  H16S 1667   2.236   3.730   7.978  2.1036 -3.1270 -0.5456
   13SAPS  C217 1668   2.041   3.636   7.947 -0.5655 -0.7463 -0.1422
   13SAPS  H17R 1669   2.065   3.534   7.984  2.5884  0.1450  0.3793
   13SAPS  H17S 1670   1.970   3.627   7.862  0.4149  1.0348 -1.1777
   13SAPS  C218 1671   1.980   3.732   8.051 -0.0258 -0.2507  0.0095
   13SAPS  H18R 1672   1.966   3.831   8.002  1.5778 -0.1991 -0.3866
   13SAPS  H18S 1673   2.044   3.738   8.141 -1.3413  0.3106  0.9090
   13SAPS  C219 1674   1.839   3.685   8.092 -0.3042 -0.4516 -0.0548
   13SAPS  H19R 1675   1.825   3.718   8.197  1.6184 -0.9246  0.3666
   13SAPS  H19S 1676   1.830   3.574   8.089  1.1513 -0.6790  2.5632
   13SAPS  C220 1677   1.728   3.730   7.999 -1.1885  0.3072  0.6166
   13SAPS  H20R 1678   1.749   3.698   7.895  1.1580  0.9303  0.8802
   13SAPS  H20S 1679   1.725   3.841   7.988  1.0828  0.4479  1.1166
   13SAPS  H20T 1680   1.631   3.695   8.040 -0.0991 -2.9576  0.5064
   13SAPS   C33 1681   3.026   3.074   6.937  0.3727 -0.4323  0.5602
   13SAPS   H3X 1682   3.132   3.105   6.922 -0.0873  0.7173 -0.3112
   13SAPS   H3Y 1683   3.019   2.965   6.957 -2.7074 -0.1857  1.0075
   13SAPS   C34 1684   2.973   3.171   7.045 -0.3356  0.3601 -0.1091
   13SAPS   H4X 1685   2.875   3.126   7.073 -0.9145  0.9610 -1.0924
   13SAPS   H4Y 1686   2.960   3.267   6.990  1.0314 -0.4338 -1.8862
   13SAPS   C35 1687   3.071   3.179   7.168 -0.2778  1.0277  0.7600
   13SAPS   H5X 1688   2.997   3.188   7.250 -2.7699  0.6868 -1.3843
   13SAPS   H5Y 1689   3.128   3.273   7.182  1.5717 -0.0513  0.5854
   13SAPS   C36 1690   3.164   3.058   7.175  0.6340 -0.2527 -0.2023
   13SAPS   H6X 1691   3.246   3.059   7.100  0.7293  0.3592 -0.0877
   13SAPS   H6Y 1692   3.108   2.964   7.154 -3.1031  1.5473  1.3340
   13SAPS   C37 1693   3.230   3.040   7.313  0.7828 -0.5106 -0.1521
   13SAPS   H7X 1694   3.289   3.132   7.332  1.2669 -0.2306 -2.7887
   13SAPS   H7Y 1695   3.301   2.953   7.311  0.2551 -0.9349 -0.7354
   13SAPS   C38 1696   3.139   3.019   7.429 -0.2492  0.4091 -0.2857
   13SAPS   H8X 1697   3.062   2.952   7.386  0.4531 -0.3951 -0.2838
   13SAPS   H8Y 1698   3.087   3.115   7.451  1.4264  1.5233 -1.1162
   13SAPS   C39 1699   3.197   2.965   7.551  0.4417  0.4165 -0.3702
   13SAPS   H9X 1700   3.290   3.019   7.578  1.5683 -0.6779 -1.9635
   13SAPS   H9Y 1701   3.232   2.861   7.530 -0.3214  0.3497 -1.3517
   13SAPS  C310 1702   3.104   2.977   7.673  0.0935  0.1880 -0.3130
   13SAPS  H10X 1703   3.001   2.946   7.648  0.4414 -2.3207  1.2565
   13SAPS  H10Y 1704   3.109   3.079   7.717 -0.1218 -0.7785  2.0053
   13SAPS  C311 1705   3.147   2.875   7.781 -0.1371  0.0192  0.3963
   13SAPS  H11X 1706   3.244   2.904   7.827 -1.0044 -1.5402  3.3344
   13SAPS  H11Y 1707   3.160   2.774   7.736  1.6534  1.0619 -1.5347
   13SAPS  C312 1708   3.064   2.883   7.909 -0.2374 -0.3943 -0.9071
   13SAPS  H12X 1709   2.961   2.848   7.889  0.0454 -1.2235 -0.9336
   13SAPS  H12Y 1710   3.061   2.988   7.946 -2.4164 -0.9043  0.4292
   13SAPS  C313 1711   3.131   2.804   8.020  0.5497  0.2141 -0.2580
   13SAPS  H13X 1712   3.228   2.855   8.038 -0.3156  1.2177  1.6871
   13SAPS  H13Y 1713   3.149   2.700   7.987 -1.5495 -0.3920  0.4510
   13SAPS  C314 1714   3.040   2.803   8.146 -0.1874  0.5752 -0.2913
   13SAPS  H14X 1715   2.955   2.736   8.122 -0.5766  0.8234  0.4026
   13SAPS  H14Y 1716   2.999   2.906   8.155 -1.0456  0.2680 -0.6478
   13SAPS  C315 1717   3.121   2.755   8.263 -0.3742  0.3830 -0.3657
   13SAPS  H15X 1718   3.196   2.830   8.296 -0.5768  0.5435 -0.2699
   13SAPS  H15Y 1719   3.185   2.668   8.234 -1.1407 -0.1030 -0.6128
   13SAPS  C316 1720   3.034   2.704   8.375 -0.4480  0.6065 -0.0235
   13SAPS  H16X 1721   2.948   2.644   8.337 -0.0928 -0.7870  1.3130
   13SAPS  H16Y 1722   2.978   2.791   8.416 -1.0871  0.1072  0.1692
   13SAPS  C317 1723   3.104   2.649   8.496 -0.5232 -0.4605  0.3140
   13SAPS  H17X 1724   3.173   2.723   8.540 -0.5179 -1.4946  2.0958
   13SAPS  H17Y 1725   3.170   2.567   8.460 -1.1043 -0.1387 -1.5860
   13SAPS  C318 1726   3.020   2.578   8.601 -0.0305  0.2332 -0.2930
   13SAPS  H18X 1727   2.926   2.636   8.612 -0.2487 -0.1587 -0.0591
   13SAPS  H18Y 1728   3.076   2.565   8.696 -2.2774 -0.9949  0.9245
   13SAPS  H18Z 1729   2.979   2.482   8.561  1.8630 -0.8623  0.3258
   14SAPS     N 1730   3.070   5.358   6.028  0.0476 -0.3915 -0.3966
   14SAPS   HN1 1731   3.162   5.329   6.067 -0.7380  0.3246  2.1411
   14SAPS   HN2 1732   3.056   5.448   6.079 -1.0876 -0.6730 -0.1942
   14SAPS   HN3 1733   2.994   5.294   6.059 -2.0879  0.9928 -2.5285
   14SAPS   C12 1734   3.063   5.381   5.884  0.1590  0.1064 -0.3437
   14SAPS  H12A 1735   3.149   5.437   5.850 -0.8487  2.7543  1.3758
   14SAPS   C13 1736   3.069   5.247   5.805  0.1504  0.0409 -0.1419
   14SAPS  O13A 1737   3.082   5.142   5.870 -0.0432  0.4015 -0.6094
   14SAPS  O13B 1738   3.066   5.251   5.676  0.1116  0.2033 -0.9859
   14SAPS   C11 1739   2.938   5.464   5.852 -0.6075 -0.2426  0.0912
   14SAPS  H11A 1740   2.838   5.416   5.862  0.2529 -1.9137  1.0126
   14SAPS  H11B 1741   2.935   5.474   5.741  0.0960 -0.5969  0.0353
   14SAPS     P 1742   2.840   5.697   5.902  0.2625 -0.0797  0.0261
   14SAPS   O13 1743   2.887   5.831   5.953 -0.4807 -0.1760 -0.0717
   14SAPS   O14 1744   2.783   5.699   5.767  0.4141  0.1319 -0.0665
   14SAPS   O12 1745   2.951   5.589   5.926  0.1858 -0.4658 -0.3897
   14SAPS   O11 1746   2.730   5.643   6.005 -0.1759 -0.4973 -0.0687
   14SAPS    C1 1747   2.772   5.583   6.127  0.3970  1.0371 -0.0983
   14SAPS    HA 1748   2.758   5.474   6.118  1.7208  0.7237  1.3608
   14SAPS    HB 1749   2.877   5.604   6.158  0.8412  0.4507 -1.1869
   14SAPS    C2 1750   2.674   5.632   6.240  0.2679 -0.1951  0.0195
   14SAPS    HS 1751   2.570   5.613   6.205  0.6631 -0.8255 -0.8365
   14SAPS   O21 1752   2.695   5.774   6.267 -0.5016  0.6150  0.5614
   14SAPS   C21 1753   2.597   5.830   6.337 -0.0988  0.4004 -0.3708
   14SAPS   O22 1754   2.491   5.772   6.344  0.7344  0.1671  0.2238
   14SAPS   C22 1755   2.640   5.944   6.420  0.1346  0.4425 -0.2776
   14SAPS   H2R 1756   2.703   5.907   6.503 -1.8072  0.6908  1.3517
   14SAPS   H2S 1757   2.704   6.018   6.367 -3.1451  2.9616 -0.8707
   14SAPS    C3 1758   2.692   5.536   6.367 -0.0646  0.6205  0.7152
   14SAPS    HX 1759   2.648   5.438   6.338  2.6156  0.2135 -2.2383
   14SAPS    HY 1760   2.618   5.571   6.443 -0.4081  0.4885  0.4472
   14SAPS   O31 1761   2.820   5.505   6.418  0.1003 -0.6820 -0.0299
   14SAPS   C31 1762   2.856   5.575   6.520 -0.1568  0.2397  0.3569
   14SAPS   O32 1763   2.788   5.658   6.576 -0.1630  0.1405  0.5441
   14SAPS   C32 1764   2.994   5.523   6.572 -0.6793  0.0463  0.6262
   14SAPS   H2X 1765   3.061   5.612   6.578  0.0054 -0.4666  0.6580
   14SAPS   H2Y 1766   3.029   5.445   6.501 -0.3575  1.0335 -0.3046
   14SAPS   C23 1767   2.522   6.029   6.483 -0.0149  0.6699  0.1513
   14SAPS   H3R 1768   2.459   5.970   6.552  2.5461  0.7492  2.6501
   14SAPS   H3S 1769   2.459   6.078   6.406 -1.4219 -0.8079  0.3462
   14SAPS   C24 1770   2.577   6.147   6.563  0.2047  0.0380 -0.0665
   14SAPS   H4R 1771   2.679   6.162   6.523  0.3757  1.0807  0.7450
   14SAPS   H4S 1772   2.602   6.116   6.666 -0.9296 -0.5067  0.0516
   14SAPS   C25 1773   2.506   6.281   6.542 -0.2399  0.1065  1.1591
   14SAPS   H5R 1774   2.396   6.280   6.542 -0.3124  0.5642 -3.2574
   14SAPS   C26 1775   2.571   6.404   6.537  0.0593  0.3715 -0.5827
   14SAPS   H6R 1776   2.511   6.496   6.528 -0.0712  0.2093 -1.3779
   14SAPS   C27 1777   2.720   6.435   6.560  0.4867 -0.3275 -0.5497
   14SAPS   H7R 1778   2.761   6.459   6.460 -0.0258  3.1218 -0.0139
   14SAPS   H7S 1779   2.769   6.344   6.600 -2.3198 -0.7681  2.1137
   14SAPS   C28 1780   2.751   6.561   6.637  1.1495 -0.3342 -0.3253
   14SAPS   H8R 1781   2.757   6.654   6.579  0.5051 -0.3974 -0.4952
   14SAPS   C29 1782   2.751   6.582   6.768  0.4921 -0.1380 -0.1268
   14SAPS   H9R 1783   2.760   6.686   6.803 -3.6377  0.2278  0.0704
   14SAPS  C210 1784   2.736   6.470   6.869 -0.0931  0.1590  0.4257
   14SAPS  H10R 1785   2.793   6.502   6.959  0.0977 -1.4291  0.8813
   14SAPS  H10S 1786   2.766   6.368   6.839 -1.5476 -0.5808  1.4617
   14SAPS  C211 1787   2.583   6.469   6.896 -0.1652  0.7632  0.7825
   14SAPS  H11R 1788   2.518   6.423   6.820  0.9572  3.4157 -1.8914
   14SAPS  C212 1789   2.527   6.491   7.015  0.0159 -0.4301 -0.2136
   14SAPS  H12R 1790   2.418   6.483   7.029  0.0100  0.9316  0.5876
   14SAPS  C213 1791   2.595   6.531   7.144  0.0229  0.4521  0.5371
   14SAPS  H13R 1792   2.539   6.619   7.183  1.1195  2.1981 -1.6831
   14SAPS  H13S 1793   2.700   6.551   7.114  1.0475 -2.4278  2.0290
   14SAPS  C214 1794   2.580   6.421   7.243 -0.4253  0.3477  0.2776
   14SAPS  H14R 1795   2.622   6.327   7.202  2.1610  1.5229  0.1025
   14SAPS  C215 1796   2.537   6.416   7.369 -0.1580 -0.3856 -0.1296
   14SAPS  H15R 1797   2.547   6.324   7.429  2.2962  1.0087  1.7053
   14SAPS  C216 1798   2.511   6.540   7.456  0.5365  0.2314 -0.0049
   14SAPS  H16R 1799   2.406   6.575   7.447  0.6284  0.9682  1.6366
   14SAPS  H16S 1800   2.555   6.636   7.421 -2.0576  0.6611 -2.2706
   14SAPS  C217 1801   2.541   6.514   7.610 -0.4041 -0.7017  1.1708
   14SAPS  H17R 1802   2.523   6.603   7.674  2.2302 -0.5130  1.7169
   14SAPS  H17S 1803   2.652   6.506   7.612 -0.5111 -2.2343  1.3621
   14SAPS  C218 1804   2.462   6.392   7.664  0.9031  0.3255  0.4156
   14SAPS  H18R 1805   2.514   6.298   7.635  1.7810 -0.0444  3.0059
   14SAPS  H18S 1806   2.363   6.375   7.618  0.0803  0.5641  2.0419
   14SAPS  C219 1807   2.446   6.383   7.805  0.0678  0.3212 -0.0664
   14SAPS  H19R 1808   2.376   6.467   7.828 -3.5813 -2.5920 -0.1302
   14SAPS  H19S 1809   2.550   6.385   7.843  1.2780 -1.4229 -3.0964
   14SAPS  C220 1810   2.370   6.259   7.844 -0.1506  0.6105  0.3564
   14SAPS  H20R 1811   2.268   6.265   7.799  0.1045  0.6163 -0.2166
   14SAPS  H20S 1812   2.358   6.249   7.955 -2.3445 -2.4921 -0.0872
   14SAPS  H20T 1813   2.417   6.165   7.809  1.8533  2.2140 -1.3213
   14SAPS   C33 1814   2.987   5.449   6.706  0.6347  1.0238  0.2011
   14SAPS   H3X 1815   3.079   5.389   6.722  0.8034  0.6556 -2.1033
   14SAPS   H3Y 1816   2.911   5.369   6.695  0.5585  0.9491  1.1985
   14SAPS   C34 1817   2.955   5.539   6.822 -0.2066  0.0861  0.1512
   14SAPS   H4X 1818   2.856   5.585   6.800  0.2896  1.2903  0.3946
   14SAPS   H4Y 1819   3.030   5.621   6.825  0.8180 -0.8635  0.4392
   14SAPS   C35 1820   2.962   5.472   6.961 -0.4893  0.8191  0.0131
   14SAPS   H5X 1821   3.062   5.427   6.975 -1.0642  0.0717  1.9718
   14SAPS   H5Y 1822   2.892   5.385   6.964  0.2374  0.2993  3.2893
   14SAPS   C36 1823   2.937   5.577   7.070  0.2909  0.3646  0.0228
   14SAPS   H6X 1824   2.832   5.609   7.055  0.7182  0.7406 -2.4680
   14SAPS   H6Y 1825   3.004   5.663   7.050  1.4223 -0.1840  1.3603
   14SAPS   C37 1826   2.953   5.516   7.212  0.4962  0.1123 -0.0612
   14SAPS   H7X 1827   3.060   5.526   7.239  0.5991  2.2074 -1.1198
   14SAPS   H7Y 1828   2.924   5.410   7.230  1.6878 -0.1227  0.5024
   14SAPS   C38 1829   2.866   5.605   7.306  0.2119  0.3150  0.6507
   14SAPS   H8X 1830   2.760   5.582   7.283  0.3894  1.6473 -1.5678
   14SAPS   H8Y 1831   2.890   5.710   7.280  2.0392 -0.4334 -0.8593
   14SAPS   C39 1832   2.896   5.571   7.452  0.2305 -0.0775  0.7438
   14SAPS   H9X 1833   2.850   5.650   7.516 -0.7506 -0.2303  0.2360
   14SAPS   H9Y 1834   3.003   5.582   7.479  0.7483 -0.8731 -0.9629
   14SAPS  C310 1835   2.838   5.445   7.499 -0.4006  0.6748  0.6177
   14SAPS  H10X 1836   2.889   5.354   7.461  1.8987  0.9268  3.0059
   14SAPS  H10Y 1837   2.735   5.448   7.457 -0.6504  0.1421  1.1781
   14SAPS  C311 1838   2.842   5.437   7.654 -0.0527 -0.0200  0.0323
   14SAPS  H11X 1839   2.797   5.529   7.695 -1.6056 -0.7416 -0.0183
   14SAPS  H11Y 1840   2.944   5.436   7.699  0.6951  1.2384 -1.6184
   14SAPS  C312 1841   2.766   5.314   7.707 -0.5506 -0.2553  0.4545
   14SAPS  H12X 1842   2.797   5.217   7.661 -4.6407 -0.2865 -2.4890
   14SAPS  H12Y 1843   2.661   5.322   7.673  0.0268  1.0059 -1.0798
   14SAPS  C313 1844   2.750   5.297   7.858 -0.2938  0.1720  0.1634
   14SAPS  H13X 1845   2.851   5.285   7.903 -0.3076  0.9323  0.4029
   14SAPS  H13Y 1846   2.706   5.197   7.877  2.1014 -0.7527  1.1031
   14SAPS  C314 1847   2.678   5.402   7.928  0.2548  0.2889  0.1402
   14SAPS  H14X 1848   2.577   5.408   7.882 -0.0088 -0.7604  0.5855
   14SAPS  H14Y 1849   2.738   5.493   7.906 -0.5129  0.6481 -0.5007
   14SAPS  C315 1850   2.648   5.405   8.083 -0.2605 -0.0322  0.9987
   14SAPS  H15X 1851   2.747   5.410   8.133  0.1852 -0.3719  0.1587
   14SAPS  H15Y 1852   2.601   5.309   8.114 -1.9438 -0.1444 -1.7190
   14SAPS  C316 1853   2.559   5.523   8.132  0.6200 -0.4831 -0.0135
   14SAPS  H16X 1854   2.452   5.495   8.126  0.1658  1.0878  0.4085
   14SAPS  H16Y 1855   2.574   5.610   8.065  1.0018  0.2737  1.0365
   14SAPS  C317 1856   2.593   5.574   8.273  0.6736 -0.1424  0.0708
   14SAPS  H17X 1857   2.691   5.616   8.244  0.1538  1.2263  0.2689
   14SAPS  H17Y 1858   2.610   5.489   8.343  0.5576  0.2639  0.5945
   14SAPS  C318 1859   2.493   5.673   8.338 -0.6502 -0.4621 -0.2625
   14SAPS  H18X 1860   2.541   5.704   8.433 -0.0163  0.6049 -0.9210
   14SAPS  H18Y 1861   2.407   5.615   8.377 -0.4396 -1.0185 -0.6264
   14SAPS  H18Z 1862   2.465   5.762   8.278  0.0831  0.2746  0.4640
   15SAPS     N 1863   3.737   5.040   6.044 -0.1750 -0.2892  0.4653
   15SAPS   HN1 1864   3.792   5.020   5.958 -0.0192 -3.9504  1.3274
   15SAPS   HN2 1865   3.754   4.963   6.112  0.8156 -1.3956 -1.0065
   15SAPS   HN3 1866   3.639   5.043   6.011 -0.3537  0.9883  1.0884
   15SAPS   C12 1867   3.780   5.166   6.107  0.4399 -0.2400 -0.3112
   15SAPS  H12A 1868   3.770   5.135   6.210 -2.1099 -0.9514 -0.7294
   15SAPS   C13 1869   3.934   5.200   6.091  0.0199  0.5440 -0.0542
   15SAPS  O13A 1870   4.010   5.118   6.032 -0.4803 -0.0844  0.3967
   15SAPS  O13B 1871   3.976   5.293   6.162  0.0249 -0.5374 -0.0095
   15SAPS   C11 1872   3.682   5.280   6.068 -0.2707 -0.4759 -1.0246
   15SAPS  H11A 1873   3.710   5.316   5.967 -1.2747  2.3041 -0.3455
   15SAPS  H11B 1874   3.715   5.361   6.137 -1.6084  1.4917 -2.6307
   15SAPS     P 1875   3.440   5.352   6.106  0.4860  0.0905 -0.4055
   15SAPS   O13 1876   3.436   5.450   5.999  0.0136  0.1322  0.0071
   15SAPS   O14 1877   3.310   5.290   6.126 -0.6741  0.1029 -0.1386
   15SAPS   O12 1878   3.545   5.240   6.089  0.4614 -0.1367  0.3862
   15SAPS   O11 1879   3.482   5.409   6.249 -0.1851  0.7852  0.1892
   15SAPS    C1 1880   3.553   5.351   6.359 -0.7816 -0.6563 -0.3266
   15SAPS    HA 1881   3.616   5.265   6.329 -0.2320  0.3103 -2.0099
   15SAPS    HB 1882   3.632   5.419   6.396  0.4680 -1.2441 -1.8556
   15SAPS    C2 1883   3.458   5.327   6.480 -0.2450 -0.4458  0.4289
   15SAPS    HS 1884   3.357   5.300   6.443  0.5208 -2.6490 -0.1004
   15SAPS   O21 1885   3.442   5.450   6.556  0.3582  0.1070 -0.1879
   15SAPS   C21 1886   3.365   5.554   6.516 -0.0854  0.9824 -0.6226
   15SAPS   O22 1887   3.297   5.551   6.415 -0.2297  0.7014  0.0479
   15SAPS   C22 1888   3.353   5.665   6.620 -0.0823  0.1686  0.1169
   15SAPS   H2R 1889   3.262   5.650   6.683  1.5880 -1.7088  2.1498
   15SAPS   H2S 1890   3.434   5.655   6.695 -0.5407 -1.2196  0.4293
   15SAPS    C3 1891   3.516   5.218   6.571 -0.4228  0.5615  0.3767
   15SAPS    HX 1892   3.618   5.250   6.604  0.0385  0.9059 -1.3237
   15SAPS    HY 1893   3.540   5.132   6.505  0.2944  1.0625 -0.0236
   15SAPS   O31 1894   3.417   5.176   6.672 -0.4875  0.5148  0.4064
   15SAPS   C31 1895   3.462   5.172   6.797 -0.2535  0.0826  0.7199
   15SAPS   O32 1896   3.579   5.185   6.831  0.1486 -0.2038  0.4232
   15SAPS   C32 1897   3.332   5.143   6.884 -0.3593  0.1398  0.8278
   15SAPS   H2X 1898   3.306   5.039   6.857  0.3259  0.2979 -0.5003
   15SAPS   H2Y 1899   3.244   5.207   6.860 -0.6137 -0.5624 -0.1704
   15SAPS   C23 1900   3.357   5.802   6.547 -0.5115 -0.1434  0.2184
   15SAPS   H3R 1901   3.274   5.793   6.473  0.8587 -0.5290 -1.3068
   15SAPS   H3S 1902   3.452   5.809   6.491  0.7408 -1.7276  2.0845
   15SAPS   C24 1903   3.354   5.931   6.633  0.1974  0.6444  0.1210
   15SAPS   H4R 1904   3.253   5.933   6.681  0.6617  1.8394  1.0575
   15SAPS   H4S 1905   3.366   6.028   6.582  0.6058  0.8608  0.6296
   15SAPS   C25 1906   3.458   5.926   6.738 -0.1029 -0.2642 -0.8778
   15SAPS   H5R 1907   3.556   5.967   6.710 -1.2236  1.2936 -2.6169
   15SAPS   C26 1908   3.443   5.894   6.867  0.0052 -0.6402 -0.1930
   15SAPS   H6R 1909   3.516   5.927   6.943 -1.4923  2.3912  0.0087
   15SAPS   C27 1910   3.315   5.854   6.946 -0.2654 -0.7051 -0.0860
   15SAPS   H7R 1911   3.222   5.869   6.887 -3.7841 -2.2622  4.7262
   15SAPS   H7S 1912   3.297   5.922   7.032  2.0390 -1.3952  0.9832
   15SAPS   C28 1913   3.329   5.707   6.987  0.5802 -0.3095  0.7982
   15SAPS   H8R 1914   3.318   5.641   6.900  0.6068  0.9149 -0.1487
   15SAPS   C29 1915   3.343   5.653   7.112 -0.1952  0.8702 -0.3138
   15SAPS   H9R 1916   3.356   5.544   7.121 -0.8353  0.8562  0.5882
   15SAPS  C210 1917   3.359   5.732   7.239  0.1792  0.3683 -0.5401
   15SAPS  H10R 1918   3.311   5.832   7.231  0.7579  0.6800 -0.1612
   15SAPS  H10S 1919   3.463   5.763   7.260  0.5310 -0.2086 -1.4167
   15SAPS  C211 1920   3.301   5.661   7.353 -0.2065  0.3833  0.0653
   15SAPS  H11R 1921   3.267   5.557   7.342  2.7267 -0.6261  0.0905
   15SAPS  C212 1922   3.291   5.716   7.481 -1.0824 -0.3253  0.0691
   15SAPS  H12R 1923   3.271   5.647   7.564  0.2274  1.0443  1.5750
   15SAPS  C213 1924   3.324   5.856   7.541 -0.2198 -0.5196 -0.5217
   15SAPS  H13R 1925   3.345   5.914   7.448  3.0438 -1.0782 -0.2099
   15SAPS  H13S 1926   3.422   5.856   7.594 -0.7521  2.4987  0.5724
   15SAPS  C214 1927   3.210   5.909   7.622 -0.6682 -0.8603  0.0942
   15SAPS  H14R 1928   3.150   5.995   7.589 -2.4349 -2.2119 -0.2825
   15SAPS  C215 1929   3.176   5.867   7.745 -0.6915  0.0389  0.5924
   15SAPS  H15R 1930   3.102   5.929   7.798 -0.8194  0.9259 -0.5985
   15SAPS  C216 1931   3.248   5.750   7.825 -0.0015 -0.0643 -0.1482
   15SAPS  H16R 1932   3.300   5.776   7.920  0.9135  3.0657 -1.4409
   15SAPS  H16S 1933   3.338   5.716   7.769  1.0134  2.5859 -0.1761
   15SAPS  C217 1934   3.152   5.629   7.838 -0.3875  0.0254 -0.4160
   15SAPS  H17R 1935   3.200   5.535   7.871 -1.1587 -0.2713 -0.1160
   15SAPS  H17S 1936   3.108   5.605   7.739  1.0118  0.9199 -1.2695
   15SAPS  C218 1937   3.032   5.661   7.937 -0.4380  0.0103  0.2559
   15SAPS  H18R 1938   2.974   5.566   7.926 -2.4862  1.3340 -0.8023
   15SAPS  H18S 1939   2.981   5.757   7.917 -0.2408  0.2969  1.1120
   15SAPS  C219 1940   3.091   5.698   8.080  0.3298 -0.0783 -0.1029
   15SAPS  H19R 1941   3.155   5.788   8.065 -2.2581  1.8671  0.1829
   15SAPS  H19S 1942   3.157   5.615   8.114 -1.4056 -1.4466 -0.0385
   15SAPS  C220 1943   2.991   5.724   8.189  0.5574  0.0539 -0.5859
   15SAPS  H20R 1944   2.919   5.640   8.195  0.5739 -0.0125 -1.2910
   15SAPS  H20S 1945   2.929   5.812   8.161  0.8803  0.7971  0.9412
   15SAPS  H20T 1946   3.049   5.756   8.279  0.5324 -1.4321 -0.0244
   15SAPS   C33 1947   3.362   5.162   7.034  0.1081 -0.3204  0.5871
   15SAPS   H3X 1948   3.380   5.270   7.055 -1.9626  0.0275  0.7213
   15SAPS   H3Y 1949   3.460   5.124   7.068  0.8582 -0.9484 -2.1667
   15SAPS   C34 1950   3.247   5.117   7.124  0.2473 -0.3469  0.6431
   15SAPS   H4X 1951   3.224   5.008   7.117  1.0428 -0.5593  1.2813
   15SAPS   H4Y 1952   3.152   5.160   7.085  1.4230 -0.1842 -2.0861
   15SAPS   C35 1953   3.263   5.120   7.275 -0.3206  0.0280  0.3606
   15SAPS   H5X 1954   3.370   5.148   7.284  0.4012 -1.4488 -2.8537
   15SAPS   H5Y 1955   3.236   5.026   7.327 -4.2079  0.1377 -1.3156
   15SAPS   C36 1956   3.176   5.238   7.332  0.5656  0.4340 -0.1682
   15SAPS   H6X 1957   3.067   5.218   7.329 -0.2818  4.4564  1.2091
   15SAPS   H6Y 1958   3.197   5.326   7.269 -1.1773  0.6316 -0.4925
   15SAPS   C37 1959   3.223   5.273   7.474  0.4417  0.2657 -0.0442
   15SAPS   H7X 1960   3.188   5.376   7.493  1.6188  0.6582  0.0739
   15SAPS   H7Y 1961   3.334   5.263   7.483  0.6042 -1.4126 -3.2356
   15SAPS   C38 1962   3.160   5.191   7.578 -0.3148  1.0105  0.6761
   15SAPS   H8X 1963   3.169   5.081   7.567 -2.1874  0.7560  1.3886
   15SAPS   H8Y 1964   3.051   5.213   7.573 -1.1967 -2.6502  2.2414
   15SAPS   C39 1965   3.198   5.237   7.720 -0.1015 -0.4457  0.8894
   15SAPS   H9X 1966   3.177   5.345   7.732  0.4923 -0.2028 -0.1592
   15SAPS   H9Y 1967   3.306   5.214   7.731  0.1244 -0.1667 -0.6178
   15SAPS  C310 1968   3.115   5.162   7.820  0.1963  0.4966  0.2185
   15SAPS  H10X 1969   3.157   5.060   7.834  0.1050 -0.1382 -3.6331
   15SAPS  H10Y 1970   3.012   5.143   7.781  0.3772 -0.1554  0.0524
   15SAPS  C311 1971   3.106   5.236   7.953 -0.8453  0.0343  0.0661
   15SAPS  H11X 1972   3.057   5.333   7.929  0.5063  0.3053 -1.7215
   15SAPS  H11Y 1973   3.208   5.263   7.986 -1.0575  0.2271  0.5726
   15SAPS  C312 1974   3.039   5.148   8.068  0.2784 -0.0807  0.1060
   15SAPS  H12X 1975   3.097   5.054   8.071  0.4385 -0.0518 -1.5644
   15SAPS  H12Y 1976   2.930   5.137   8.045 -0.0848  1.8611  0.7851
   15SAPS  C313 1977   3.068   5.214   8.204 -0.6804  1.1087 -0.4170
   15SAPS  H13X 1978   3.021   5.314   8.213  2.0569  2.3905  0.1703
   15SAPS  H13Y 1979   3.177   5.234   8.216 -0.4839 -0.2291  0.0899
   15SAPS  C314 1980   3.020   5.133   8.328  0.2195 -0.2162  0.1095
   15SAPS  H14X 1981   3.089   5.046   8.333 -0.4767 -0.8816 -1.7174
   15SAPS  H14Y 1982   2.918   5.096   8.309 -0.8480  1.1817  2.8385
   15SAPS  C315 1983   3.019   5.217   8.462  0.8168 -0.2746  0.6936
   15SAPS  H15X 1984   3.123   5.248   8.487  0.0512  2.5235  0.5160
   15SAPS  H15Y 1985   2.988   5.160   8.552 -0.1255 -0.3716  0.3147
   15SAPS  C316 1986   2.932   5.343   8.460 -0.5343 -0.1355 -0.7899
   15SAPS  H16X 1987   2.830   5.306   8.434  0.2152 -1.7025 -1.5697
   15SAPS  H16Y 1988   2.963   5.420   8.386 -0.1984 -1.1975 -1.7837
   15SAPS  C317 1989   2.923   5.400   8.600 -0.5524 -0.5419 -0.1749
   15SAPS  H17X 1990   3.029   5.428   8.619 -0.4690  0.1135 -1.5499
   15SAPS  H17Y 1991   2.892   5.323   8.674 -2.9282 -0.1817 -0.7331
   15SAPS  C318 1992   2.824   5.511   8.617  0.2832 -0.1869 -0.1342
   15SAPS  H18X 1993   2.719   5.474   8.613  0.1430  0.3141 -1.8378
   15SAPS  H18Y 1994   2.844   5.591   8.542  0.9637  0.4429  0.7180
   15SAPS  H18Z 1995   2.832   5.560   8.716  1.6784 -0.1820 -0.2425
   16SAPS     N 1996   5.333   6.644   6.244 -0.2782 -0.2792 -0.3798
   16SAPS   HN1 1997   5.313   6.625   6.344 -0.2027 -1.3235 -0.5563
   16SAPS   HN2 1998   5.332   6.747   6.234 -0.8896 -0.1580  0.8245
   16SAPS   HN3 1999   5.253   6.601   6.194 -0.6191  0.3582 -0.3770
   16SAPS   C12 2000   5.460   6.582   6.213  0.0002  0.2548 -0.1132
   16SAPS  H12A 2001   5.452   6.478   6.239  1.3249  0.5065  1.4278
   16SAPS   C13 2002   5.513   6.585   6.064  0.2607  0.2510 -0.6604
   16SAPS  O13A 2003   5.429   6.576   5.970  0.3076 -0.7508 -0.1589
   16SAPS  O13B 2004   5.624   6.528   6.047 -0.2602  0.5356  0.2258
   16SAPS   C11 2005   5.566   6.652   6.301 -0.2943 -0.1436  0.8324
   16SAPS  H11A 2006   5.576   6.751   6.252  2.9006 -0.1768  1.2935
   16SAPS  H11B 2007   5.665   6.604   6.282 -0.8990 -0.4458 -1.7140
   16SAPS     P 2008   5.625   6.603   6.559  0.0398 -0.0293 -0.3373
   16SAPS   O13 2009   5.623   6.458   6.557 -0.5491 -0.3735  0.7430
   16SAPS   O14 2010   5.757   6.673   6.546 -0.3658 -0.4095 -0.7392
   16SAPS   O12 2011   5.534   6.654   6.442 -0.3555  0.2312 -0.1806
   16SAPS   O11 2012   5.544   6.662   6.685 -0.6573 -0.5117 -0.2125
   16SAPS    C1 2013   5.486   6.795   6.683  0.3665 -0.1713 -0.2686
   16SAPS    HA 2014   5.563   6.869   6.655  1.1262 -0.6341  0.5822
   16SAPS    HB 2015   5.403   6.803   6.609  2.7042  1.6833 -2.8010
   16SAPS    C2 2016   5.420   6.836   6.816 -0.1915  0.4998  0.4597
   16SAPS    HS 2017   5.368   6.932   6.796  2.2586  1.9014  0.5814
   16SAPS   O21 2018   5.513   6.843   6.929 -0.0793 -0.1475 -0.0155
   16SAPS   C21 2019   5.604   6.928   6.919 -0.0511 -0.0283  0.0462
   16SAPS   O22 2020   5.623   7.015   6.835  0.5095 -0.0056 -0.4612
   16SAPS   C22 2021   5.686   6.912   7.046 -0.3562 -0.3032  0.7378
   16SAPS   H2R 2022   5.670   6.809   7.084 -2.7362 -0.7550 -1.3891
   16SAPS   H2S 2023   5.790   6.933   7.015 -0.2039 -1.0274  0.7544
   16SAPS    C3 2024   5.296   6.752   6.854  1.1137 -0.4134 -0.0080
   16SAPS    HX 2025   5.327   6.653   6.815 -2.0914 -0.7413 -1.8852
   16SAPS    HY 2026   5.209   6.797   6.801  0.0765 -0.5198  1.5593
   16SAPS   O31 2027   5.261   6.735   6.996  0.1461  0.1574  0.0587
   16SAPS   C31 2028   5.212   6.842   7.053 -0.1733  0.1896  0.4250
   16SAPS   O32 2029   5.202   6.955   7.007 -0.7527 -0.4296  0.3408
   16SAPS   C32 2030   5.168   6.810   7.198  0.1314  0.2923  0.1982
   16SAPS   H2X 2031   5.224   6.724   7.240  0.3788 -0.0904 -0.8969
   16SAPS   H2Y 2032   5.059   6.792   7.187 -0.0736  1.0937  0.8887
   16SAPS   C23 2033   5.654   7.024   7.159  0.5645 -0.6363  0.8754
   16SAPS   H3R 2034   5.574   6.978   7.220 -0.5990  1.0238  0.6261
   16SAPS   H3S 2035   5.610   7.110   7.103  0.9459 -0.8182  0.2877
   16SAPS   C24 2036   5.777   7.041   7.239  0.7164 -0.5630  0.5078
   16SAPS   H4R 2037   5.872   7.037   7.182 -0.2391 -0.6031 -1.1180
   16SAPS   H4S 2038   5.797   6.959   7.311 -2.0728  0.2066  2.2360
   16SAPS   C25 2039   5.768   7.171   7.317 -0.0569 -0.2558  0.3859
   16SAPS   H5R 2040   5.795   7.261   7.259  2.6419 -0.2164  1.6400
   16SAPS   C26 2041   5.748   7.181   7.447 -0.1431 -0.3871 -0.7923
   16SAPS   H6R 2042   5.760   7.280   7.495 -0.2983 -0.4828 -0.5530
   16SAPS   C27 2043   5.726   7.066   7.540 -0.6138 -0.7489  0.8405
   16SAPS   H7R 2044   5.787   7.099   7.627  0.6362 -0.9677  0.0590
   16SAPS   H7S 2045   5.768   6.969   7.507 -2.0160 -1.2680  0.5490
   16SAPS   C28 2046   5.581   7.046   7.583  0.3353 -0.3834  0.4489
   16SAPS   H8R 2047   5.504   7.074   7.511  1.9934  3.0394 -0.0833
   16SAPS   C29 2048   5.541   7.019   7.710  0.4755  0.2024 -0.7506
   16SAPS   H9R 2049   5.434   7.019   7.737  0.7138 -0.5229  0.1666
   16SAPS  C210 2050   5.632   6.998   7.828 -0.7745 -0.0098  0.5383
   16SAPS  H10R 2051   5.646   7.096   7.879 -0.9059  0.6084 -0.6023
   16SAPS  H10S 2052   5.729   6.968   7.783 -0.2016  0.7176  1.2651
   16SAPS  C211 2053   5.581   6.901   7.926 -0.2416  0.1016  0.5200
   16SAPS  H11R 2054   5.527   6.815   7.885  0.9339 -0.3888 -0.0248
   16SAPS  C212 2055   5.581   6.914   8.061  0.6169 -0.3062 -0.1085
   16SAPS  H12R 2056   5.539   6.829   8.116 -0.6090  0.6209  0.3931
   16SAPS  C213 2057   5.635   7.030   8.137  0.3720  0.2242 -0.9517
   16SAPS  H13R 2058   5.628   7.122   8.074 -0.7635  1.3103  0.7075
   16SAPS  H13S 2059   5.744   7.029   8.156  0.3882 -0.8895 -1.0955
   16SAPS  C214 2060   5.548   7.050   8.261  0.2954  0.2701  0.4321
   16SAPS  H14R 2061   5.448   7.093   8.243 -0.8272 -2.2383  0.4904
   16SAPS  C215 2062   5.581   7.015   8.386 -0.6153  0.2733  0.0118
   16SAPS  H15R 2063   5.512   7.046   8.466 -0.9436 -0.1104 -0.1198
   16SAPS  C216 2064   5.706   6.935   8.422 -0.4569  0.3213 -0.0592
   16SAPS  H16R 2065   5.782   6.946   8.342  0.8141  2.1633  1.3533
   16SAPS  H16S 2066   5.673   6.830   8.435 -0.8081  0.3457 -0.7249
   16SAPS  C217 2067   5.766   6.975   8.560 -0.2225 -0.0898 -0.3900
   16SAPS  H17R 2068   5.790   7.083   8.552 -2.3338  0.3586 -0.8962
   16SAPS  H17S 2069   5.847   6.904   8.587 -0.5445  0.1772  1.3667
   16SAPS  C218 2070   5.671   6.952   8.674 -1.1407  0.0540 -0.6767
   16SAPS  H18R 2071   5.648   6.843   8.682 -1.4623  0.1794  0.1141
   16SAPS  H18S 2072   5.575   7.009   8.669  0.1243  2.1673 -1.3899
   16SAPS  C219 2073   5.742   6.987   8.810  0.5125  0.2743  0.2458
   16SAPS  H19R 2074   5.776   7.091   8.790  1.0592  0.1784  0.6681
   16SAPS  H19S 2075   5.827   6.916   8.824  0.0482 -0.4162 -0.4318
   16SAPS  C220 2076   5.650   6.988   8.925  0.0672 -0.7980  0.9683
   16SAPS  H20R 2077   5.545   7.008   8.895 -0.2508 -0.8249  2.0522
   16SAPS  H20S 2078   5.667   7.059   9.009 -1.4942 -1.5882  1.9687
   16SAPS  H20T 2079   5.644   6.886   8.969 -1.0669 -0.7942  0.8162
   16SAPS   C33 2080   5.194   6.942   7.285 -1.0651 -0.3784  0.5034
   16SAPS   H3X 2081   5.165   7.033   7.229  0.9169 -0.7034 -1.1118
   16SAPS   H3Y 2082   5.305   6.947   7.298 -1.1444 -0.4271  1.2340
   16SAPS   C34 2083   5.132   6.930   7.422  0.3244 -0.6847  0.1722
   16SAPS   H4X 2084   5.175   6.849   7.484  2.4554  0.8232  0.7002
   16SAPS   H4Y 2085   5.025   6.905   7.402 -0.2161  0.9656  0.9259
   16SAPS   C35 2086   5.139   7.056   7.505  0.5893  0.6606  0.0409
   16SAPS   H5X 2087   5.081   7.134   7.451 -2.0765 -0.5498  1.0574
   16SAPS   H5Y 2088   5.244   7.091   7.506  0.3690  1.3760 -1.0270
   16SAPS   C36 2089   5.081   7.040   7.648 -0.1107  0.1149  0.3626
   16SAPS   H6X 2090   5.151   6.981   7.712 -2.5003 -3.1251  0.1104
   16SAPS   H6Y 2091   4.988   6.980   7.642  0.6470 -1.0594  0.0409
   16SAPS   C37 2092   5.071   7.173   7.715  0.4174  0.6147 -0.1029
   16SAPS   H7X 2093   4.998   7.223   7.648 -2.4890 -2.2736  0.7751
   16SAPS   H7Y 2094   5.166   7.230   7.704  0.7413 -0.2885 -2.3419
   16SAPS   C38 2095   5.019   7.170   7.859 -0.5854 -0.1228 -0.5789
   16SAPS   H8X 2096   5.106   7.137   7.921 -0.4265 -0.0776 -0.7769
   16SAPS   H8Y 2097   4.925   7.113   7.876 -0.7629 -0.6065 -3.0670
   16SAPS   C39 2098   5.000   7.315   7.918 -0.1470 -0.0048 -0.1901
   16SAPS   H9X 2099   4.943   7.363   7.835  2.4696  2.6939 -0.5334
   16SAPS   H9Y 2100   5.091   7.378   7.917 -1.4702  2.2052  4.3463
   16SAPS  C310 2101   4.933   7.323   8.055 -0.0525  0.2591  0.5982
   16SAPS  H10X 2102   4.989   7.256   8.124  0.8731 -0.3410 -0.7311
   16SAPS  H10Y 2103   4.831   7.281   8.065 -0.1966  0.9807  2.6362
   16SAPS  C311 2104   4.899   7.468   8.093 -0.0395  0.2741 -0.3834
   16SAPS  H11X 2105   4.816   7.465   8.166  0.4773  0.1389  0.2051
   16SAPS  H11Y 2106   4.858   7.531   8.010  1.1852  2.8366  0.8904
   16SAPS  C312 2107   5.024   7.538   8.151  0.1195  0.1936  0.1947
   16SAPS  H12X 2108   5.093   7.573   8.071 -1.9704  1.2269 -1.1919
   16SAPS  H12Y 2109   5.088   7.467   8.207  0.1921 -1.5832 -2.0991
   16SAPS  C313 2110   4.992   7.660   8.242 -1.3074  0.4627  0.1406
   16SAPS  H13X 2111   5.089   7.714   8.237 -0.6537 -0.5886  1.2739
   16SAPS  H13Y 2112   4.982   7.629   8.348  0.5480  1.3116  0.5981
   16SAPS  C314 2113   4.867   7.742   8.210  0.2026 -0.6755  0.3730
   16SAPS  H14X 2114   4.782   7.678   8.241  0.1741  0.6700  3.2503
   16SAPS  H14Y 2115   4.872   7.784   8.107  0.3376  1.6414  1.2810
   16SAPS  C315 2116   4.862   7.863   8.309  0.3934 -0.2931 -0.3204
   16SAPS  H15X 2117   4.935   7.946   8.294 -0.1336  0.2346  0.0150
   16SAPS  H15Y 2118   4.879   7.832   8.415  2.3892  0.0765 -0.5084
   16SAPS  C316 2119   4.717   7.913   8.288 -0.1747 -0.2935  0.2061
   16SAPS  H16X 2120   4.648   7.835   8.325 -0.2777  0.4279  1.5585
   16SAPS  H16Y 2121   4.695   7.925   8.180  1.6796 -0.3110 -0.1871
   16SAPS  C317 2122   4.699   8.036   8.367  0.4368 -0.3635 -0.4974
   16SAPS  H17X 2123   4.781   8.106   8.342  1.0581 -1.4118 -1.4608
   16SAPS  H17Y 2124   4.709   8.014   8.476 -1.5722  0.4048 -0.1364
   16SAPS  C318 2125   4.569   8.103   8.335 -0.1969 -0.5574  0.1963
   16SAPS  H18X 2126   4.482   8.035   8.343  0.1498 -1.2988 -1.9449
   16SAPS  H18Y 2127   4.574   8.160   8.240  0.4769 -1.3879 -0.2736
   16SAPS  H18Z 2128   4.549   8.175   8.417  1.0096 -1.4526  1.3057
   17SAPC     N 2129   2.914   3.777  10.527 -0.2782  0.5500  0.1866
   17SAPC   C12 2130   2.860   3.802  10.393 -0.0163  0.3302  0.6770
   17SAPC  H12A 2131   2.939   3.819  10.320 -0.6903  0.0345 -0.1323
   17SAPC  H12B 2132   2.802   3.894  10.389  0.9511  0.8872 -1.2276
   17SAPC   C13 2133   2.797   3.791  10.622 -0.3951  0.5269 -0.4730
   17SAPC  H13A 2134   2.825   3.743  10.715 -0.0542 -3.1135 -2.3564
   17SAPC  H13B 2135   2.762   3.892  10.635 -0.3618  0.2148  2.4350
   17SAPC  H13C 2136   2.718   3.732  10.578 -0.2155 -0.1453  0.0860
   17SAPC   C14 2137   2.972   3.637  10.535  0.3536 -0.3342 -0.3252
   17SAPC  H14A 2138   2.891   3.568  10.515 -0.5237  0.6772 -0.3764
   17SAPC  H14B 2139   3.056   3.620  10.470  1.6193  1.2391  0.8617
   17SAPC  H14C 2140   3.013   3.607  10.630 -0.0018 -0.6344 -0.2647
   17SAPC   C15 2141   3.019   3.879  10.570  0.3542  0.4057 -0.0333
   17SAPC  H15A 2142   3.048   3.865  10.673 -0.2429  1.6639  0.3126
   17SAPC  H15B 2143   3.104   3.862  10.505 -0.3732  1.1478 -1.1897
   17SAPC  H15C 2144   2.973   3.976  10.574  0.6695  0.5004  1.5476
   17SAPC   C11 2145   2.777   3.692  10.325 -0.1648  0.4960  0.3695
   17SAPC  H11A 2146   2.838   3.599  10.322 -1.7312 -0.5837  1.2563
   17SAPC  H11B 2147   2.738   3.717  10.224 -0.5195  4.0391  1.3335
   17SAPC     P 2148   2.518   3.720  10.367 -0.3372  0.5429  0.0159
   17SAPC   O13 2149   2.420   3.648  10.453  0.2149  0.0880  0.3450
   17SAPC   O14 2150   2.533   3.866  10.381  0.0582 -0.2649 -0.4564
   17SAPC   O12 2151   2.659   3.668  10.400 -0.1567 -0.2425 -0.1756
   17SAPC   O11 2152   2.498   3.690  10.211  0.2808 -0.6566  0.5590
   17SAPC    C1 2153   2.497   3.554  10.162 -0.2040 -0.4407  0.0070
   17SAPC    HA 2154   2.603   3.527  10.142  0.5448  0.5571  2.5305
   17SAPC    HB 2155   2.456   3.476  10.230  0.7630  0.0267  1.1164
   17SAPC    C2 2156   2.403   3.536  10.033 -1.0744  0.2135 -0.0381
   17SAPC    HS 2157   2.397   3.430  10.001  0.8891  0.0685 -0.0232
   17SAPC   O21 2158   2.472   3.618   9.932  0.0827  0.1103  0.7197
   17SAPC   C21 2159   2.583   3.564   9.882  0.2140  0.1918  0.3447
   17SAPC   O22 2160   2.630   3.457   9.912  0.0808  0.0260  0.1545
   17SAPC   C22 2161   2.645   3.664   9.788 -0.6564 -0.0034  1.3350
   17SAPC   H2R 2162   2.647   3.761   9.842 -1.3792  1.1750 -0.6990
   17SAPC   H2S 2163   2.750   3.632   9.769 -1.0953 -1.1531  0.7621
   17SAPC    C3 2164   2.266   3.586  10.065 -0.0563 -0.5963 -0.4488
   17SAPC    HX 2165   2.272   3.692  10.099  0.4412 -0.9545  0.5972
   17SAPC    HY 2166   2.219   3.527  10.146 -0.1954 -1.4115 -1.1262
   17SAPC   O31 2167   2.185   3.579   9.946 -0.1538 -0.0542  0.7658
   17SAPC   C31 2168   2.168   3.687   9.874  0.4725  0.1946  0.4739
   17SAPC   O32 2169   2.198   3.800   9.906  0.3813 -0.3067  0.4432
   17SAPC   C32 2170   2.078   3.649   9.765  0.4845 -0.4738 -0.1749
   17SAPC   H2X 2171   1.977   3.694   9.780  0.5992 -1.2099  3.0484
   17SAPC   H2Y 2172   2.051   3.542   9.766 -2.1322  0.1407  1.3926
   17SAPC   C23 2173   2.565   3.676   9.661  0.2953  0.2089 -0.3020
   17SAPC   H3R 2174   2.598   3.757   9.592 -0.6088  1.4371  0.6904
   17SAPC   H3S 2175   2.454   3.686   9.667  0.2728 -0.3181  0.1178
   17SAPC   C24 2176   2.595   3.548   9.573  0.5773 -0.7117 -0.2315
   17SAPC   H4R 2177   2.513   3.554   9.498 -1.1933  0.6073  1.7814
   17SAPC   H4S 2178   2.555   3.455   9.620  1.8216 -1.0983  0.0980
   17SAPC   C25 2179   2.728   3.540   9.510  0.6295 -0.3454 -0.5162
   17SAPC   H5R 2180   2.740   3.617   9.432 -0.1156  1.1352  0.8049
   17SAPC   C26 2181   2.815   3.434   9.524 -0.1915 -0.6259  0.0707
   17SAPC   H6R 2182   2.911   3.430   9.470 -0.7140 -1.0370 -0.8368
   17SAPC   C27 2183   2.791   3.320   9.624  0.1280  0.9829 -0.1702
   17SAPC   H7R 2184   2.729   3.241   9.577 -1.6802  1.4860  1.2884
   17SAPC   H7S 2185   2.745   3.363   9.715 -1.9157  2.4191 -1.8195
   17SAPC   C28 2186   2.911   3.247   9.680  0.1295  0.0846 -0.2285
   17SAPC   H8R 2187   2.935   3.266   9.786 -1.8490 -0.1963  0.2933
   17SAPC   C29 2188   2.978   3.143   9.619  0.2436 -0.3636  0.4965
   17SAPC   H9R 2189   3.051   3.091   9.684  0.3285 -0.2901  0.4599
   17SAPC  C210 2190   2.965   3.092   9.477 -0.3538  0.9090  0.4532
   17SAPC  H10R 2191   2.859   3.098   9.444  0.0752  1.0897 -0.9472
   17SAPC  H10S 2192   2.994   2.986   9.493 -1.2216  0.2527 -2.0558
   17SAPC  C211 2193   3.044   3.155   9.366 -0.1649 -0.4757  0.2413
   17SAPC  H11R 2194   3.148   3.172   9.399  0.2120  1.1022 -1.7048
   17SAPC  C212 2195   3.007   3.161   9.238  0.4929 -0.3800 -0.9272
   17SAPC  H12R 2196   3.075   3.218   9.173  0.8807  0.9835  0.6463
   17SAPC  C213 2197   2.871   3.145   9.184  0.1289  0.1088 -0.2611
   17SAPC  H13R 2198   2.792   3.202   9.239  1.1555  0.2350  1.1193
   17SAPC  H13S 2199   2.836   3.042   9.209 -0.1782  1.0256  3.4105
   17SAPC  C214 2200   2.866   3.172   9.031  0.4890 -0.0510 -0.4277
   17SAPC  H14R 2201   2.852   3.079   8.975  0.0592  0.0759 -0.5323
   17SAPC  C215 2202   2.869   3.296   8.974 -0.1067  0.1518 -0.2818
   17SAPC  H15R 2203   2.851   3.313   8.867  2.3152  3.0626 -0.2768
   17SAPC  C216 2204   2.885   3.425   9.043  0.2068 -0.1009 -0.3159
   17SAPC  H16R 2205   2.954   3.499   8.996  1.7303 -1.1577  0.2161
   17SAPC  H16S 2206   2.936   3.424   9.141 -0.5888  1.2541  0.1258
   17SAPC  C217 2207   2.752   3.505   9.078 -0.5384 -0.4264  0.6087
   17SAPC  H17R 2208   2.689   3.432   9.135 -2.1452 -1.9960 -3.0210
   17SAPC  H17S 2209   2.703   3.531   8.982 -0.5119  0.0639  0.7272
   17SAPC  C218 2210   2.778   3.628   9.171 -0.4524  0.4736 -0.0367
   17SAPC  H18R 2211   2.871   3.678   9.135  0.7312 -2.2146 -0.9015
   17SAPC  H18S 2212   2.818   3.593   9.269  1.4410  0.8609 -0.6432
   17SAPC  C219 2213   2.658   3.717   9.184  0.5956  0.0242  0.1982
   17SAPC  H19R 2214   2.645   3.775   9.090 -0.1494  0.7643  0.7384
   17SAPC  H19S 2215   2.671   3.801   9.256  2.9134 -1.0614  1.0814
   17SAPC  C220 2216   2.522   3.643   9.194  0.0141  0.6417 -0.2466
   17SAPC  H20R 2217   2.436   3.704   9.229  0.6477  0.1806  2.1989
   17SAPC  H20S 2218   2.536   3.566   9.272  0.0184  0.2587 -0.6252
   17SAPC  H20T 2219   2.491   3.595   9.099  0.8612  1.2136 -0.8146
   17SAPC   C33 2220   2.128   3.673   9.618 -0.6308 -0.6455  0.1414
   17SAPC   H3X 2221   2.191   3.764   9.609  0.7349 -1.5559  0.3860
   17SAPC   H3Y 2222   2.034   3.709   9.570 -0.2471  2.1416  1.3824
   17SAPC   C34 2223   2.184   3.545   9.558 -0.0679  0.6055 -0.2194
   17SAPC   H4X 2224   2.114   3.462   9.533 -1.6217  1.6284  0.6260
   17SAPC   H4Y 2225   2.259   3.497   9.624 -0.6812 -0.2017 -0.1041
   17SAPC   C35 2226   2.254   3.568   9.418 -0.2649 -0.0194  0.7235
   17SAPC   H5X 2227   2.291   3.475   9.371  0.4206  1.0762 -0.9459
   17SAPC   H5Y 2228   2.335   3.641   9.441  0.4802 -0.0498 -1.6891
   17SAPC   C36 2229   2.168   3.644   9.309 -0.2620  0.8573 -0.3879
   17SAPC   H6X 2230   2.238   3.661   9.224  0.2209 -0.3172 -0.2384
   17SAPC   H6Y 2231   2.134   3.744   9.343 -2.5502  0.0992 -0.3484
   17SAPC   C37 2232   2.046   3.564   9.278 -0.3124  0.3623  0.0647
   17SAPC   H7X 2233   1.980   3.636   9.226 -1.6142 -0.5775  0.3792
   17SAPC   H7Y 2234   1.991   3.536   9.370 -0.2728  2.9466  0.9208
   17SAPC   C38 2235   2.062   3.436   9.192 -0.1983  0.2334 -1.2967
   17SAPC   H8X 2236   1.961   3.400   9.163 -1.1144  1.8933 -0.1728
   17SAPC   H8Y 2237   2.119   3.371   9.263 -1.3531  2.2988  1.6064
   17SAPC   C39 2238   2.144   3.453   9.060  0.0574 -0.3580 -1.0347
   17SAPC   H9X 2239   2.129   3.357   9.006 -0.9044  0.1913 -1.7715
   17SAPC   H9Y 2240   2.252   3.451   9.084 -0.0253  0.7190 -0.5723
   17SAPC  C310 2241   2.113   3.573   8.970  0.2416 -0.2149  0.1947
   17SAPC  H10X 2242   2.140   3.670   9.017 -1.9352  1.2230 -1.4208
   17SAPC  H10Y 2243   2.005   3.580   8.945  0.1393 -1.8954  0.1236
   17SAPC  C311 2244   2.189   3.561   8.832  0.4024  0.0497 -0.5536
   17SAPC  H11X 2245   2.157   3.467   8.783 -0.2797  0.6983 -1.3558
   17SAPC  H11Y 2246   2.298   3.555   8.854  0.3330 -0.0114 -0.2243
   17SAPC  C312 2247   2.159   3.688   8.746  0.1699  0.5360 -0.0260
   17SAPC  H12X 2248   2.184   3.775   8.810 -1.4861  1.0731 -0.0806
   17SAPC  H12Y 2249   2.048   3.697   8.739 -0.3323 -2.5868  2.7598
   17SAPC  C313 2250   2.238   3.706   8.612 -0.2797 -0.1217 -0.4799
   17SAPC  H13X 2251   2.219   3.813   8.588 -1.7202 -0.6464 -1.6970
   17SAPC  H13Y 2252   2.192   3.644   8.533  3.3823 -0.2939 -2.6178
   17SAPC  C314 2253   2.389   3.687   8.621 -0.5035  0.2472  0.5158
   17SAPC  H14X 2254   2.440   3.729   8.532 -0.9674  1.8561  0.9847
   17SAPC  H14Y 2255   2.403   3.578   8.636 -2.2765 -0.1568 -0.5581
   17SAPC  C315 2256   2.459   3.769   8.730 -0.5704  0.1972 -0.3292
   17SAPC  H15X 2257   2.405   3.762   8.827 -1.4552  0.4087 -0.7943
   17SAPC  H15Y 2258   2.463   3.874   8.694 -0.8327  0.7900  1.3558
   17SAPC  C316 2259   2.609   3.722   8.755 -0.9347 -0.0588 -0.3507
   17SAPC  H16X 2260   2.611   3.618   8.795  0.1239 -0.0743 -0.4178
   17SAPC  H16Y 2261   2.645   3.779   8.843 -0.7310  0.3939 -0.7289
   17SAPC  C317 2262   2.709   3.727   8.641  0.3293 -0.2292  0.7144
   17SAPC  H17X 2263   2.665   3.813   8.586 -1.1970 -1.8104 -0.5918
   17SAPC  H17Y 2264   2.694   3.635   8.581 -0.2521 -0.1522  0.7411
   17SAPC  C318 2265   2.858   3.728   8.678  0.0152 -0.1882  0.4812
   17SAPC  H18X 2266   2.893   3.809   8.745  0.1242 -0.8143  1.1840
   17SAPC  H18Y 2267   2.883   3.638   8.738 -0.5011 -0.7758 -0.1693
   17SAPC  H18Z 2268   2.919   3.718   8.585 -1.0075  1.4791 -0.4004
   18SAPC     N 2269   3.755   2.408  10.654  0.4661 -0.3213  0.6369
   18SAPC   C12 2270   3.607   2.429  10.649 -0.0066 -0.3713  0.6258
   18SAPC  H12A 2271   3.581   2.459  10.750  2.3712 -2.4333  1.8938
   18SAPC  H12B 2272   3.557   2.333  10.641  2.4624 -1.6502  0.1298
   18SAPC   C13 2273   3.827   2.541  10.684  0.0956  0.0589 -0.4747
   18SAPC  H13A 2274   3.930   2.520  10.659  0.2484 -1.4244  1.2855
   18SAPC  H13B 2275   3.784   2.621  10.626  1.5668  0.3045 -1.2299
   18SAPC  H13C 2276   3.814   2.554  10.791  1.6436 -2.7828  0.1074
   18SAPC   C14 2277   3.800   2.314  10.759  0.4084  0.1569  0.0046
   18SAPC  H14A 2278   3.761   2.215  10.741 -3.0963  1.6267 -0.7935
   18SAPC  H14B 2279   3.908   2.317  10.765  0.3626  1.0125  0.5096
   18SAPC  H14C 2280   3.763   2.342  10.857 -1.0173 -1.2104 -0.1401
   18SAPC   C15 2281   3.792   2.364  10.514 -0.3264  0.2688  0.3574
   18SAPC  H15A 2282   3.743   2.270  10.492  0.3675 -0.0829  0.2956
   18SAPC  H15B 2283   3.751   2.431  10.440 -0.7774 -0.3620  0.0267
   18SAPC  H15C 2284   3.899   2.358  10.502 -0.2726  0.0525  0.9285
   18SAPC   C11 2285   3.549   2.535  10.548 -0.4514 -0.5299 -0.7608
   18SAPC  H11A 2286   3.438   2.528  10.554 -0.3701 -1.3613 -0.1664
   18SAPC  H11B 2287   3.571   2.512  10.441  0.2596 -0.4799 -0.6267
   18SAPC     P 2288   3.514   2.765  10.666 -0.0581  0.1795  0.2834
   18SAPC   O13 2289   3.380   2.714  10.689  0.1571  0.2283 -0.3355
   18SAPC   O14 2290   3.585   2.815  10.778  0.4188 -0.2271  0.0433
   18SAPC   O12 2291   3.596   2.669  10.571  0.4937 -0.0629 -0.0930
   18SAPC   O11 2292   3.490   2.893  10.573 -0.1264  0.7905 -0.0283
   18SAPC    C1 2293   3.471   2.867  10.432 -0.5041  0.5349  0.2724
   18SAPC    HA 2294   3.497   2.766  10.394  1.7518  1.1471  0.1098
   18SAPC    HB 2295   3.364   2.878  10.402 -0.3285 -1.4091 -1.2051
   18SAPC    C2 2296   3.573   2.948  10.349 -0.2880  0.1431  0.9796
   18SAPC    HS 2297   3.661   2.966  10.413  0.8159  0.0317 -0.4934
   18SAPC   O21 2298   3.514   3.069  10.304 -0.2207 -0.4654 -0.2807
   18SAPC   C21 2299   3.499   3.159  10.396 -0.2250 -0.0178  0.8366
   18SAPC   O22 2300   3.539   3.155  10.513  0.0783  0.2831  0.1809
   18SAPC   C22 2301   3.424   3.283  10.334 -0.1747  0.4995 -0.0193
   18SAPC   H2R 2302   3.315   3.264  10.323 -0.5511  2.4721  0.1232
   18SAPC   H2S 2303   3.431   3.362  10.412  1.0692 -0.3966  0.8095
   18SAPC    C3 2304   3.613   2.884  10.210  0.4971 -0.3112 -0.7572
   18SAPC    HX 2305   3.661   2.950  10.135 -0.4908 -0.3065 -1.3921
   18SAPC    HY 2306   3.523   2.856  10.152 -0.5390  1.2801  0.0511
   18SAPC   O31 2307   3.682   2.753  10.221 -0.0032 -0.2729 -0.3452
   18SAPC   C31 2308   3.809   2.763  10.224 -0.3214  0.2797  0.5158
   18SAPC   O32 2309   3.873   2.869  10.227  0.3225  0.1165 -0.3241
   18SAPC   C32 2310   3.876   2.627  10.243 -0.2045  0.2849 -0.2723
   18SAPC   H2X 2311   3.861   2.591  10.347  0.8125 -1.9090 -0.8524
   18SAPC   H2Y 2312   3.981   2.646  10.212 -0.5592 -0.4253 -1.9752
   18SAPC   C23 2313   3.474   3.318  10.191 -0.1374 -0.7272 -0.4583
   18SAPC   H3R 2314   3.406   3.400  10.160 -1.2644 -1.8793 -1.0897
   18SAPC   H3S 2315   3.454   3.235  10.120  0.6934 -1.6123  0.3199
   18SAPC   C24 2316   3.619   3.376  10.184  0.1392  0.0690 -0.2775
   18SAPC   H4R 2317   3.623   3.441  10.274  1.2802  1.9799 -1.6605
   18SAPC   H4S 2318   3.626   3.440  10.093 -2.8172  1.3700  0.3452
   18SAPC   C25 2319   3.736   3.278  10.190  0.0692  0.0985  0.0557
   18SAPC   H5R 2320   3.771   3.266  10.294 -0.7122  2.4657  0.6263
   18SAPC   C26 2321   3.810   3.221  10.093  1.1474 -0.3370  0.2429
   18SAPC   H6R 2322   3.880   3.141  10.119 -1.0703 -2.9677 -1.6452
   18SAPC   C27 2323   3.797   3.240   9.949  0.1586 -0.2410  0.6190
   18SAPC   H7R 2324   3.879   3.307   9.913  0.8437 -1.3325  0.1346
   18SAPC   H7S 2325   3.707   3.298   9.919  1.3598  0.2513 -2.2249
   18SAPC   C28 2326   3.813   3.115   9.868  0.1730  0.4807  0.7015
   18SAPC   H8R 2327   3.877   3.034   9.905  0.5951  1.2327  1.6249
   18SAPC   C29 2328   3.744   3.097   9.751  0.8819 -0.6330 -0.2353
   18SAPC   H9R 2329   3.769   3.010   9.688 -1.3441 -0.8526 -0.8449
   18SAPC  C210 2330   3.644   3.188   9.693  0.1181  0.1430 -0.0854
   18SAPC  H10R 2331   3.592   3.263   9.757  0.6856  2.6498 -2.4535
   18SAPC  H10S 2332   3.558   3.120   9.676 -0.1424  0.0974  1.3374
   18SAPC  C211 2333   3.677   3.253   9.559  0.5458  0.0463  0.4416
   18SAPC  H11R 2334   3.736   3.345   9.569 -0.6756  0.6810  2.0825
   18SAPC  C212 2335   3.630   3.208   9.436 -0.3490 -0.5268  0.0494
   18SAPC  H12R 2336   3.658   3.253   9.340  0.4493  0.1821  0.6149
   18SAPC  C213 2337   3.537   3.086   9.416 -0.4768  0.1026  0.7830
   18SAPC  H13R 2338   3.485   3.085   9.318  0.5337 -0.1028  0.2405
   18SAPC  H13S 2339   3.451   3.097   9.485  1.3737 -0.3193  3.2327
   18SAPC  C214 2340   3.603   2.954   9.439  0.5750 -0.3498 -0.7175
   18SAPC  H14R 2341   3.674   2.961   9.523 -0.2193  1.3977 -0.1734
   18SAPC  C215 2342   3.589   2.839   9.368 -0.2111 -0.5285 -0.8550
   18SAPC  H15R 2343   3.639   2.744   9.390 -0.2147 -0.8294 -2.0865
   18SAPC  C216 2344   3.488   2.831   9.256  0.5022  0.1729  0.4946
   18SAPC  H16R 2345   3.529   2.764   9.177 -0.7391 -0.5518  0.4493
   18SAPC  H16S 2346   3.461   2.924   9.202  2.3523 -0.1962 -1.1164
   18SAPC  C217 2347   3.344   2.786   9.288  0.0978  0.1077 -0.9535
   18SAPC  H17R 2348   3.284   2.855   9.351  2.4871  1.1587  0.2043
   18SAPC  H17S 2349   3.333   2.690   9.343  0.3269  1.3860  1.4080
   18SAPC  C218 2350   3.266   2.760   9.154  0.3947  0.3135 -0.1490
   18SAPC  H18R 2351   3.163   2.725   9.179  0.2878 -0.8902 -2.1877
   18SAPC  H18S 2352   3.309   2.673   9.101 -0.6663 -0.1057 -0.3394
   18SAPC  C219 2353   3.247   2.883   9.060 -0.4480  0.0045  0.3123
   18SAPC  H19R 2354   3.337   2.914   9.002 -0.2575 -0.4068  0.3776
   18SAPC  H19S 2355   3.207   2.968   9.119  1.3542  1.3631 -0.3791
   18SAPC  C220 2356   3.139   2.866   8.948  0.4777 -0.1747  0.1822
   18SAPC  H20R 2357   3.089   2.962   8.925 -0.7394 -0.1211  2.8249
   18SAPC  H20S 2358   3.064   2.798   8.994 -1.1146 -0.8401 -3.2528
   18SAPC  H20T 2359   3.191   2.828   8.858  0.4178  1.1544 -0.4165
   18SAPC   C33 2360   3.820   2.518  10.150  0.4131  0.5777  0.0819
   18SAPC   H3X 2361   3.713   2.493  10.165  0.9677 -1.7652  0.3800
   18SAPC   H3Y 2362   3.875   2.421  10.152 -0.0156  0.3425  0.5313
   18SAPC   C34 2363   3.831   2.566  10.000 -1.2301  0.6666 -0.5737
   18SAPC   H4X 2364   3.931   2.608   9.977 -0.8201  0.2139  0.3698
   18SAPC   H4Y 2365   3.768   2.650   9.963  0.1010  0.6332 -3.0593
   18SAPC   C35 2366   3.821   2.444   9.909 -0.0458  0.5318 -0.5185
   18SAPC   H5X 2367   3.729   2.391   9.941 -0.1540  1.4697  0.7470
   18SAPC   H5Y 2368   3.907   2.373   9.914 -1.1193 -0.7990 -0.5697
   18SAPC   C36 2369   3.802   2.485   9.759 -0.7330  0.1784 -0.1275
   18SAPC   H6X 2370   3.885   2.557   9.742 -1.8785  0.9863 -2.4815
   18SAPC   H6Y 2371   3.704   2.534   9.742 -0.1576  1.0355 -0.9822
   18SAPC   C37 2372   3.826   2.369   9.663  0.0841 -1.0017 -1.3296
   18SAPC   H7X 2373   3.748   2.297   9.696  0.2391  0.7537  3.2225
   18SAPC   H7Y 2374   3.918   2.313   9.691 -0.8961 -1.3277  1.4081
   18SAPC   C38 2375   3.827   2.407   9.516  0.2854  0.3203  0.2178
   18SAPC   H8X 2376   3.903   2.484   9.491 -0.4076  1.2669  0.9671
   18SAPC   H8Y 2377   3.730   2.463   9.513  0.2062  0.3038  2.0321
   18SAPC   C39 2378   3.816   2.298   9.411 -0.0072 -0.5538  0.0167
   18SAPC   H9X 2379   3.741   2.218   9.432  0.5500 -1.1542 -0.2600
   18SAPC   H9Y 2380   3.918   2.254   9.410 -0.0620 -0.9188  3.9032
   18SAPC  C310 2381   3.782   2.358   9.274 -0.7238  1.0872  0.9519
   18SAPC  H10X 2382   3.809   2.285   9.195 -1.4875  1.2037  0.5773
   18SAPC  H10Y 2383   3.840   2.452   9.261 -2.2925  1.9447 -0.1588
   18SAPC  C311 2384   3.634   2.394   9.269  0.2500 -0.2579  0.3257
   18SAPC  H11X 2385   3.623   2.487   9.328  0.9917  0.2072 -0.2603
   18SAPC  H11Y 2386   3.580   2.309   9.316  0.0874 -0.3750 -0.0725
   18SAPC  C312 2387   3.576   2.433   9.134  0.6115 -0.7762 -0.2881
   18SAPC  H12X 2388   3.636   2.525   9.114  0.6998 -0.9301 -0.7174
   18SAPC  H12Y 2389   3.468   2.459   9.138  1.2742  2.5455 -1.9175
   18SAPC  C313 2390   3.591   2.329   9.031  0.3211 -0.1738  0.7047
   18SAPC  H13X 2391   3.524   2.253   9.076  0.2318 -0.0271  0.8177
   18SAPC  H13Y 2392   3.686   2.272   9.032  0.8956  0.7067 -1.1292
   18SAPC  C314 2393   3.530   2.375   8.897  0.6106 -0.1568 -0.2271
   18SAPC  H14X 2394   3.451   2.451   8.917 -1.0025 -2.0140  0.5667
   18SAPC  H14Y 2395   3.481   2.282   8.861  0.2395 -0.7445  1.7468
   18SAPC  C315 2396   3.629   2.444   8.801 -0.1513 -0.4073  0.6058
   18SAPC  H15X 2397   3.692   2.526   8.840  2.6835  0.6770 -5.5134
   18SAPC  H15Y 2398   3.573   2.478   8.711 -0.8422 -1.4954  0.6067
   18SAPC  C316 2399   3.740   2.351   8.754  0.1968 -0.2627  0.1806
   18SAPC  H16X 2400   3.694   2.276   8.685 -1.1164  0.1383  0.6071
   18SAPC  H16Y 2401   3.782   2.303   8.845  0.0475  0.1579  0.4713
   18SAPC  C317 2402   3.859   2.423   8.690 -0.0520  0.7806 -0.1257
   18SAPC  H17X 2403   3.891   2.505   8.759 -1.2933 -1.1020  2.8061
   18SAPC  H17Y 2404   3.831   2.480   8.600 -3.4710  2.4894  1.9087
   18SAPC  C318 2405   3.984   2.333   8.677 -0.0957 -0.2047  0.3541
   18SAPC  H18X 2406   3.953   2.237   8.631 -2.3257  0.6918 -0.0663
   18SAPC  H18Y 2407   4.036   2.315   8.773 -1.5114  2.9811  1.7840
   18SAPC  H18Z 2408   4.062   2.376   8.611 -0.6894  0.0050 -0.2177
   19SAPC     N 2409   2.323   4.941  10.945  0.9125  0.1368 -0.4273
   19SAPC   C12 2410   2.361   5.083  10.907  0.0865 -0.8644  0.7393
   19SAPC  H12A 2411   2.445   5.089  10.839 -2.3174 -0.4213 -2.3005
   19SAPC  H12B 2412   2.385   5.129  11.001  0.7903 -1.5959  0.9249
   19SAPC   C13 2413   2.285   4.866  10.815  0.4015  0.5949  0.8477
   19SAPC  H13A 2414   2.374   4.858  10.755  0.2782 -1.5453  0.9041
   19SAPC  H13B 2415   2.237   4.775  10.847  1.1474 -0.9338 -2.2046
   19SAPC  H13C 2416   2.211   4.931  10.769 -1.3508 -0.2627  2.3823
   19SAPC   C14 2417   2.427   4.869  11.017  0.5116 -0.5259 -0.8482
   19SAPC  H14A 2418   2.429   4.915  11.116 -1.9119  0.9052 -1.4102
   19SAPC  H14B 2419   2.407   4.764  11.030 -1.3956  0.0441  1.3344
   19SAPC  H14C 2420   2.516   4.881  10.957 -0.4966  1.0347 -2.0805
   19SAPC   C15 2421   2.205   4.946  11.040 -0.0340  0.8356  0.1019
   19SAPC  H15A 2422   2.226   5.010  11.124  0.0361  0.6780  0.2048
   19SAPC  H15B 2423   2.123   4.996  10.990 -0.8747 -0.3906  0.2318
   19SAPC  H15C 2424   2.179   4.843  11.062 -2.0826  0.8078 -2.1713
   19SAPC   C11 2425   2.251   5.172  10.852  1.0064 -0.2975 -0.0024
   19SAPC  H11A 2426   2.278   5.280  10.850 -0.1145 -0.0113 -2.8207
   19SAPC  H11B 2427   2.168   5.160  10.925  1.5050  3.2030  1.2259
   19SAPC     P 2428   2.237   5.205  10.595  0.2897 -0.0339 -0.0705
   19SAPC   O13 2429   2.198   5.134  10.474 -0.0767  0.0385 -0.4677
   19SAPC   O14 2430   2.179   5.338  10.617  0.1371  0.2802  0.0287
   19SAPC   O12 2431   2.208   5.119  10.722  0.0972 -0.0907 -0.4851
   19SAPC   O11 2432   2.394   5.218  10.608 -0.1177 -0.6757  0.1129
   19SAPC    C1 2433   2.457   5.345  10.574 -0.2344 -0.1677 -0.0144
   19SAPC    HA 2434   2.393   5.429  10.606 -1.0578 -0.3318 -1.1960
   19SAPC    HB 2435   2.558   5.345  10.620  0.1755  0.9193 -0.9037
   19SAPC    C2 2436   2.488   5.363  10.427 -1.0767  0.6285 -0.4467
   19SAPC    HS 2437   2.540   5.461  10.421  0.9108 -0.3376  0.7115
   19SAPC   O21 2438   2.367   5.382  10.344 -0.3981 -0.0702  0.1163
   19SAPC   C21 2439   2.310   5.501  10.353 -0.0521  0.4752  0.8488
   19SAPC   O22 2440   2.352   5.588  10.425  0.3573 -0.4341 -0.1728
   19SAPC   C22 2441   2.185   5.498  10.261  0.2910 -0.6831  0.0699
   19SAPC   H2R 2442   2.204   5.523  10.154  1.4770  0.5022  0.5330
   19SAPC   H2S 2443   2.144   5.395  10.263 -1.7687  0.1138  0.4474
   19SAPC    C3 2444   2.569   5.237  10.368  0.0327 -0.0726 -0.2486
   19SAPC    HX 2445   2.512   5.142  10.376  0.0840 -0.4753 -3.7417
   19SAPC    HY 2446   2.655   5.226  10.438  1.9423  0.9173 -2.3703
   19SAPC   O31 2447   2.628   5.265  10.239  0.4266 -0.0809  0.6528
   19SAPC   C31 2448   2.565   5.206  10.138 -0.2479  0.0305  0.8758
   19SAPC   O32 2449   2.470   5.130  10.147  0.4838 -0.1423 -0.5442
   19SAPC   C32 2450   2.633   5.240  10.003  0.4843 -0.1511 -0.5936
   19SAPC   H2X 2451   2.738   5.255  10.036  0.3910 -2.0803  0.6669
   19SAPC   H2Y 2452   2.580   5.326   9.958 -0.0163  0.0098  0.3040
   19SAPC   C23 2453   2.081   5.608  10.305 -0.1866  0.5071 -0.6029
   19SAPC   H3R 2454   2.124   5.710  10.308  1.9035 -0.3856  0.7942
   19SAPC   H3S 2455   2.047   5.588  10.409  0.0417 -0.1348 -0.6487
   19SAPC   C24 2456   1.950   5.618  10.225 -0.1682  0.1238 -0.3857
   19SAPC   H4R 2457   1.983   5.643  10.122  0.1874  2.0884  0.1828
   19SAPC   H4S 2458   1.886   5.705  10.253  1.5248  1.0979  0.5034
   19SAPC   C25 2459   1.891   5.477  10.232 -0.1342 -0.7972 -0.3356
   19SAPC   H5R 2460   1.829   5.460  10.321  2.0063 -2.6271  0.8243
   19SAPC   C26 2461   1.902   5.386  10.131  0.0028  0.2057  0.0628
   19SAPC   H6R 2462   1.860   5.289  10.161  0.9331  0.5481  2.6549
   19SAPC   C27 2463   1.986   5.399  10.006  0.6149 -0.2317 -0.1996
   19SAPC   H7R 2464   2.059   5.317  10.022 -0.5903 -1.3531 -0.3509
   19SAPC   H7S 2465   2.048   5.491  10.006  0.9539 -0.4593 -0.1405
   19SAPC   C28 2466   1.911   5.394   9.877 -0.5044 -0.1670 -0.1865
   19SAPC   H8R 2467   1.803   5.370   9.873 -0.5128  0.1317 -2.6110
   19SAPC   C29 2468   1.972   5.398   9.756  0.0867 -0.2385 -0.2455
   19SAPC   H9R 2469   1.905   5.390   9.669  0.8747 -2.3365 -0.7034
   19SAPC  C210 2470   2.117   5.405   9.742 -0.4514 -0.4509 -0.2680
   19SAPC  H10R 2471   2.162   5.374   9.839 -2.4416  0.3457  0.9438
   19SAPC  H10S 2472   2.160   5.499   9.702  3.6086 -1.9440  0.3507
   19SAPC  C211 2473   2.165   5.292   9.653 -0.7545 -0.5099 -0.1218
   19SAPC  H11R 2474   2.183   5.196   9.703  2.1795 -0.2125 -0.4886
   19SAPC  C212 2475   2.198   5.306   9.522  0.5874  0.2869  0.4118
   19SAPC  H12R 2476   2.217   5.213   9.466  2.0873 -0.1854  1.6552
   19SAPC  C213 2477   2.180   5.434   9.450 -0.0958  0.5734  0.2232
   19SAPC  H13R 2478   2.264   5.500   9.481  0.5344 -1.0214  2.0382
   19SAPC  H13S 2479   2.087   5.479   9.489 -0.2131  1.3770 -0.9592
   19SAPC  C214 2480   2.179   5.428   9.302  0.1323  0.0897 -0.8077
   19SAPC  H14R 2481   2.275   5.444   9.251  0.2616  2.3124  0.0424
   19SAPC  C215 2482   2.073   5.436   9.221 -0.0498 -0.0824 -0.7946
   19SAPC  H15R 2483   2.089   5.426   9.112 -0.2331 -0.0117 -0.8289
   19SAPC  C216 2484   1.929   5.434   9.250  0.5571 -0.0547  0.1242
   19SAPC  H16R 2485   1.901   5.489   9.342 -1.2391 -0.4028 -0.1944
   19SAPC  H16S 2486   1.907   5.325   9.252  3.1975 -0.6058  1.3583
   19SAPC  C217 2487   1.833   5.498   9.146 -1.2304  0.4188  0.0377
   19SAPC  H17R 2488   1.858   5.602   9.118  0.3978 -0.3590 -1.4653
   19SAPC  H17S 2489   1.732   5.512   9.190 -1.8763  2.7058 -2.0424
   19SAPC  C218 2490   1.818   5.415   9.011  0.7873  0.3267  0.2827
   19SAPC  H18R 2491   1.789   5.310   9.034  0.6530  0.4421  0.6508
   19SAPC  H18S 2492   1.918   5.421   8.963 -0.5968 -0.8617 -2.8786
   19SAPC  C219 2493   1.727   5.480   8.906  0.7189  0.2047 -0.2410
   19SAPC  H19R 2494   1.745   5.588   8.920  0.4771  0.4283 -1.5719
   19SAPC  H19S 2495   1.620   5.459   8.927  0.1234  2.2733 -1.0425
   19SAPC  C220 2496   1.756   5.440   8.764 -0.9790  0.2688  0.0807
   19SAPC  H20R 2497   1.866   5.443   8.747 -1.0596  0.6643 -0.3697
   19SAPC  H20S 2498   1.715   5.516   8.694  2.4463  0.9986 -1.2094
   19SAPC  H20T 2499   1.732   5.332   8.756 -0.3890  0.1157  0.3306
   19SAPC   C33 2500   2.617   5.126   9.900 -0.4182 -0.3478  0.8499
   19SAPC   H3X 2501   2.514   5.086   9.895 -1.0853  1.6537 -2.5518
   19SAPC   H3Y 2502   2.676   5.038   9.933 -1.2017 -1.3708 -0.4481
   19SAPC   C34 2503   2.650   5.168   9.752 -0.0695  0.5623 -0.8329
   19SAPC   H4X 2504   2.659   5.072   9.696 -1.6701  1.3733 -2.5467
   19SAPC   H4Y 2505   2.757   5.199   9.752  0.6969 -1.9337 -2.0750
   19SAPC   C35 2506   2.559   5.267   9.680  0.3004  0.1182 -0.2681
   19SAPC   H5X 2507   2.533   5.349   9.751  0.4681  0.8677 -1.0672
   19SAPC   H5Y 2508   2.462   5.217   9.658  1.1525 -1.1835 -1.0749
   19SAPC   C36 2509   2.614   5.308   9.540 -0.3532 -0.2897 -0.9010
   19SAPC   H6X 2510   2.719   5.344   9.542 -0.2670 -0.5219 -1.1803
   19SAPC   H6Y 2511   2.562   5.404   9.519 -0.9883 -0.4093  0.0959
   19SAPC   C37 2512   2.604   5.203   9.425  0.4930  0.2668 -0.3114
   19SAPC   H7X 2513   2.504   5.157   9.411  1.3327 -1.0592 -2.1127
   19SAPC   H7Y 2514   2.672   5.117   9.439 -1.1271 -1.1068 -0.7647
   19SAPC   C38 2515   2.641   5.258   9.288 -0.1895 -0.0035 -0.1664
   19SAPC   H8X 2516   2.739   5.309   9.280 -0.7813  1.1047 -0.3806
   19SAPC   H8Y 2517   2.559   5.326   9.256 -0.3761  0.5735  1.4968
   19SAPC   C39 2518   2.642   5.145   9.195 -0.0279  0.3232  0.6320
   19SAPC   H9X 2519   2.533   5.122   9.188 -0.1215  0.7404  0.6826
   19SAPC   H9Y 2520   2.669   5.045   9.233 -2.4456 -0.4358  0.4715
   19SAPC  C310 2521   2.715   5.181   9.060  0.2467 -0.3895 -0.0719
   19SAPC  H10X 2522   2.825   5.180   9.076  0.1095  0.1320  0.9644
   19SAPC  H10Y 2523   2.686   5.286   9.037  1.4267 -0.3908 -1.6374
   19SAPC  C311 2524   2.684   5.089   8.941 -0.4917  0.5471 -0.3272
   19SAPC  H11X 2525   2.576   5.109   8.924 -0.6125  1.4031  1.2860
   19SAPC  H11Y 2526   2.684   4.984   8.979 -0.6565  0.3770 -0.8016
   19SAPC  C312 2527   2.773   5.108   8.826  0.3832 -0.1722  0.0170
   19SAPC  H12X 2528   2.878   5.095   8.861  0.9520  0.0045 -1.6242
   19SAPC  H12Y 2529   2.767   5.214   8.793 -1.0258 -0.4419 -0.6258
   19SAPC  C313 2530   2.759   5.020   8.705 -0.1467  0.0919 -0.1968
   19SAPC  H13X 2531   2.763   4.917   8.746 -0.8161  1.4285  3.3241
   19SAPC  H13Y 2532   2.857   5.047   8.659 -0.1431 -1.2274 -1.0136
   19SAPC  C314 2533   2.633   5.050   8.617 -0.4151  0.4542 -0.9891
   19SAPC  H14X 2534   2.610   5.157   8.630  0.2282  0.1904  2.6827
   19SAPC  H14Y 2535   2.548   4.991   8.657 -1.4365  2.4757 -0.1039
   19SAPC  C315 2536   2.657   5.031   8.464 -0.3613  0.7456 -0.1972
   19SAPC  H15X 2537   2.697   4.929   8.446 -1.0586  0.0152  2.1825
   19SAPC  H15Y 2538   2.730   5.111   8.438 -1.1425  1.9900  1.3297
   19SAPC  C316 2539   2.531   5.060   8.378 -0.2057 -0.0985 -0.3745
   19SAPC  H16X 2540   2.510   5.168   8.386 -0.8786 -0.0807 -2.3151
   19SAPC  H16Y 2541   2.435   5.016   8.414  1.0458 -2.6329 -0.0263
   19SAPC  C317 2542   2.564   5.019   8.236  0.0019 -0.0354  0.3165
   19SAPC  H17X 2543   2.593   4.913   8.253 -0.6633 -0.1605  0.6748
   19SAPC  H17Y 2544   2.650   5.074   8.192  3.2700 -3.9389  1.5020
   19SAPC  C318 2545   2.445   5.017   8.147 -0.0114  0.7059  0.7391
   19SAPC  H18X 2546   2.488   4.999   8.046  2.0535 -1.9369  2.0476
   19SAPC  H18Y 2547   2.380   5.107   8.147  0.7931  1.3049  0.0230
   19SAPC  H18Z 2548   2.385   4.930   8.181  0.2188  0.9816  1.8736
   20SAPC     N 2549   2.863   1.853  10.980 -0.0158 -0.8721 -0.1577
   20SAPC   C12 2550   2.721   1.878  10.928  0.0480 -0.5824 -0.6967
   20SAPC  H12A 2551   2.711   1.983  10.904  1.6192 -0.3515 -0.3715
   20SAPC  H12B 2552   2.643   1.842  10.994 -2.5183 -0.8169 -3.7621
   20SAPC   C13 2553   2.967   1.897  10.881 -0.1595 -0.7055 -0.4366
   20SAPC  H13A 2554   3.059   1.907  10.936  0.3583 -4.9826 -0.3646
   20SAPC  H13B 2555   2.963   1.828  10.799 -1.0815 -0.8826 -0.2497
   20SAPC  H13C 2556   2.924   1.988  10.841 -0.5741  0.6294  2.8583
   20SAPC   C14 2557   2.890   1.938  11.095 -0.3280 -0.0299 -0.0125
   20SAPC  H14A 2558   2.980   1.901  11.143  1.0462  0.9452 -1.7614
   20SAPC  H14B 2559   2.918   2.038  11.065  0.4313 -0.1663  0.2153
   20SAPC  H14C 2560   2.804   1.922  11.158 -0.2912  0.9818  0.3216
   20SAPC   C15 2561   2.879   1.707  10.995 -0.2591  0.0136  0.4948
   20SAPC  H15A 2562   2.978   1.683  11.032  0.3354 -0.4424 -1.3439
   20SAPC  H15B 2563   2.797   1.669  11.055  1.1765  1.4094  3.4946
   20SAPC  H15C 2564   2.878   1.656  10.900 -0.9377 -1.3344  1.2152
   20SAPC   C11 2565   2.682   1.794  10.797 -0.1187  0.2915  0.7991
   20SAPC  H11A 2566   2.656   1.689  10.823  2.4883 -0.0269  2.2953
   20SAPC  H11B 2567   2.758   1.782  10.717 -2.0681 -0.6790 -0.9856
   20SAPC     P 2568   2.437   1.869  10.764 -0.3605  0.1049  0.1102
   20SAPC   O13 2569   2.426   1.893  10.912 -0.5844  0.5562  0.0803
   20SAPC   O14 2570   2.363   1.971  10.684 -0.1508  0.1051 -0.0931
   20SAPC   O12 2571   2.595   1.872  10.719  0.9039  0.1686  0.7272
   20SAPC   O11 2572   2.387   1.721  10.722  0.3099  0.3893  0.5286
   20SAPC    C1 2573   2.448   1.659  10.608  0.4996  0.6723  0.5764
   20SAPC    HA 2574   2.559   1.662  10.617  0.6153  1.4326 -1.0961
   20SAPC    HB 2575   2.418   1.552  10.601 -0.0686  0.8298  0.5835
   20SAPC    C2 2576   2.406   1.727  10.470  1.1167  0.6088  0.5562
   20SAPC    HS 2577   2.427   1.836  10.478 -0.3694  1.0024 -0.7228
   20SAPC   O21 2578   2.268   1.698  10.459  0.4630 -0.0619  0.4321
   20SAPC   C21 2579   2.187   1.782  10.415  0.9687  0.4801  0.4042
   20SAPC   O22 2580   2.208   1.898  10.378  0.5262  0.3820  0.2382
   20SAPC   C22 2581   2.054   1.706  10.410  0.0136 -0.6306 -0.1391
   20SAPC   H2R 2582   2.048   1.649  10.315  0.2559  1.0476 -1.1976
   20SAPC   H2S 2583   2.045   1.638  10.497  1.4319 -0.6790 -0.0116
   20SAPC    C3 2584   2.497   1.678  10.350 -0.0992  0.4512 -0.0087
   20SAPC    HX 2585   2.513   1.568  10.355  0.7159  0.3752 -3.0492
   20SAPC    HY 2586   2.600   1.721  10.356 -0.3577  0.8190  2.0721
   20SAPC   O31 2587   2.444   1.693  10.217  1.1867  0.3464  0.0754
   20SAPC   C31 2588   2.468   1.820  10.168 -0.9908 -0.1766 -0.3877
   20SAPC   O32 2589   2.545   1.894  10.227 -0.1101 -0.2486  0.3530
   20SAPC   C32 2590   2.415   1.828  10.032  0.0156  0.1614 -0.0954
   20SAPC   H2X 2591   2.304   1.831  10.039  0.0956 -0.4889  1.5276
   20SAPC   H2Y 2592   2.442   1.735   9.977  0.0185 -0.2407  0.5816
   20SAPC   C23 2593   1.929   1.801  10.416 -0.4518  0.1622  0.2362
   20SAPC   H3R 2594   1.942   1.886  10.486  2.0999  0.8419 -0.9827
   20SAPC   H3S 2595   1.846   1.737  10.451  1.4404 -3.2193 -1.1838
   20SAPC   C24 2596   1.871   1.857  10.283 -0.0048  0.0967 -0.1079
   20SAPC   H4R 2597   1.766   1.890  10.300  0.3212  1.8041 -1.2865
   20SAPC   H4S 2598   1.880   1.779  10.204  0.1585  0.9289 -0.9226
   20SAPC   C25 2599   1.949   1.972  10.229  0.6143 -0.0379 -0.2212
   20SAPC   H5R 2600   2.036   1.999  10.290  1.5115  0.1723 -1.5883
   20SAPC   C26 2601   1.925   2.041  10.115  0.3279  0.2943  0.6773
   20SAPC   H6R 2602   1.999   2.114  10.079 -1.0309 -0.1464 -3.2346
   20SAPC   C27 2603   1.814   2.002  10.019 -0.9060 -0.0282  0.4368
   20SAPC   H7R 2604   1.797   2.082   9.943 -0.5312 -2.1459 -1.9446
   20SAPC   H7S 2605   1.722   2.016  10.079  0.1349 -0.1359  2.0956
   20SAPC   C28 2606   1.826   1.877   9.940 -0.0125  0.3208 -0.9610
   20SAPC   H8R 2607   1.818   1.789  10.005  0.2525  1.0430  0.0584
   20SAPC   C29 2608   1.858   1.863   9.810  0.0505 -0.1556 -0.7054
   20SAPC   H9R 2609   1.863   1.758   9.778 -0.8265  0.3650 -2.6497
   20SAPC  C210 2610   1.897   1.959   9.696  0.5606  0.3383 -0.6390
   20SAPC  H10R 2611   1.804   1.990   9.643  1.8339  1.8057 -2.0904
   20SAPC  H10S 2612   1.943   1.912   9.606 -1.2730 -1.6629 -0.5724
   20SAPC  C211 2613   1.972   2.090   9.727  0.5192  0.1168 -0.6734
   20SAPC  H11R 2614   1.986   2.109   9.835  1.2643 -2.4433 -0.2901
   20SAPC  C212 2615   2.027   2.178   9.636  0.2785 -0.8490  0.5542
   20SAPC  H12R 2616   2.090   2.262   9.669  0.1902  0.0396 -1.4628
   20SAPC  C213 2617   2.012   2.150   9.483  0.1200 -0.3682 -0.3080
   20SAPC  H13R 2618   2.018   2.041   9.459 -3.2800 -0.8010  0.4856
   20SAPC  H13S 2619   2.096   2.197   9.429 -0.6860  2.6280  0.9513
   20SAPC  C214 2620   1.889   2.207   9.418  0.8193  0.3512  0.5233
   20SAPC  H14R 2621   1.812   2.240   9.490 -0.9327 -2.3234 -0.0089
   20SAPC  C215 2622   1.867   2.236   9.289  0.0134  0.3700  0.0974
   20SAPC  H15R 2623   1.765   2.269   9.266 -1.8656 -2.4431  3.8435
   20SAPC  C216 2624   1.960   2.216   9.174  0.3349  0.9083  0.3289
   20SAPC  H16R 2625   1.913   2.190   9.076  0.5755 -2.4788  1.0494
   20SAPC  H16S 2626   2.041   2.142   9.191 -0.7657 -0.6759 -1.0776
   20SAPC  C217 2627   2.032   2.353   9.143 -0.7049 -0.3563 -0.0900
   20SAPC  H17R 2628   2.082   2.396   9.233 -1.1257 -1.1557  0.5373
   20SAPC  H17S 2629   1.956   2.422   9.103  1.1136  1.1878 -0.9547
   20SAPC  C218 2630   2.143   2.345   9.028 -0.3054 -0.2783  0.7256
   20SAPC  H18R 2631   2.111   2.279   8.945 -0.4652 -0.6511  1.0828
   20SAPC  H18S 2632   2.227   2.297   9.082 -0.1151  0.4403  1.0786
   20SAPC  C219 2633   2.193   2.480   8.968  0.4331 -0.2052 -1.6433
   20SAPC  H19R 2634   2.274   2.465   8.893 -0.2924 -1.0523 -2.2681
   20SAPC  H19S 2635   2.217   2.548   9.053 -0.0356  0.1480 -1.7966
   20SAPC  C220 2636   2.071   2.543   8.892 -1.3201  0.3421  0.1160
   20SAPC  H20R 2637   2.107   2.629   8.831 -0.1715  1.0730  1.7888
   20SAPC  H20S 2638   1.995   2.586   8.961  0.7466  0.2834  2.5038
   20SAPC  H20T 2639   2.021   2.465   8.830  0.8150 -1.5690  0.7012
   20SAPC   C33 2640   2.450   1.959   9.951  0.3952  0.7545  0.3611
   20SAPC   H3X 2641   2.558   1.960   9.925  0.1579  2.1377 -0.6255
   20SAPC   H3Y 2642   2.444   2.052  10.012  1.2035  0.4218  0.9433
   20SAPC   C34 2643   2.355   1.983   9.830  0.2465  0.0474 -0.4441
   20SAPC   H4X 2644   2.371   2.087   9.793 -1.2220  0.5274  0.2257
   20SAPC   H4Y 2645   2.247   1.984   9.854  0.2313  1.8719 -0.5197
   20SAPC   C35 2646   2.372   1.879   9.722  0.4426  0.1271  0.2329
   20SAPC   H5X 2647   2.325   1.788   9.765 -2.0488  1.0702 -0.4303
   20SAPC   H5Y 2648   2.479   1.858   9.700  0.4002  0.8900 -0.7216
   20SAPC   C36 2649   2.312   1.918   9.586 -0.9641 -0.3045  0.6938
   20SAPC   H6X 2650   2.339   2.022   9.558 -1.8139  0.7559  3.5870
   20SAPC   H6Y 2651   2.203   1.906   9.600 -1.2181 -0.3102 -1.1436
   20SAPC   C37 2652   2.355   1.825   9.470 -0.5617 -0.3014  0.2770
   20SAPC   H7X 2653   2.310   1.723   9.471  0.1780 -0.6533 -0.6845
   20SAPC   H7Y 2654   2.463   1.806   9.485 -0.8005  0.4073  3.1425
   20SAPC   C38 2655   2.326   1.879   9.338 -0.2460 -0.3940 -0.5013
   20SAPC   H8X 2656   2.388   1.969   9.316  0.0011 -0.1220  1.2407
   20SAPC   H8Y 2657   2.221   1.912   9.324 -0.4161 -1.1971 -1.1010
   20SAPC   C39 2658   2.372   1.776   9.227 -0.1722 -0.4429 -0.4648
   20SAPC   H9X 2659   2.316   1.680   9.228 -4.3649  1.8986 -0.9474
   20SAPC   H9Y 2660   2.480   1.755   9.242  0.5209  1.5625 -2.5243
   20SAPC  C310 2661   2.357   1.839   9.089 -0.6997  0.3646  0.1033
   20SAPC  H10X 2662   2.402   1.776   9.009  1.0510 -0.7139  1.9077
   20SAPC  H10Y 2663   2.423   1.928   9.079  1.1692 -1.2109 -2.4310
   20SAPC  C311 2664   2.211   1.874   9.042  0.8735  0.5345 -0.5322
   20SAPC  H11X 2665   2.139   1.920   9.112 -0.0974 -1.0999 -0.4472
   20SAPC  H11Y 2666   2.171   1.774   9.017  1.8979 -0.0537  0.1469
   20SAPC  C312 2667   2.220   1.958   8.917 -0.0028  0.0639  0.1507
   20SAPC  H12X 2668   2.287   1.900   8.849  2.3110  1.1408  1.4351
   20SAPC  H12Y 2669   2.273   2.052   8.944 -2.1256  1.0306  1.0399
   20SAPC  C313 2670   2.082   1.970   8.851 -0.0951 -0.9693 -0.4046
   20SAPC  H13X 2671   2.097   2.050   8.776 -0.0467  0.2310  0.8705
   20SAPC  H13Y 2672   2.012   2.003   8.930  1.0654  2.0733 -0.5749
   20SAPC  C314 2673   2.027   1.844   8.788 -0.0741 -0.2086  0.9966
   20SAPC  H14X 2674   1.989   1.766   8.856  0.6160 -1.4873 -0.0616
   20SAPC  H14Y 2675   2.114   1.793   8.741  1.5047  0.4610  3.1046
   20SAPC  C315 2676   1.910   1.868   8.687  0.6772  0.2954  0.4428
   20SAPC  H15X 2677   1.945   1.911   8.591  0.0573  0.7836  0.4364
   20SAPC  H15Y 2678   1.841   1.940   8.736  0.3086 -0.0342  0.4102
   20SAPC  C316 2679   1.818   1.740   8.675 -0.5036 -0.1027  0.1288
   20SAPC  H16X 2680   1.792   1.695   8.773 -0.2613  1.6370  1.0230
   20SAPC  H16Y 2681   1.884   1.665   8.627  1.5839  0.9566  1.2761
   20SAPC  C317 2682   1.694   1.763   8.584 -0.3245  0.2310  0.0988
   20SAPC  H17X 2683   1.730   1.742   8.481 -1.7213 -1.7782  0.0014
   20SAPC  H17Y 2684   1.671   1.871   8.595  0.8556  0.4583  0.4076
   20SAPC  C318 2685   1.572   1.674   8.600 -0.0041  0.3351  0.6676
   20SAPC  H18X 2686   1.484   1.723   8.554 -0.1222 -0.0689  0.4556
   20SAPC  H18Y 2687   1.547   1.652   8.706  1.4123  0.3102  1.0144
   20SAPC  H18Z 2688   1.596   1.579   8.546 -0.2505 -1.4023  3.5011
   21SAPC     N 2689   1.132   0.564  10.662 -0.1860 -0.4939 -0.4676
   21SAPC   C12 2690   1.263   0.555  10.579  0.9881  0.4393  0.5158
   21SAPC  H12A 2691   1.255   0.462  10.525 -1.1531  0.9790 -0.1192
   21SAPC  H12B 2692   1.346   0.548  10.648  0.4583 -0.0089  1.1169
   21SAPC   C13 2693   1.006   0.571  10.577 -0.2032 -0.2618 -0.0083
   21SAPC  H13A 2694   1.026   0.653  10.509  1.8604  0.4273  1.3804
   21SAPC  H13B 2695   0.997   0.478  10.524 -0.2572 -1.7695  2.5834
   21SAPC  H13C 2696   0.915   0.575  10.635 -0.7756 -1.5973 -0.8072
   21SAPC   C14 2697   1.118   0.431  10.732 -0.2987 -0.0217 -0.2415
   21SAPC  H14A 2698   1.187   0.418  10.814  1.9133 -0.8124 -2.1496
   21SAPC  H14B 2699   1.019   0.419  10.772  0.0902  3.2079  1.8071
   21SAPC  H14C 2700   1.132   0.352  10.659  0.1390  0.4505 -0.6784
   21SAPC   C15 2701   1.127   0.678  10.759 -0.6798 -0.5270 -0.3466
   21SAPC  H15A 2702   1.215   0.684  10.821 -0.6432  0.5336 -0.5063
   21SAPC  H15B 2703   1.105   0.769  10.706  0.8779  0.1975  0.2302
   21SAPC  H15C 2704   1.038   0.676  10.820  0.8262  1.0947  1.9788
   21SAPC   C11 2705   1.315   0.661  10.480 -0.1296  0.2071  0.3439
   21SAPC  H11A 2706   1.236   0.682  10.405 -1.7762 -0.0000  1.9782
   21SAPC  H11B 2707   1.392   0.629  10.407  1.3227  2.2634  0.9580
   21SAPC     P 2708   1.496   0.758  10.623  0.0439  0.0266 -0.0970
   21SAPC   O13 2709   1.478   0.812  10.759  0.7470  0.3601 -0.0006
   21SAPC   O14 2710   1.559   0.626  10.611 -0.3979  0.0628  0.9164
   21SAPC   O12 2711   1.365   0.775  10.544 -0.1651 -0.6299 -0.3211
   21SAPC   O11 2712   1.583   0.852  10.535  0.3017  0.1304 -0.1555
   21SAPC    C1 2713   1.536   0.963  10.466  0.3225 -0.5718  0.2368
   21SAPC    HA 2714   1.462   0.945  10.384 -1.7572 -0.2272  1.9928
   21SAPC    HB 2715   1.480   1.023  10.541  1.2826  1.0868 -0.3332
   21SAPC    C2 2716   1.652   1.042  10.400 -0.6413  0.8464 -0.2988
   21SAPC    HS 2717   1.617   1.129  10.341  1.7600  1.3080 -1.0981
   21SAPC   O21 2718   1.728   0.950  10.320  0.8292 -0.0377  0.5198
   21SAPC   C21 2719   1.672   0.926  10.199  0.2205 -0.0624  0.6397
   21SAPC   O22 2720   1.562   0.958  10.159  0.4152 -0.6231  0.6304
   21SAPC   C22 2721   1.742   0.808  10.122  0.0672  0.3300 -0.2972
   21SAPC   H2R 2722   1.841   0.790  10.169  0.6452  1.7254 -0.9421
   21SAPC   H2S 2723   1.685   0.713  10.127  0.5722  0.1292  1.8016
   21SAPC    C3 2724   1.747   1.087  10.515 -0.4450 -0.4873  0.2130
   21SAPC    HX 2725   1.773   0.993  10.567 -0.7381 -1.1878 -0.8746
   21SAPC    HY 2726   1.671   1.150  10.568 -1.1914 -1.8631  0.8060
   21SAPC   O31 2727   1.865   1.145  10.452 -0.0768  0.2858  0.0881
   21SAPC   C31 2728   1.912   1.252  10.513  0.6548 -0.2753 -0.5991
   21SAPC   O32 2729   1.864   1.314  10.603  0.5082 -0.1930 -0.0687
   21SAPC   C32 2730   2.044   1.291  10.452  1.1868  0.0831  0.7699
   21SAPC   H2X 2731   2.102   1.198  10.467 -1.0613 -0.9662  3.3846
   21SAPC   H2Y 2732   2.085   1.364  10.525 -2.2484  0.6635  2.2494
   21SAPC   C23 2733   1.766   0.846   9.971 -0.2958 -0.3637 -0.3409
   21SAPC   H3R 2734   1.857   0.787   9.946  0.6253  0.5638  0.7848
   21SAPC   H3S 2735   1.792   0.953   9.980 -3.6465  0.3099  2.4671
   21SAPC   C24 2736   1.648   0.825   9.877 -0.3346  0.1190  0.1894
   21SAPC   H4R 2737   1.682   0.889   9.793 -0.9237  0.1428 -0.0357
   21SAPC   H4S 2738   1.549   0.867   9.906 -1.1845 -0.4452 -1.8066
   21SAPC   C25 2739   1.630   0.681   9.831  0.0650 -0.1550  0.4066
   21SAPC   H5R 2740   1.611   0.616   9.918 -0.6654  0.1020  0.4411
   21SAPC   C26 2741   1.651   0.634   9.706 -0.1537 -0.0318  0.8579
   21SAPC   H6R 2742   1.621   0.529   9.693 -0.9071  0.4101 -1.2207
   21SAPC   C27 2743   1.698   0.702   9.585 -0.1278 -0.0852 -0.3267
   21SAPC   H7R 2744   1.795   0.662   9.548 -0.8912 -1.8327 -0.4908
   21SAPC   H7S 2745   1.716   0.811   9.600  0.2598 -0.1300 -0.4575
   21SAPC   C28 2746   1.596   0.693   9.470  0.5262 -0.1970  0.6075
   21SAPC   H8R 2747   1.531   0.781   9.459 -0.9687 -1.4700 -1.0536
   21SAPC   C29 2748   1.585   0.597   9.381 -0.4275 -0.2502 -0.4439
   21SAPC   H9R 2749   1.504   0.600   9.306 -0.7187 -1.0006 -0.1678
   21SAPC  C210 2750   1.679   0.481   9.379 -0.2928 -0.0214  0.2913
   21SAPC  H10R 2751   1.611   0.399   9.349 -0.8918 -0.0016  1.5603
   21SAPC  H10S 2752   1.698   0.440   9.481 -0.7226 -1.2050 -0.0997
   21SAPC  C211 2753   1.805   0.473   9.298 -0.4663 -0.1852 -0.0428
   21SAPC  H11R 2754   1.897   0.494   9.354 -1.1585  2.8318  0.0475
   21SAPC  C212 2755   1.811   0.455   9.162  0.6588 -1.1237 -0.5117
   21SAPC  H12R 2756   1.906   0.462   9.108  0.6312 -1.4588 -0.6037
   21SAPC  C213 2757   1.690   0.439   9.075 -0.4464  0.0147 -0.4089
   21SAPC  H13R 2758   1.688   0.505   8.986 -0.7477  0.1083 -0.3346
   21SAPC  H13S 2759   1.594   0.454   9.130 -0.3681  1.4266 -0.6285
   21SAPC  C214 2760   1.685   0.298   9.035  0.1198 -0.3607 -0.1037
   21SAPC  H14R 2761   1.650   0.227   9.112  2.0402  0.3634  1.4832
   21SAPC  C215 2762   1.730   0.253   8.922  0.1571 -1.0448  0.6785
   21SAPC  H15R 2763   1.710   0.146   8.904  1.6465 -1.0434 -1.1631
   21SAPC  C216 2764   1.797   0.329   8.809  0.2872 -1.0820  0.0534
   21SAPC  H16R 2765   1.743   0.426   8.805  0.0720 -1.2602 -1.8190
   21SAPC  H16S 2766   1.765   0.282   8.713 -0.0946  0.2043 -0.4651
   21SAPC  C217 2767   1.947   0.341   8.812 -0.4819  0.8693 -0.6860
   21SAPC  H17R 2768   1.993   0.241   8.809 -1.9139  0.2231 -1.7294
   21SAPC  H17S 2769   1.980   0.378   8.911  0.1992 -1.2498 -0.0976
   21SAPC  C218 2770   1.993   0.414   8.693 -0.0487  0.5218  0.0121
   21SAPC  H18R 2771   1.959   0.520   8.697  0.0533  0.5921 -0.7596
   21SAPC  H18S 2772   1.948   0.379   8.598 -0.7041  1.0218  0.1402
   21SAPC  C219 2773   2.143   0.406   8.663  0.3308 -0.5715 -0.5454
   21SAPC  H19R 2774   2.186   0.304   8.653 -0.7625 -0.7989 -3.8794
   21SAPC  H19S 2775   2.188   0.451   8.753 -0.1021 -1.7319  0.2619
   21SAPC  C220 2776   2.182   0.474   8.528 -0.1817  0.2755 -0.2827
   21SAPC  H20R 2777   2.131   0.573   8.522 -0.0755  0.2146 -2.4661
   21SAPC  H20S 2778   2.143   0.415   8.443  2.6055 -0.5697 -1.0025
   21SAPC  H20T 2779   2.291   0.492   8.528  0.6050 -3.9357 -0.7858
   21SAPC   C33 2780   2.033   1.356  10.308 -0.9260 -0.3120 -0.4396
   21SAPC   H3X 2781   1.968   1.446  10.317 -0.4367  0.0985 -0.9579
   21SAPC   H3Y 2782   1.991   1.291  10.228  0.1945 -0.7914 -0.6479
   21SAPC   C34 2783   2.175   1.407  10.270  0.1788  0.4897 -0.2144
   21SAPC   H4X 2784   2.217   1.308  10.242  0.0660  0.1096  0.9575
   21SAPC   H4Y 2785   2.236   1.445  10.355 -0.7568 -0.8782  1.0919
   21SAPC   C35 2786   2.194   1.499  10.148 -0.4631 -0.0890  0.1395
   21SAPC   H5X 2787   2.301   1.506  10.120 -0.6916  1.4129 -0.3744
   21SAPC   H5Y 2788   2.160   1.602  10.170 -4.5962 -1.5890  1.3481
   21SAPC   C36 2789   2.115   1.458  10.024 -0.0122  0.5454  0.1609
   21SAPC   H6X 2790   2.008   1.441  10.051  0.9119 -2.0605  2.4760
   21SAPC   H6Y 2791   2.149   1.355  10.000  0.3756  0.8732 -0.6974
   21SAPC   C37 2792   2.130   1.556   9.906 -0.3015  0.0132  0.5668
   21SAPC   H7X 2793   2.235   1.553   9.870  0.8159 -1.5888  3.7076
   21SAPC   H7Y 2794   2.102   1.658   9.939 -0.0612 -0.2993  1.7500
   21SAPC   C38 2795   2.047   1.515   9.786 -0.4783  0.4378  0.2721
   21SAPC   H8X 2796   1.940   1.531   9.810 -0.4909  0.7096  0.0359
   21SAPC   H8Y 2797   2.054   1.406   9.762  1.5153  0.2181  1.7181
   21SAPC   C39 2798   2.076   1.589   9.654 -0.7899  0.2260  0.3368
   21SAPC   H9X 2799   2.182   1.573   9.623 -1.5333 -2.8139 -0.7282
   21SAPC   H9Y 2800   2.070   1.699   9.672  0.6982  0.2443  0.8130
   21SAPC  C310 2801   1.986   1.551   9.532 -0.3076 -1.0353 -0.4475
   21SAPC  H10X 2802   1.884   1.585   9.558 -0.1955 -0.0394 -1.3220
   21SAPC  H10Y 2803   2.002   1.441   9.540  0.6746 -0.8232  0.8085
   21SAPC  C311 2804   2.039   1.595   9.390 -0.0628  0.0926 -0.8814
   21SAPC  H11X 2805   2.148   1.604   9.411 -0.1166 -0.9117 -0.1497
   21SAPC  H11Y 2806   1.993   1.694   9.368 -0.5556  0.6420  2.2815
   21SAPC  C312 2807   2.008   1.482   9.290 -0.0230 -0.4155 -0.1976
   21SAPC  H12X 2808   1.900   1.458   9.280 -0.0213 -0.9334  0.9125
   21SAPC  H12Y 2809   2.059   1.393   9.332 -0.3019  0.1616  1.4148
   21SAPC  C313 2810   2.052   1.513   9.144  0.3601  0.4359  0.3802
   21SAPC  H13X 2811   2.156   1.478   9.126  0.3541  0.2048  0.7875
   21SAPC  H13Y 2812   2.058   1.624   9.146  4.1501  0.3127 -0.6343
   21SAPC  C314 2813   1.963   1.444   9.039 -0.1917 -0.3589  0.1229
   21SAPC  H14X 2814   1.862   1.489   9.048 -0.6708 -1.9162  3.4208
   21SAPC  H14Y 2815   1.959   1.334   9.056 -2.5931 -0.4452 -0.8799
   21SAPC  C315 2816   2.027   1.476   8.899 -0.1468 -0.3439  0.3405
   21SAPC  H15X 2817   2.120   1.416   8.903  0.0308 -0.0216  1.3560
   21SAPC  H15Y 2818   2.057   1.583   8.901 -1.1850  0.0084 -1.5571
   21SAPC  C316 2819   1.931   1.447   8.791  0.1558  0.4199 -0.2066
   21SAPC  H16X 2820   1.977   1.481   8.696 -0.0488  0.6995 -0.2068
   21SAPC  H16Y 2821   1.838   1.507   8.791  1.4738  2.5646  1.0695
   21SAPC  C317 2822   1.901   1.304   8.769 -0.1278 -0.1351  0.2899
   21SAPC  H17X 2823   1.861   1.258   8.862 -2.0561 -1.5807 -1.1985
   21SAPC  H17Y 2824   1.991   1.244   8.745 -0.7581 -1.1818  0.5111
   21SAPC  C318 2825   1.789   1.280   8.662 -0.7441  0.0686 -0.6323
   21SAPC  H18X 2826   1.691   1.328   8.685 -0.0857  0.5395  1.2234
   21SAPC  H18Y 2827   1.767   1.172   8.647 -1.9320  0.1616  0.2963
   21SAPC  H18Z 2828   1.825   1.318   8.564 -1.0674 -0.5779 -1.0042
   22SAPC     N 2829   1.726   5.156  10.740 -0.2767 -0.0489 -0.4793
   22SAPC   C12 2830   1.657   5.291  10.713  0.5067 -0.6228 -0.0470
   22SAPC  H12A 2831   1.700   5.325  10.620 -0.6136  0.0417 -0.3356
   22SAPC  H12B 2832   1.695   5.367  10.780  0.7977 -0.7383 -0.0808
   22SAPC   C13 2833   1.880   5.162  10.737  0.1032 -0.0449 -0.1403
   22SAPC  H13A 2834   1.923   5.187  10.641  1.2886 -0.2658  0.3338
   22SAPC  H13B 2835   1.914   5.233  10.810 -2.6396  1.8182 -0.5791
   22SAPC  H13C 2836   1.912   5.062  10.762  3.3028  0.3799 -2.2390
   22SAPC   C14 2837   1.689   5.096  10.879  0.2743  0.3280  1.2649
   22SAPC  H14A 2838   1.708   4.989  10.877 -1.2792  0.0504 -1.1042
   22SAPC  H14B 2839   1.744   5.143  10.959  1.3287 -0.2869  0.9229
   22SAPC  H14C 2840   1.582   5.107  10.888 -0.0569 -2.0473  0.5676
   22SAPC   C15 2841   1.681   5.064  10.640  0.0719 -0.5113  0.7431
   22SAPC  H15A 2842   1.714   5.090  10.541  0.3166  0.5166  1.0824
   22SAPC  H15B 2843   1.718   4.963  10.652  0.9003 -0.6198 -2.4474
   22SAPC  H15C 2844   1.574   5.073  10.636  0.2888  1.4759 -1.8734
   22SAPC   C11 2845   1.504   5.301  10.684 -0.2728  0.2308  0.0834
   22SAPC  H11A 2846   1.484   5.233  10.598 -1.7672  0.7336  0.0123
   22SAPC  H11B 2847   1.492   5.404  10.644  3.0556  0.3789 -0.6626
   22SAPC     P 2848   1.314   5.166  10.819 -0.0331  0.5843  0.0876
   22SAPC   O13 2849   1.369   5.094  10.935  0.3912 -0.2750 -0.0477
   22SAPC   O14 2850   1.182   5.230  10.828  0.4459  0.2670 -0.0685
   22SAPC   O12 2851   1.424   5.281  10.803  0.1505  0.2947  0.2102
   22SAPC   O11 2852   1.331   5.077  10.691 -0.4412  0.1082  0.1262
   22SAPC    C1 2853   1.310   4.935  10.698  0.0200 -0.7327 -0.8411
   22SAPC    HA 2854   1.372   4.886  10.776 -0.5828  0.5328  0.4751
   22SAPC    HB 2855   1.204   4.912  10.723 -0.0357 -0.1126 -0.4838
   22SAPC    C2 2856   1.356   4.868  10.571 -0.1725  0.1939 -0.6496
   22SAPC    HS 2857   1.463   4.894  10.555  0.0728 -0.1470  0.3955
   22SAPC   O21 2858   1.270   4.908  10.463  0.6523 -0.1372 -0.0065
   22SAPC   C21 2859   1.326   4.972  10.362  0.7676 -0.1095  0.5702
   22SAPC   O22 2860   1.443   4.989  10.347 -0.3195  0.1490  0.5867
   22SAPC   C22 2861   1.215   5.029  10.269  0.0588  0.2631  0.3046
   22SAPC   H2R 2862   1.178   4.947  10.204 -0.1847  1.6200 -1.3009
   22SAPC   H2S 2863   1.132   5.075  10.327  0.1174  0.2193  0.4252
   22SAPC    C3 2864   1.352   4.711  10.592  0.2294  0.2052  0.3489
   22SAPC    HX 2865   1.249   4.677  10.613 -0.8719  3.5569  0.6399
   22SAPC    HY 2866   1.401   4.689  10.689 -0.3239 -2.1321  0.1394
   22SAPC   O31 2867   1.416   4.647  10.477 -0.2136  0.3084 -0.3723
   22SAPC   C31 2868   1.357   4.578  10.388 -0.2334 -0.5384  0.7128
   22SAPC   O32 2869   1.239   4.550  10.386 -0.1607 -0.1669  0.2404
   22SAPC   C32 2870   1.466   4.540  10.268 -0.0621 -0.3729  0.2698
   22SAPC   H2X 2871   1.488   4.431  10.268  2.9384  0.1890  0.8755
   22SAPC   H2Y 2872   1.560   4.594  10.293  0.9142 -1.7163 -0.4446
   22SAPC   C23 2873   1.270   5.141  10.174 -0.1548  0.9015  0.3636
   22SAPC   H3R 2874   1.326   5.214  10.236 -1.0071 -0.6447  3.0331
   22SAPC   H3S 2875   1.174   5.177  10.130 -1.3181 -0.9344  1.3551
   22SAPC   C24 2876   1.364   5.080  10.062  0.1389 -0.3354  0.4731
   22SAPC   H4R 2877   1.300   5.000  10.021  1.5832 -1.4444  0.3563
   22SAPC   H4S 2878   1.459   5.041  10.106  0.5512 -0.1572 -0.2456
   22SAPC   C25 2879   1.398   5.193   9.969 -0.0571  0.1205  0.6819
   22SAPC   H5R 2880   1.451   5.279  10.012  0.7104  0.3854 -0.7342
   22SAPC   C26 2881   1.362   5.205   9.840  0.2058 -0.0344 -0.4710
   22SAPC   H6R 2882   1.387   5.297   9.784  1.2952  0.6875  1.1570
   22SAPC   C27 2883   1.285   5.101   9.761 -0.2875 -0.0360  0.0283
   22SAPC   H7R 2884   1.298   5.004   9.812  0.1020 -0.5165 -0.9716
   22SAPC   H7S 2885   1.335   5.085   9.663 -0.3835 -3.0384  0.4392
   22SAPC   C28 2886   1.138   5.144   9.753  0.3037  0.0258 -0.2536
   22SAPC   H8R 2887   1.091   5.171   9.849  0.8609  1.3225 -0.3337
   22SAPC   C29 2888   1.069   5.130   9.638  0.8273  0.1537 -0.7236
   22SAPC   H9R 2889   0.969   5.175   9.630  1.9010  2.4571 -1.3792
   22SAPC  C210 2890   1.123   5.078   9.508 -0.0779 -0.0670  0.0295
   22SAPC  H10R 2891   1.219   5.022   9.515  0.0378  0.3371  1.7569
   22SAPC  H10S 2892   1.132   5.176   9.457 -0.1379 -0.3330 -0.4986
   22SAPC  C211 2893   1.029   4.998   9.430  0.9433 -0.4059 -0.2883
   22SAPC  H11R 2894   0.985   4.908   9.476  0.0816 -0.1664 -0.6302
   22SAPC  C212 2895   1.003   5.025   9.296  0.2292  0.3959 -0.0533
   22SAPC  H12R 2896   0.943   4.951   9.242 -0.3593  2.4645 -2.3388
   22SAPC  C213 2897   1.074   5.136   9.215 -0.3170 -1.1514  0.2802
   22SAPC  H13R 2898   1.083   5.104   9.109 -3.0893 -2.3099  0.3302
   22SAPC  H13S 2899   1.179   5.134   9.249 -0.2727  0.3667  0.2378
   22SAPC  C214 2900   1.027   5.282   9.224 -0.0766  0.1459  0.0902
   22SAPC  H14R 2901   1.014   5.317   9.328  0.2560  0.8129 -0.0868
   22SAPC  C215 2902   0.984   5.360   9.113 -0.2529  0.0504 -0.2511
   22SAPC  H15R 2903   0.945   5.458   9.142 -0.8390 -0.5287  0.9329
   22SAPC  C216 2904   0.984   5.311   8.970  0.7383  0.5706  0.0574
   22SAPC  H16R 2905   1.055   5.226   8.962 -1.6080 -1.2243 -2.6746
   22SAPC  H16S 2906   1.014   5.387   8.894  0.0171 -0.0725 -0.8800
   22SAPC  C217 2907   0.848   5.254   8.918 -0.3048  0.5401 -0.1200
   22SAPC  H17R 2908   0.776   5.339   8.928 -0.9816 -0.2506  2.0586
   22SAPC  H17S 2909   0.831   5.168   8.986  0.3023  1.3856  1.1287
   22SAPC  C218 2910   0.858   5.214   8.773  0.1057  0.2199 -0.4453
   22SAPC  H18R 2911   0.931   5.131   8.759 -0.0362 -0.1773  1.0986
   22SAPC  H18S 2912   0.911   5.293   8.714  2.2343 -1.2898 -0.6242
   22SAPC  C219 2913   0.722   5.187   8.703 -0.1258 -0.0169 -0.3261
   22SAPC  H19R 2914   0.670   5.102   8.753 -0.6331  0.5137  0.0474
   22SAPC  H19S 2915   0.738   5.145   8.601 -2.3783  0.6886 -0.9876
   22SAPC  C220 2916   0.646   5.316   8.686  0.0692 -0.0649  0.0279
   22SAPC  H20R 2917   0.608   5.345   8.787 -2.6906 -0.6108 -0.8015
   22SAPC  H20S 2918   0.562   5.302   8.615  0.6166 -1.5022 -0.3545
   22SAPC  H20T 2919   0.717   5.383   8.634 -1.1140  1.7202  0.6494
   22SAPC   C33 2920   1.423   4.580  10.121 -0.2113 -0.0352 -0.2009
   22SAPC   H3X 2921   1.407   4.690  10.118 -0.3665 -0.0752 -0.8010
   22SAPC   H3Y 2922   1.322   4.537  10.102 -0.6877  0.8265  0.3333
   22SAPC   C34 2923   1.522   4.526  10.029  0.2612 -0.2033  0.1273
   22SAPC   H4X 2924   1.541   4.417  10.044 -1.9284 -0.5414  0.6267
   22SAPC   H4Y 2925   1.614   4.582  10.058 -1.6462  2.7396  0.6931
   22SAPC   C35 2926   1.476   4.545   9.888  0.4175 -0.2513  0.0811
   22SAPC   H5X 2927   1.494   4.655   9.881  1.9733 -0.4562  0.6222
   22SAPC   H5Y 2928   1.367   4.524   9.880  0.8784 -1.7020 -2.9956
   22SAPC   C36 2929   1.560   4.461   9.779  0.1367  0.3114 -0.1702
   22SAPC   H6X 2930   1.558   4.352   9.803  2.1784 -0.2563 -2.3773
   22SAPC   H6Y 2931   1.663   4.502   9.784 -0.1241  0.9221  0.1388
   22SAPC   C37 2932   1.525   4.475   9.627  0.0725  0.1409  0.0477
   22SAPC   H7X 2933   1.440   4.413   9.593  0.3486  0.2018 -0.7648
   22SAPC   H7Y 2934   1.614   4.443   9.569  1.1315 -0.7785  2.1310
   22SAPC   C38 2935   1.479   4.623   9.605  0.4172 -0.7995 -0.4798
   22SAPC   H8X 2936   1.533   4.691   9.674 -0.0886  0.7590 -1.5860
   22SAPC   H8Y 2937   1.369   4.621   9.624  0.7077 -2.7161  1.1985
   22SAPC   C39 2938   1.509   4.674   9.463  0.8288 -0.2173  0.3700
   22SAPC   H9X 2939   1.564   4.604   9.395  1.8416 -1.9821  2.9091
   22SAPC   H9Y 2940   1.578   4.759   9.477  1.4082 -0.2225 -2.1957
   22SAPC  C310 2941   1.389   4.731   9.401 -0.1034  0.6134 -0.0360
   22SAPC  H10X 2942   1.345   4.811   9.464 -0.8306 -0.4368  0.8224
   22SAPC  H10Y 2943   1.313   4.652   9.383  2.3334 -2.3454  2.0287
   22SAPC  C311 2944   1.416   4.800   9.271  0.7564 -0.6439  0.6117
   22SAPC  H11X 2945   1.469   4.897   9.268  0.8327 -0.7082 -0.6429
   22SAPC  H11Y 2946   1.318   4.820   9.222  1.1298  0.0822  0.1624
   22SAPC  C312 2947   1.488   4.710   9.164 -0.0887  0.1999 -0.1977
   22SAPC  H12X 2948   1.453   4.606   9.177 -1.9607  0.8117 -0.2895
   22SAPC  H12Y 2949   1.594   4.719   9.196 -0.2799  0.0881  0.4721
   22SAPC  C313 2950   1.470   4.759   9.020 -0.2088  0.3839  0.6106
   22SAPC  H13X 2951   1.549   4.834   8.998 -1.5792  1.4037 -0.9476
   22SAPC  H13Y 2952   1.370   4.807   9.015 -0.7056 -0.8279 -1.6357
   22SAPC  C314 2953   1.469   4.641   8.929  0.1747  0.4523 -0.1395
   22SAPC  H14X 2954   1.387   4.569   8.950  1.7080 -1.6790 -1.2766
   22SAPC  H14Y 2955   1.561   4.583   8.950 -1.1508 -1.2935  0.9759
   22SAPC  C315 2956   1.454   4.676   8.777  0.1218 -0.0738 -0.4358
   22SAPC  H15X 2957   1.507   4.772   8.758  0.0516 -0.2493 -1.5850
   22SAPC  H15Y 2958   1.345   4.698   8.772  0.3849  1.9470  1.6944
   22SAPC  C316 2959   1.493   4.565   8.681  0.2657 -0.2108  0.1548
   22SAPC  H16X 2960   1.432   4.474   8.698 -1.9838  1.2578  0.1234
   22SAPC  H16Y 2961   1.598   4.538   8.705  0.5348  1.5012  0.9940
   22SAPC  C317 2962   1.473   4.631   8.549  0.5463  0.8519  0.4419
   22SAPC  H17X 2963   1.538   4.717   8.525  0.0036  1.0623 -0.3012
   22SAPC  H17Y 2964   1.368   4.666   8.538  1.0999  1.7640 -2.5463
   22SAPC  C318 2965   1.479   4.531   8.431 -0.0991 -0.5590 -0.9133
   22SAPC  H18X 2966   1.527   4.580   8.344  1.9028 -0.4951  0.1880
   22SAPC  H18Y 2967   1.384   4.481   8.405 -0.6901  0.0194  0.1210
   22SAPC  H18Z 2968   1.540   4.441   8.456  0.5133 -0.0761 -0.6470
   23SAPC     N 2969   2.667   6.492  10.975  0.5703  0.6343  0.6440
   23SAPC   C12 2970   2.692   6.493  10.832 -0.4120 -0.8304  0.6089
   23SAPC  H12A 2971   2.602   6.466  10.780  1.7542 -3.3182 -2.0298
   23SAPC  H12B 2972   2.766   6.418  10.806  0.0997 -1.1624  2.9117
   23SAPC   C13 2973   2.778   6.547  11.053 -0.1484 -0.2908  0.3658
   23SAPC  H13A 2974   2.799   6.650  11.026  0.8834 -0.8962 -1.1963
   23SAPC  H13B 2975   2.764   6.536  11.160  1.3769  1.8155  0.8112
   23SAPC  H13C 2976   2.861   6.488  11.019 -0.9404  0.2462 -2.6901
   23SAPC   C14 2977   2.543   6.569  11.009 -0.1150  0.2012 -0.3804
   23SAPC  H14A 2978   2.510   6.540  11.107 -0.3054  3.2660  0.4955
   23SAPC  H14B 2979   2.567   6.674  11.018 -2.6125  0.7407  0.3094
   23SAPC  H14C 2980   2.462   6.550  10.940 -1.8820 -0.2112  1.7622
   23SAPC   C15 2981   2.647   6.352  11.017  0.1288 -0.1053  0.2451
   23SAPC  H15A 2982   2.727   6.282  10.999 -1.4193 -1.0387 -3.5008
   23SAPC  H15B 2983   2.627   6.361  11.123  3.5238 -0.1746  0.9253
   23SAPC  H15C 2984   2.557   6.303  10.983  1.0000 -1.2006 -0.5285
   23SAPC   C11 2985   2.733   6.626  10.779 -0.2270 -0.6207  0.9143
   23SAPC  H11A 2986   2.673   6.711  10.818  1.8989  1.2467  0.1824
   23SAPC  H11B 2987   2.714   6.625  10.670  0.2519 -0.6970  0.8326
   23SAPC     P 2988   2.937   6.794  10.776  0.0983  0.0806 -0.8125
   23SAPC   O13 2989   2.870   6.888  10.873 -0.0404  0.3971 -0.7236
   23SAPC   O14 2990   3.079   6.783  10.786  0.1716 -0.8520  0.4379
   23SAPC   O12 2991   2.871   6.653  10.795 -0.0040 -0.0750  1.0445
   23SAPC   O11 2992   2.908   6.837  10.623  0.4863 -0.5866 -0.2430
   23SAPC    C1 2993   2.804   6.934  10.602  0.9943 -0.6626 -0.2423
   23SAPC    HA 2994   2.713   6.921  10.664  1.5751  2.9545  1.4600
   23SAPC    HB 2995   2.849   7.034  10.618  1.6984 -0.7948 -1.2758
   23SAPC    C2 2996   2.757   6.949  10.458  0.4482  0.2752 -0.1465
   23SAPC    HS 2997   2.674   7.023  10.454 -1.8294 -2.0547  2.2013
   23SAPC   O21 2998   2.713   6.823  10.416 -0.0533 -0.6885 -0.1568
   23SAPC   C21 2999   2.615   6.764  10.467 -0.0079  0.4504 -0.9561
   23SAPC   O22 3000   2.533   6.808  10.550 -0.0338 -0.3762 -0.1626
   23SAPC   C22 3001   2.602   6.625  10.397 -0.7170  0.6419  0.1349
   23SAPC   H2R 3002   2.691   6.607  10.331 -1.8429  0.9404 -1.5016
   23SAPC   H2S 3003   2.626   6.555  10.480 -1.9230 -1.9864 -1.6593
   23SAPC    C3 3004   2.873   7.009  10.367 -0.5461 -0.3350 -0.6777
   23SAPC    HX 3005   2.960   6.944  10.394  1.7688  1.7659 -2.8523
   23SAPC    HY 3006   2.897   7.115  10.388  3.2296 -0.9185 -1.5247
   23SAPC   O31 3007   2.830   7.010  10.227 -0.6217 -0.1628  0.2840
   23SAPC   C31 3008   2.872   6.902  10.157 -0.0703  0.2490  0.2378
   23SAPC   O32 3009   2.949   6.814  10.197 -0.1338  0.0852 -0.0627
   23SAPC   C32 3010   2.797   6.891  10.024 -0.4401 -0.9821 -0.3482
   23SAPC   H2X 3011   2.747   6.989  10.010 -2.7021 -1.5363  3.1813
   23SAPC   H2Y 3012   2.719   6.814  10.038  1.2664 -2.9277 -1.2661
   23SAPC   C23 3013   2.479   6.591  10.314 -0.7143  0.1039  0.3783
   23SAPC   H3R 3014   2.480   6.661  10.228  0.5538 -1.6804 -1.0865
   23SAPC   H3S 3015   2.390   6.614  10.377  0.1540 -0.6992  1.9422
   23SAPC   C24 3016   2.476   6.443  10.263 -0.0022  0.6358  0.3346
   23SAPC   H4R 3017   2.501   6.372  10.345  0.8898 -0.2606 -0.6930
   23SAPC   H4S 3018   2.557   6.421  10.190 -0.5327 -2.2729  0.5610
   23SAPC   C25 3019   2.340   6.417  10.210  0.3051  0.4118  0.0913
   23SAPC   H5R 3020   2.257   6.422  10.282 -0.2056  1.4405 -0.5597
   23SAPC   C26 3021   2.312   6.358  10.090 -0.4494 -0.0955 -1.0057
   23SAPC   H6R 3022   2.208   6.355  10.052 -0.2900  2.3664 -1.7047
   23SAPC   C27 3023   2.413   6.323   9.983  0.3561 -0.2747 -0.2136
   23SAPC   H7R 3024   2.418   6.212   9.970 -0.0750 -0.3684  0.3791
   23SAPC   H7S 3025   2.507   6.379  10.003  0.0706  0.2161 -0.2429
   23SAPC   C28 3026   2.391   6.389   9.849  0.0079 -0.5844 -0.2040
   23SAPC   H8R 3027   2.384   6.498   9.852  2.7906 -0.3863  0.2043
   23SAPC   C29 3028   2.397   6.331   9.731  0.0023 -0.1288 -0.7480
   23SAPC   H9R 3029   2.382   6.389   9.639 -0.6994 -0.0438 -0.5844
   23SAPC  C210 3030   2.408   6.188   9.695 -0.0478  0.2735  0.0075
   23SAPC  H10R 3031   2.319   6.155   9.638 -0.3663  1.1310 -0.0126
   23SAPC  H10S 3032   2.407   6.135   9.793 -0.1864  1.5670  0.7338
   23SAPC  C211 3033   2.525   6.148   9.613  0.0171 -0.0822 -0.5913
   23SAPC  H11R 3034   2.596   6.088   9.671  0.3801  0.2932 -0.6453
   23SAPC  C212 3035   2.543   6.169   9.481  0.4473 -0.0420 -0.3786
   23SAPC  H12R 3036   2.639   6.134   9.440 -0.7968  0.3875 -3.8529
   23SAPC  C213 3037   2.452   6.251   9.387 -1.1713  0.2353  0.5538
   23SAPC  H13R 3038   2.486   6.357   9.386  1.6494 -0.6405  0.1685
   23SAPC  H13S 3039   2.347   6.255   9.423 -1.4819 -1.3823 -0.1379
   23SAPC  C214 3040   2.462   6.194   9.249 -0.2332 -0.5397 -0.3264
   23SAPC  H14R 3041   2.500   6.091   9.246  0.2661 -0.4073  1.0495
   23SAPC  C215 3042   2.416   6.242   9.132 -0.1057  0.2947  0.3851
   23SAPC  H15R 3043   2.449   6.196   9.037 -0.7790  0.6496 -0.0271
   23SAPC  C216 3044   2.340   6.368   9.120  0.5320  0.8072 -0.1441
   23SAPC  H16R 3045   2.413   6.452   9.111  0.9210  0.7080  1.9699
   23SAPC  H16S 3046   2.284   6.377   9.215 -2.3720 -2.2240 -1.4939
   23SAPC  C217 3047   2.225   6.362   9.014 -0.1537 -0.4067 -0.2038
   23SAPC  H17R 3048   2.169   6.455   8.991 -1.3179 -0.5233  2.0240
   23SAPC  H17S 3049   2.150   6.295   9.062  0.2670 -0.0823  0.9432
   23SAPC  C218 3050   2.263   6.309   8.879  0.4664 -0.6570 -0.4339
   23SAPC  H18R 3051   2.319   6.214   8.887  2.0717  0.2488 -0.6010
   23SAPC  H18S 3052   2.329   6.382   8.827  0.7627  0.6071  1.6606
   23SAPC  C219 3053   2.141   6.275   8.799 -0.1142 -0.0188  0.7081
   23SAPC  H19R 3054   2.071   6.361   8.787  0.4566  0.4290  0.5633
   23SAPC  H19S 3055   2.088   6.195   8.855  0.1696 -1.4574 -1.0298
   23SAPC  C220 3056   2.176   6.220   8.657  0.2419 -0.3538 -0.4549
   23SAPC  H20R 3057   2.191   6.110   8.664 -0.7207 -0.2914  4.0533
   23SAPC  H20S 3058   2.260   6.273   8.609 -1.3700  2.2424 -0.5223
   23SAPC  H20T 3059   2.090   6.242   8.589  0.2911  1.0959 -0.0649
   23SAPC   C33 3060   2.888   6.868   9.902  0.3602 -0.5183  0.0632
   23SAPC   H3X 3061   2.963   6.948   9.920  0.0474 -0.1203 -0.4013
   23SAPC   H3Y 3062   2.817   6.875   9.817 -0.4375  1.6868  0.8717
   23SAPC   C34 3063   2.965   6.735   9.882 -0.0573 -0.0754 -0.6758
   23SAPC   H4X 3064   3.052   6.724   9.950 -0.8603  0.5958  0.4738
   23SAPC   H4Y 3065   3.018   6.733   9.785 -0.8105 -2.2143 -1.0771
   23SAPC   C35 3066   2.877   6.606   9.906 -0.3440 -0.6277 -1.1218
   23SAPC   H5X 3067   2.848   6.601  10.014  0.0197 -2.3593 -1.0878
   23SAPC   H5Y 3068   2.940   6.515   9.894  1.2008 -0.0028  1.8802
   23SAPC   C36 3069   2.748   6.595   9.826  0.4500 -0.3616  0.4661
   23SAPC   H6X 3070   2.681   6.681   9.848  1.3150 -0.3519  3.2191
   23SAPC   H6Y 3071   2.699   6.501   9.859 -1.1933 -0.4886 -2.1274
   23SAPC   C37 3072   2.779   6.572   9.675  0.2865 -1.2475  0.4428
   23SAPC   H7X 3073   2.850   6.653   9.648 -0.5330 -1.1744 -1.5425
   23SAPC   H7Y 3074   2.683   6.599   9.627  0.2074 -0.0589  1.2242
   23SAPC   C38 3075   2.834   6.431   9.641  0.5132  0.5339 -0.0123
   23SAPC   H8X 3076   2.751   6.362   9.670 -0.5095  1.6644 -0.1938
   23SAPC   H8Y 3077   2.927   6.403   9.694  1.9494 -1.0079 -3.2153
   23SAPC   C39 3078   2.866   6.433   9.488 -0.3739  0.1913 -0.3364
   23SAPC   H9X 3079   2.884   6.327   9.458 -3.2784 -1.1044  2.2537
   23SAPC   H9Y 3080   2.967   6.475   9.469 -1.1707  3.2518  1.9676
   23SAPC  C310 3081   2.763   6.490   9.394  0.4114 -1.1136  0.3085
   23SAPC  H10X 3082   2.764   6.601   9.393  1.3066 -1.0558  2.8660
   23SAPC  H10Y 3083   2.667   6.453   9.436 -0.2713 -0.0420 -0.2963
   23SAPC  C311 3084   2.768   6.431   9.248 -0.3646  0.0387 -0.0285
   23SAPC  H11X 3085   2.682   6.480   9.198 -0.9364 -2.3382 -1.4221
   23SAPC  H11Y 3086   2.760   6.320   9.243  2.0178 -0.3102  2.6490
   23SAPC  C312 3087   2.894   6.470   9.174  0.0144  0.1262 -1.0663
   23SAPC  H12X 3088   2.972   6.395   9.201 -0.7212 -1.7821 -3.9566
   23SAPC  H12Y 3089   2.933   6.571   9.195 -3.9608  2.0128 -2.2111
   23SAPC  C313 3090   2.874   6.468   9.018 -0.2646 -0.0343  0.0429
   23SAPC  H13X 3091   2.807   6.550   8.984 -1.3619 -0.1548  1.8673
   23SAPC  H13Y 3092   2.840   6.369   8.979 -1.7981 -0.4778  2.4414
   23SAPC  C314 3093   3.012   6.489   8.952  0.3116  0.3104  0.3196
   23SAPC  H14X 3094   3.041   6.409   8.881 -1.2600  0.9150 -1.0190
   23SAPC  H14Y 3095   3.091   6.486   9.030  0.3973 -1.7252  0.1739
   23SAPC  C315 3096   3.025   6.629   8.883  0.0332  0.7773  0.5776
   23SAPC  H15X 3097   3.134   6.643   8.872  0.0117  1.6599  1.4517
   23SAPC  H15Y 3098   2.993   6.705   8.958 -0.1574  2.2947 -1.0004
   23SAPC  C316 3099   2.953   6.642   8.745 -0.4213 -0.0009  0.5768
   23SAPC  H16X 3100   2.846   6.645   8.776 -0.8341 -0.5569 -0.7505
   23SAPC  H16Y 3101   2.978   6.551   8.687  0.6228  0.6028  0.0657
   23SAPC  C317 3102   2.996   6.765   8.660 -0.0134 -0.0776  0.5666
   23SAPC  H17X 3103   3.104   6.756   8.637 -0.1675 -1.2394  0.2507
   23SAPC  H17Y 3104   2.982   6.859   8.717  1.5870 -0.6788  1.9850
   23SAPC  C318 3105   2.910   6.778   8.532 -0.1569  0.1037 -0.7120
   23SAPC  H18X 3106   2.932   6.874   8.482  2.3317  0.0103  0.1652
   23SAPC  H18Y 3107   2.801   6.772   8.552 -0.0067 -0.8292 -0.1515
   23SAPC  H18Z 3108   2.930   6.697   8.458  0.8318  0.7320 -1.1285
   24SAPC     N 3109   5.661   6.497  11.235  0.2652 -0.1935 -0.0913
   24SAPC   C12 3110   5.659   6.593  11.351 -0.2775  0.3448  1.3193
   24SAPC  H12A 3111   5.754   6.580  11.401  0.1585  0.9330  0.6580
   24SAPC  H12B 3112   5.573   6.579  11.414 -1.4293  2.9197  0.3941
   24SAPC   C13 3113   5.736   6.559  11.122 -0.5741 -0.9314  1.3253
   24SAPC  H13A 3114   5.681   6.638  11.073 -0.5464 -2.0072 -0.5132
   24SAPC  H13B 3115   5.833   6.591  11.156 -1.1941  1.8144  0.5772
   24SAPC  H13C 3116   5.761   6.493  11.040  1.4871  2.9117 -1.2424
   24SAPC   C14 3117   5.729   6.370  11.266  0.1260  0.3316 -0.1092
   24SAPC  H14A 3118   5.741   6.304  11.182  0.6013 -0.1073  0.3003
   24SAPC  H14B 3119   5.831   6.387  11.297  0.9566  0.1644 -2.6363
   24SAPC  H14C 3120   5.677   6.312  11.342  1.1793  1.4599  1.5081
   24SAPC   C15 3121   5.523   6.463  11.190  0.5550 -0.8304 -0.3942
   24SAPC  H15A 3122   5.474   6.552  11.153 -0.6773  0.0895  3.2361
   24SAPC  H15B 3123   5.526   6.391  11.110 -1.0221  0.0680 -1.3017
   24SAPC  H15C 3124   5.463   6.432  11.275  0.7183 -0.3913 -0.1141
   24SAPC   C11 3125   5.657   6.743  11.313 -0.4419  0.2802  0.2412
   24SAPC  H11A 3126   5.750   6.777  11.263 -0.8243 -1.6799 -1.9369
   24SAPC  H11B 3127   5.634   6.797  11.407 -2.3170 -0.0141 -0.0309
   24SAPC     P 3128   5.554   6.874  11.107  0.2153 -0.3339 -0.1757
   24SAPC   O13 3129   5.566   7.007  11.171  0.1620 -0.4375  0.4653
   24SAPC   O14 3130   5.662   6.830  11.013  0.0060 -0.8763  0.2441
   24SAPC   O12 3131   5.544   6.769  11.226  0.0589 -0.1913 -0.5313
   24SAPC   O11 3132   5.411   6.862  11.036  0.2164  0.3990  0.0511
   24SAPC    C1 3133   5.378   6.728  10.987  0.4297 -0.1097  0.4786
   24SAPC    HA 3134   5.453   6.648  11.003  1.5831  0.8180 -0.2261
   24SAPC    HB 3135   5.288   6.695  11.043  0.5693  0.6326  1.1452
   24SAPC    C2 3136   5.333   6.732  10.838 -0.1508  0.3585 -0.2468
   24SAPC    HS 3137   5.291   6.632  10.817 -1.2946  0.9486 -0.7908
   24SAPC   O21 3138   5.442   6.763  10.756  0.0858 -0.4731  0.1725
   24SAPC   C21 3139   5.532   6.674  10.746  0.2207  0.3787 -0.4841
   24SAPC   O22 3140   5.526   6.558  10.786 -0.3221 -0.2347 -0.1971
   24SAPC   C22 3141   5.654   6.735  10.669  0.1252  0.0702  0.2397
   24SAPC   H2R 3142   5.694   6.812  10.739  1.2166 -1.2514  1.0922
   24SAPC   H2S 3143   5.725   6.651  10.653 -2.2272 -1.9032 -0.1574
   24SAPC    C3 3144   5.224   6.832  10.807 -0.6537 -0.2131 -0.2104
   24SAPC    HX 3145   5.266   6.922  10.856  1.1194 -2.4473  2.5482
   24SAPC    HY 3146   5.135   6.787  10.857  2.1941 -2.4597  3.0448
   24SAPC   O31 3147   5.206   6.847  10.662 -0.1516  0.3774 -0.2304
   24SAPC   C31 3148   5.215   6.973  10.618 -0.4898 -0.0908 -0.6402
   24SAPC   O32 3149   5.213   7.072  10.685  0.2667 -0.1607 -0.2408
   24SAPC   C32 3150   5.214   6.973  10.466  0.2497 -0.2639 -0.6625
   24SAPC   H2X 3151   5.293   6.899  10.440  1.3142  0.4558  0.4034
   24SAPC   H2Y 3152   5.249   7.076  10.440  1.8939 -0.8123 -0.6873
   24SAPC   C23 3153   5.624   6.788  10.530  0.1252 -0.0586 -0.4187
   24SAPC   H3R 3154   5.556   6.877  10.532 -0.6697 -0.6716  0.2491
   24SAPC   H3S 3155   5.576   6.710  10.467  0.3966 -0.3987 -0.1991
   24SAPC   C24 3156   5.743   6.830  10.447 -0.8186 -0.4440 -0.4256
   24SAPC   H4R 3157   5.713   6.883  10.354  0.1490  1.9377  0.5927
   24SAPC   H4S 3158   5.799   6.742  10.408 -0.1722 -0.3591  0.3059
   24SAPC   C25 3159   5.840   6.923  10.516  0.2842  0.4112  0.0947
   24SAPC   H5R 3160   5.833   6.933  10.625 -0.8060 -0.6608  0.1342
   24SAPC   C26 3161   5.932   6.995  10.453  0.3656 -0.2815 -0.4047
   24SAPC   H6R 3162   6.001   7.050  10.519  1.0779 -1.0320 -0.5147
   24SAPC   C27 3163   5.965   7.001  10.307 -0.2261 -0.6033 -0.2406
   24SAPC   H7R 3164   5.884   6.963  10.242  1.9555 -2.1509 -2.1363
   24SAPC   H7S 3165   6.058   6.940  10.299 -0.7894 -1.7843  1.9248
   24SAPC   C28 3166   6.003   7.136  10.248  0.1035  0.7433  0.2626
   24SAPC   H8R 3167   5.947   7.220  10.291  1.6770  1.1056  1.6756
   24SAPC   C29 3168   6.094   7.161  10.147  0.0116 -0.0502 -0.3970
   24SAPC   H9R 3169   6.107   7.268  10.125 -4.6411  0.0942 -3.2039
   24SAPC  C210 3170   6.174   7.055  10.071  0.2793  0.2246  0.2816
   24SAPC  H10R 3171   6.103   6.971  10.053  0.8528 -0.1221 -0.3718
   24SAPC  H10S 3172   6.251   7.007  10.136 -0.6067 -2.6196 -0.6785
   24SAPC  C211 3173   6.235   7.102   9.943  0.3111  0.1161 -0.2285
   24SAPC  H11R 3174   6.185   7.073   9.849  0.0637  0.8907 -0.3408
   24SAPC  C212 3175   6.353   7.169   9.931 -0.0324  0.1710  0.0076
   24SAPC  H12R 3176   6.387   7.215   9.837  0.5436 -1.0072 -0.3815
   24SAPC  C213 3177   6.423   7.214  10.052  0.2031  0.8109 -0.2160
   24SAPC  H13R 3178   6.462   7.122  10.103  0.9812  1.7201  0.8535
   24SAPC  H13S 3179   6.340   7.248  10.117 -1.5268 -1.6236 -1.0657
   24SAPC  C214 3180   6.540   7.310  10.044 -0.4596  0.3108 -0.3694
   24SAPC  H14R 3181   6.629   7.274   9.988 -0.0838  1.0569 -0.2495
   24SAPC  C215 3182   6.552   7.429  10.101 -0.6246 -0.3624 -0.3301
   24SAPC  H15R 3183   6.644   7.488  10.089 -1.1787  0.6908  0.4902
   24SAPC  C216 3184   6.461   7.488  10.207  0.1358  0.1303  0.7843
   24SAPC  H16R 3185   6.361   7.442  10.195  0.0033  0.4671  0.6061
   24SAPC  H16S 3186   6.462   7.598  10.189 -0.9051  0.2607  1.5202
   24SAPC  C217 3187   6.509   7.456  10.353 -0.2817  0.8175 -0.1512
   24SAPC  H17R 3188   6.443   7.527  10.409 -1.7862 -2.3274  2.2425
   24SAPC  H17S 3189   6.610   7.500  10.341  0.0118  0.1629 -0.0713
   24SAPC  C218 3190   6.503   7.316  10.409  0.3234 -0.5956 -0.0851
   24SAPC  H18R 3191   6.575   7.258  10.346  0.2232  0.6772 -1.4052
   24SAPC  H18S 3192   6.399   7.277  10.399  0.7363 -1.3576 -1.5493
   24SAPC  C219 3193   6.556   7.303  10.554  0.0444  0.5060  0.2426
   24SAPC  H19R 3194   6.655   7.351  10.564  0.5371 -0.8599  2.3072
   24SAPC  H19S 3195   6.565   7.196  10.584  3.2990  0.9864  1.0999
   24SAPC  C220 3196   6.471   7.385  10.644 -0.2126  0.7860 -0.4835
   24SAPC  H20R 3197   6.370   7.343  10.660 -0.1639  1.4152  1.7396
   24SAPC  H20S 3198   6.453   7.489  10.608  0.0296  1.5674  1.5200
   24SAPC  H20T 3199   6.514   7.399  10.746  0.6754 -0.6284 -0.6542
   24SAPC   C33 3200   5.076   6.952  10.397 -0.4339 -0.1201  0.2821
   24SAPC   H3X 3201   5.012   7.040  10.417  0.4347  0.8730 -1.1739
   24SAPC   H3Y 3202   5.030   6.866  10.448  2.2307 -2.0720 -0.4842
   24SAPC   C34 3203   5.083   6.942  10.243  0.1538 -0.0429 -0.4649
   24SAPC   H4X 3204   5.114   6.840  10.214 -0.6737  0.0537 -1.7262
   24SAPC   H4Y 3205   5.159   7.018  10.214 -1.3250  1.0874 -1.4786
   24SAPC   C35 3206   4.949   6.962  10.176  0.3692 -0.2759 -0.1397
   24SAPC   H5X 3207   4.889   7.039  10.230 -3.3874 -1.5796 -2.2507
   24SAPC   H5Y 3208   4.905   6.865  10.206  0.6067 -0.1708  0.5606
   24SAPC   C36 3209   4.955   6.980  10.024  0.1708  0.2007  0.6692
   24SAPC   H6X 3210   4.860   6.986   9.968  0.9200 -2.7696 -1.0182
   24SAPC   H6Y 3211   5.006   6.897   9.972 -2.1838 -0.1786 -1.1028
   24SAPC   C37 3212   5.035   7.114   9.985  0.7606 -0.1629 -0.2439
   24SAPC   H7X 3213   5.140   7.101  10.018  0.6764 -1.6755 -0.5224
   24SAPC   H7Y 3214   4.976   7.201  10.022  1.0470  0.2653 -0.7734
   24SAPC   C38 3215   5.043   7.139   9.833  0.0954 -0.1337 -0.2963
   24SAPC   H8X 3216   5.108   7.062   9.786 -1.4601 -1.6695  0.0258
   24SAPC   H8Y 3217   5.078   7.241   9.806 -4.2278  1.0984 -1.6286
   24SAPC   C39 3218   4.912   7.142   9.751  0.1400 -0.2061 -0.5739
   24SAPC   H9X 3219   4.845   7.229   9.771 -1.2821 -1.3142 -0.4212
   24SAPC   H9Y 3220   4.843   7.058   9.775  0.4007 -0.0380  0.8052
   24SAPC  C310 3221   4.940   7.147   9.596 -0.0295 -0.6556  0.4782
   24SAPC  H10X 3222   4.997   7.239   9.571  0.9451 -0.4231  3.3735
   24SAPC  H10Y 3223   4.836   7.162   9.560 -0.4892 -3.3840  0.5741
   24SAPC  C311 3224   5.003   7.022   9.540  1.0156  0.3972 -0.3337
   24SAPC  H11X 3225   4.941   6.934   9.570  2.5627 -0.7380 -0.4022
   24SAPC  H11Y 3226   5.106   7.003   9.579  0.7105  0.5200  0.5486
   24SAPC  C312 3227   5.022   7.036   9.393 -0.3249 -0.5445  0.4168
   24SAPC  H12X 3228   5.082   7.127   9.374  0.1188 -1.4416 -2.8842
   24SAPC  H12Y 3229   4.922   7.035   9.344  0.7083  0.5345 -1.7776
   24SAPC  C313 3230   5.092   6.912   9.336 -0.0755  0.3216 -0.0330
   24SAPC  H13X 3231   5.018   6.833   9.361  0.7081 -0.5078 -0.3205
   24SAPC  H13Y 3232   5.165   6.891   9.418  0.3238  0.5352 -0.3365
   24SAPC  C314 3233   5.154   6.922   9.195 -0.3300 -0.5906  0.4347
   24SAPC  H14X 3234   5.073   6.946   9.122 -1.7618  0.8141  2.4088
   24SAPC  H14Y 3235   5.195   6.824   9.163  1.1568  0.1379  0.0794
   24SAPC  C315 3236   5.267   7.034   9.181 -0.8651 -0.4041 -1.7511
   24SAPC  H15X 3237   5.355   6.977   9.218 -0.8405 -0.2465 -1.5628
   24SAPC  H15Y 3238   5.242   7.128   9.235 -1.2542 -1.7971  0.5884
   24SAPC  C316 3239   5.310   7.089   9.043 -0.3333 -0.4907  0.1541
   24SAPC  H16X 3240   5.334   7.002   8.977 -1.2449  0.2029 -1.1226
   24SAPC  H16Y 3241   5.402   7.151   9.051 -0.0515 -0.7523 -0.9370
   24SAPC  C317 3242   5.204   7.177   8.980 -0.6156  0.9745  0.5998
   24SAPC  H17X 3243   5.171   7.257   9.050  0.2219  3.2645 -1.5181
   24SAPC  H17Y 3244   5.113   7.119   8.954 -0.2141  1.2716 -1.5261
   24SAPC  C318 3245   5.253   7.237   8.847  0.0367  0.1580 -0.1140
   24SAPC  H18X 3246   5.175   7.303   8.802  1.6022  1.1617 -1.4474
   24SAPC  H18Y 3247   5.292   7.156   8.782 -2.5660 -2.0504  1.0163
   24SAPC  H18Z 3248   5.345   7.298   8.863 -0.7082  0.4906  3.1343
   25SAPC     N 3249   0.928   4.178   5.930  0.1904  0.5134 -0.5029
   25SAPC   C12 3250   0.931   4.240   6.068  0.2058 -0.1545 -0.2146
   25SAPC  H12A 3251   0.982   4.170   6.132  1.6922  2.7842  1.9171
   25SAPC  H12B 3252   0.830   4.259   6.101  0.0734 -0.5119 -0.4070
   25SAPC   C13 3253   0.861   4.255   5.838  0.1661 -0.3970 -0.2482
   25SAPC  H13A 3254   0.753   4.259   5.842  0.0625 -0.7205 -2.1605
   25SAPC  H13B 3255   0.900   4.355   5.837  0.6505 -0.5159  2.9606
   25SAPC  H13C 3256   0.882   4.222   5.737 -0.1073 -0.2719 -0.3465
   25SAPC   C14 3257   1.061   4.130   5.877 -0.0009  0.0368  0.1324
   25SAPC  H14A 3258   1.054   4.023   5.873 -1.4703  0.1653 -1.2625
   25SAPC  H14B 3259   1.071   4.141   5.770 -2.3069  1.2359 -0.0165
   25SAPC  H14C 3260   1.148   4.159   5.933  1.3222 -0.9867 -1.3516
   25SAPC   C15 3261   0.836   4.057   5.956  0.1315 -0.1261  0.2567
   25SAPC  H15A 3262   0.736   4.082   5.990  0.2439 -0.1269  0.5919
   25SAPC  H15B 3263   0.811   4.005   5.865 -3.0891  1.4660  0.1534
   25SAPC  H15C 3264   0.879   3.985   6.024  1.0459 -0.1705 -0.3625
   25SAPC   C11 3265   1.005   4.372   6.080  0.0082 -0.2164 -0.7556
   25SAPC  H11A 3266   0.989   4.407   6.184 -1.8232 -1.4856 -0.6027
   25SAPC  H11B 3267   0.970   4.457   6.016 -2.4378  1.1498  2.2539
   25SAPC     P 3268   1.226   4.279   6.165 -0.1165  0.2041  0.1157
   25SAPC   O13 3269   1.143   4.202   6.257 -0.0387 -0.6870  0.4885
   25SAPC   O14 3270   1.320   4.199   6.085  0.3464  0.1157  0.0015
   25SAPC   O12 3271   1.146   4.365   6.058 -0.4377 -0.3749 -0.3893
   25SAPC   O11 3272   1.313   4.380   6.251 -0.3299 -0.0953  0.5959
   25SAPC    C1 3273   1.248   4.474   6.339  0.3928  0.2633  0.5169
   25SAPC    HA 3274   1.265   4.581   6.313 -0.6807  0.3298  0.0715
   25SAPC    HB 3275   1.138   4.466   6.329  0.3415  1.7306 -0.1705
   25SAPC    C2 3276   1.297   4.464   6.487  0.2949  0.3729  1.5110
   25SAPC    HS 3277   1.406   4.478   6.472 -0.0102 -0.1005 -1.3992
   25SAPC   O21 3278   1.266   4.340   6.540  0.1626  0.0672 -0.0154
   25SAPC   C21 3279   1.350   4.282   6.610  1.2801 -0.1231  0.3383
   25SAPC   O22 3280   1.469   4.314   6.624  0.2636  0.5386 -0.3498
   25SAPC   C22 3281   1.296   4.169   6.693  0.1121  0.3275 -0.6008
   25SAPC   H2R 3282   1.188   4.193   6.706  0.0477  0.3411 -1.1791
   25SAPC   H2S 3283   1.300   4.082   6.625  1.4456  1.0359 -1.4472
   25SAPC    C3 3284   1.225   4.577   6.568  0.1282 -0.0905 -1.2631
   25SAPC    HX 3285   1.119   4.544   6.572 -0.4504  1.7446  5.0773
   25SAPC    HY 3286   1.225   4.678   6.522  2.4931  0.2957 -0.4924
   25SAPC   O31 3287   1.266   4.579   6.707  0.1959  0.7140  0.2235
   25SAPC   C31 3288   1.351   4.677   6.730 -0.4733 -0.0085  0.3825
   25SAPC   O32 3289   1.408   4.745   6.648 -0.0898 -0.2958  0.1282
   25SAPC   C32 3290   1.363   4.672   6.887  0.7183  0.1034  0.2523
   25SAPC   H2X 3291   1.452   4.609   6.910  2.0250  1.5066 -0.8437
   25SAPC   H2Y 3292   1.274   4.621   6.929 -0.1293 -0.7360 -2.4855
   25SAPC   C23 3293   1.374   4.141   6.818  0.1807  0.4364 -0.2499
   25SAPC   H3R 3294   1.364   4.217   6.899  1.5264  0.2664  0.0872
   25SAPC   H3S 3295   1.482   4.136   6.790  0.3302 -0.8745  0.5411
   25SAPC   C24 3296   1.342   3.991   6.860 -0.0067 -0.4870 -0.4602
   25SAPC   H4R 3297   1.396   3.936   6.780  0.2164  0.0212 -0.6657
   25SAPC   H4S 3298   1.232   3.976   6.858  0.1223 -1.4466 -0.4220
   25SAPC   C25 3299   1.399   3.965   6.996 -0.3663 -0.3994 -0.2964
   25SAPC   H5R 3300   1.508   3.979   7.004 -0.4209 -0.1728  0.0214
   25SAPC   C26 3301   1.347   3.883   7.086  0.2596  0.1389 -0.0985
   25SAPC   H6R 3302   1.385   3.879   7.189 -1.1792 -0.9845  0.4098
   25SAPC   C27 3303   1.217   3.809   7.080 -0.0640  0.7790 -0.3244
   25SAPC   H7R 3304   1.173   3.807   6.978 -0.3034  1.1763 -0.2264
   25SAPC   H7S 3305   1.146   3.863   7.146  0.3092  1.9335 -0.8624
   25SAPC   C28 3306   1.232   3.656   7.114  0.6217 -0.1007  0.3640
   25SAPC   H8R 3307   1.287   3.593   7.043  0.4896  0.9326 -0.6815
   25SAPC   C29 3308   1.184   3.598   7.228 -0.3105 -0.0894  0.1728
   25SAPC   H9R 3309   1.198   3.489   7.232  0.0828 -0.0493 -0.1482
   25SAPC  C210 3310   1.120   3.658   7.347  0.4165 -0.0685 -0.0714
   25SAPC  H10R 3311   1.181   3.748   7.368 -0.8589  1.2843 -1.9903
   25SAPC  H10S 3312   1.122   3.581   7.428  2.1628  0.1802  0.1289
   25SAPC  C211 3313   0.979   3.703   7.319  0.1064  0.8021  0.2438
   25SAPC  H11R 3314   0.950   3.661   7.222  1.6479 -0.4077  0.2822
   25SAPC  C212 3315   0.907   3.787   7.394 -0.0031  0.3913 -0.0542
   25SAPC  H12R 3316   0.808   3.821   7.361  0.0615 -1.1402 -1.8812
   25SAPC  C213 3317   0.957   3.848   7.518 -0.3305 -0.4637 -0.9208
   25SAPC  H13R 3318   1.047   3.796   7.559 -0.0568  1.3686  0.8750
   25SAPC  H13S 3319   0.885   3.830   7.600 -0.1236 -0.8618 -0.8223
   25SAPC  C214 3320   1.004   3.992   7.519  0.4557  0.6543 -0.0106
   25SAPC  H14R 3321   1.092   4.016   7.457  3.1443 -0.2635  3.2878
   25SAPC  C215 3322   0.947   4.094   7.589 -0.2217 -0.4860 -0.3527
   25SAPC  H15R 3323   1.006   4.187   7.587 -0.8851 -0.0660 -0.4760
   25SAPC  C216 3324   0.828   4.091   7.684 -0.4736  0.6328 -0.1476
   25SAPC  H16R 3325   0.785   3.990   7.695 -0.3612  0.8487  2.6718
   25SAPC  H16S 3326   0.741   4.147   7.643 -0.8714 -0.9463 -1.5011
   25SAPC  C217 3327   0.857   4.131   7.830 -0.3185  1.0160  0.4672
   25SAPC  H17R 3328   0.950   4.074   7.852 -0.7864 -1.2959 -3.1607
   25SAPC  H17S 3329   0.773   4.094   7.892  0.0315  1.6645  1.3332
   25SAPC  C218 3330   0.861   4.285   7.847 -0.1889 -0.6648 -0.2574
   25SAPC  H18R 3331   0.787   4.317   7.771 -3.5976 -5.6956  0.7140
   25SAPC  H18S 3332   0.959   4.329   7.817  0.1671 -1.6836 -0.6366
   25SAPC  C219 3333   0.830   4.328   7.994  0.4005 -0.4312  0.2849
   25SAPC  H19R 3334   0.720   4.331   8.009  0.3998 -2.2548  0.7483
   25SAPC  H19S 3335   0.862   4.434   8.001 -2.3818  0.4236  0.6086
   25SAPC  C220 3336   0.888   4.233   8.093  0.0402  0.1165 -0.2663
   25SAPC  H20R 3337   0.865   4.278   8.192 -0.2629 -0.0649 -0.2557
   25SAPC  H20S 3338   0.997   4.228   8.076 -0.0519 -3.0139 -0.2946
   25SAPC  H20T 3339   0.836   4.135   8.086  2.4739 -1.2685  0.6821
   25SAPC   C33 3340   1.375   4.808   6.955  0.2658  0.1058  1.1932
   25SAPC   H3X 3341   1.276   4.857   6.943  0.3074  0.0217  0.5074
   25SAPC   H3Y 3342   1.450   4.868   6.898 -1.0491  0.5557 -0.1001
   25SAPC   C34 3343   1.428   4.780   7.095 -0.0034  0.9793  0.3756
   25SAPC   H4X 3344   1.520   4.719   7.080 -1.8814 -1.3843 -2.0846
   25SAPC   H4Y 3345   1.359   4.716   7.154  0.0428 -0.6846 -1.3116
   25SAPC   C35 3346   1.453   4.901   7.181  0.3416 -0.6026 -0.3133
   25SAPC   H5X 3347   1.362   4.963   7.197  0.2113 -0.1518 -2.7099
   25SAPC   H5Y 3348   1.524   4.963   7.122 -1.1081  0.1891 -1.2335
   25SAPC   C36 3349   1.509   4.871   7.328  0.0006  0.2263  0.4870
   25SAPC   H6X 3350   1.599   4.807   7.315 -1.1538 -1.0483 -1.4770
   25SAPC   H6Y 3351   1.429   4.811   7.376 -0.5861 -0.3944 -1.2398
   25SAPC   C37 3352   1.544   4.997   7.415  0.2093 -0.0121 -0.3421
   25SAPC   H7X 3353   1.456   5.065   7.414  0.2298  0.0115 -1.7780
   25SAPC   H7Y 3354   1.627   5.050   7.364  0.4408  0.9337  1.0065
   25SAPC   C38 3355   1.572   4.972   7.560  0.0118 -0.4592 -0.1236
   25SAPC   H8X 3356   1.606   5.066   7.610 -0.9796  0.8904 -1.9409
   25SAPC   H8Y 3357   1.660   4.906   7.577  0.8261  1.2352  2.5331
   25SAPC   C39 3358   1.463   4.906   7.641 -0.2608 -0.0633 -0.0347
   25SAPC   H9X 3359   1.453   4.798   7.617 -0.9652 -0.2220  0.9629
   25SAPC   H9Y 3360   1.363   4.940   7.607  0.4442  2.1319  0.0120
   25SAPC  C310 3361   1.479   4.925   7.798 -0.1019  0.2384 -0.1506
   25SAPC  H10X 3362   1.387   4.885   7.845 -0.6891  2.2286  0.4107
   25SAPC  H10Y 3363   1.496   5.032   7.821  1.7471 -0.1172  0.2065
   25SAPC  C311 3364   1.596   4.834   7.850  0.4237  0.3704 -0.1042
   25SAPC  H11X 3365   1.691   4.881   7.817  0.2654  0.4056 -0.5117
   25SAPC  H11Y 3366   1.574   4.739   7.796  2.3216  0.1921 -0.5972
   25SAPC  C312 3367   1.585   4.781   7.996  0.0739  0.5904  0.0907
   25SAPC  H12X 3368   1.679   4.727   8.022 -0.6387 -0.1136  1.2452
   25SAPC  H12Y 3369   1.504   4.708   8.018 -0.3637  0.6017 -1.4414
   25SAPC  C313 3370   1.564   4.893   8.094  0.0286 -0.1644 -0.2930
   25SAPC  H13X 3371   1.500   4.968   8.043 -0.0614 -0.6275 -0.8576
   25SAPC  H13Y 3372   1.659   4.949   8.113 -0.0172 -1.1813  3.2442
   25SAPC  C314 3373   1.514   4.860   8.235 -0.4446 -0.4283 -0.0987
   25SAPC  H14X 3374   1.509   4.959   8.285  2.0575  0.8408 -2.2356
   25SAPC  H14Y 3375   1.587   4.799   8.294  0.5691 -0.0581 -0.9503
   25SAPC  C315 3376   1.374   4.796   8.238  0.0695 -0.1352  0.3916
   25SAPC  H15X 3377   1.337   4.789   8.342  0.8818  1.8403  0.8387
   25SAPC  H15Y 3378   1.383   4.692   8.201  1.6513 -0.9431  2.9152
   25SAPC  C316 3379   1.267   4.845   8.140  0.3616 -0.0180  0.2508
   25SAPC  H16X 3380   1.297   4.848   8.033 -0.1199  0.5001  0.1275
   25SAPC  H16Y 3381   1.235   4.944   8.177 -3.4361 -1.1410  0.2207
   25SAPC  C317 3382   1.135   4.770   8.160 -0.6486 -0.4234 -0.5113
   25SAPC  H17X 3383   1.114   4.780   8.268  2.3607  0.2269  0.0544
   25SAPC  H17Y 3384   1.147   4.663   8.132  0.1379 -0.0178 -1.7788
   25SAPC  C318 3385   1.027   4.851   8.081  0.3247 -0.3656  0.2113
   25SAPC  H18X 3386   1.017   4.961   8.096 -0.2160 -0.1724 -1.4903
   25SAPC  H18Y 3387   0.928   4.805   8.102  0.2297 -0.8477 -1.2349
   25SAPC  H18Z 3388   1.046   4.833   7.973  1.5240 -2.1232  0.6851
   26SAPC     N 3389   1.847   0.312   6.108  0.3902 -0.0940  0.2622
   26SAPC   C12 3390   1.803   0.333   6.252  0.1220 -0.4945 -0.2333
   26SAPC  H12A 3391   1.705   0.379   6.249 -1.9928 -4.7366 -0.2137
   26SAPC  H12B 3392   1.860   0.412   6.299  0.2408 -1.3696  1.1397
   26SAPC   C13 3393   1.874   0.449   6.047  0.3243 -0.1669 -0.0845
   26SAPC  H13A 3394   1.916   0.519   6.118  2.1996  1.0134 -2.2597
   26SAPC  H13B 3395   1.947   0.438   5.967  1.4768 -0.9193  1.0515
   26SAPC  H13C 3396   1.784   0.488   6.001  0.4771  2.2949  1.6328
   26SAPC   C14 3397   1.981   0.232   6.104 -0.2871 -0.5353  0.2480
   26SAPC  H14A 3398   1.975   0.136   6.153 -0.1347 -1.5463 -1.6486
   26SAPC  H14B 3399   2.013   0.214   6.002 -2.1603 -0.8268 -0.3240
   26SAPC  H14C 3400   2.055   0.289   6.157 -0.3762  0.9332 -1.1698
   26SAPC   C15 3401   1.741   0.241   6.034  0.3079 -0.1099 -0.1710
   26SAPC  H15A 3402   1.764   0.208   5.934 -1.2876  1.4382 -1.0810
   26SAPC  H15B 3403   1.707   0.154   6.089 -0.0175  1.3568  2.0203
   26SAPC  H15C 3404   1.654   0.301   6.015  1.1029  1.9734  2.3748
   26SAPC   C11 3405   1.799   0.215   6.349  0.1774  0.2586 -0.0543
   26SAPC  H11A 3406   1.793   0.253   6.453  0.9403  0.5506 -0.1089
   26SAPC  H11B 3407   1.897   0.164   6.339  0.6540  1.5061 -2.1586
   26SAPC     P 3408   1.553   0.137   6.368  0.0017 -0.0898 -0.4574
   26SAPC   O13 3409   1.508   0.273   6.351  0.2518 -0.2767  0.2605
   26SAPC   O14 3410   1.469   0.032   6.299  0.1074 -0.6131  0.2651
   26SAPC   O12 3411   1.699   0.116   6.316 -0.3805  0.0251 -0.6281
   26SAPC   O11 3412   1.556   0.107   6.516 -0.0556 -0.3841  0.1459
   26SAPC    C1 3413   1.650  -0.000   6.570 -0.0195  0.2201  0.3915
   26SAPC    HA 3414   1.744  -0.019   6.513 -0.4036 -1.8891  0.4277
   26SAPC    HB 3415   1.696   0.024   6.668 -0.4288 -0.6711  0.8060
   26SAPC    C2 3416   1.578  -0.128   6.601  0.9532  0.8293  0.5006
   26SAPC    HS 3417   1.555  -0.171   6.501  1.9048 -0.2884  0.7451
   26SAPC   O21 3418   1.463  -0.095   6.681  0.5827  0.2727 -0.2342
   26SAPC   C21 3419   1.366  -0.182   6.675 -0.2713  0.0301  0.2713
   26SAPC   O22 3420   1.342  -0.262   6.582  0.4347 -0.5609 -0.7366
   26SAPC   C22 3421   1.271  -0.155   6.788 -0.3209  0.0991  0.0185
   26SAPC   H2R 3422   1.331  -0.166   6.882 -1.9112  3.5316  1.5157
   26SAPC   H2S 3423   1.224  -0.056   6.770 -1.3707 -0.4035 -0.0314
   26SAPC    C3 3424   1.666  -0.232   6.679  0.2293 -0.0351 -0.0128
   26SAPC    HX 3425   1.746  -0.262   6.608  0.1103  0.2494 -0.2718
   26SAPC    HY 3426   1.611  -0.327   6.694 -1.5982  0.6986 -1.7530
   26SAPC   O31 3427   1.715  -0.169   6.800 -0.5644  0.2733 -0.8055
   26SAPC   C31 3428   1.663  -0.200   6.924  0.4065 -0.1835  0.3087
   26SAPC   O32 3429   1.583  -0.288   6.946  0.2017  0.4599 -0.1764
   26SAPC   C32 3430   1.726  -0.109   7.029 -0.5047  0.3069  0.3868
   26SAPC   H2X 3431   1.694  -0.005   7.006 -0.4823  0.4842  1.1361
   26SAPC   H2Y 3432   1.836  -0.120   7.018 -0.6678 -0.7969 -0.2546
   26SAPC   C23 3433   1.158  -0.252   6.787 -0.0442  0.2630  0.7449
   26SAPC   H3R 3434   1.117  -0.266   6.684  1.0226  1.1646  0.1761
   26SAPC   H3S 3435   1.070  -0.218   6.844  0.3600  0.2706  1.3697
   26SAPC   C24 3436   1.210  -0.385   6.838  0.1739  0.3354  0.2299
   26SAPC   H4R 3437   1.269  -0.371   6.931 -0.7481  0.0934  0.8524
   26SAPC   H4S 3438   1.273  -0.432   6.759  0.2106  1.4712 -0.4270
   26SAPC   C25 3439   1.087  -0.470   6.865 -0.2393  0.2164 -0.0846
   26SAPC   H5R 3440   1.074  -0.540   6.782  0.8216 -0.0246 -0.0519
   26SAPC   C26 3441   1.012  -0.474   6.975 -0.4436 -0.8781 -0.2477
   26SAPC   H6R 3442   0.925  -0.541   6.979  0.6365 -2.2139  2.6118
   26SAPC   C27 3443   1.023  -0.385   7.093  0.1598  0.1992  0.5706
   26SAPC   H7R 3444   0.954  -0.299   7.081  0.7934  0.6661  0.2492
   26SAPC   H7S 3445   1.128  -0.349   7.104  0.3904 -0.4042  0.3954
   26SAPC   C28 3446   0.996  -0.459   7.225  0.5361  0.1131 -1.2247
   26SAPC   H8R 3447   0.892  -0.486   7.248  1.1496 -1.8076 -0.6608
   26SAPC   C29 3448   1.086  -0.504   7.319 -0.0784  0.1719 -0.1940
   26SAPC   H9R 3449   1.058  -0.562   7.408  0.4028 -2.3149 -1.6089
   26SAPC  C210 3450   1.235  -0.495   7.302 -0.0467 -0.3752 -0.4560
   26SAPC  H10R 3451   1.250  -0.522   7.196  1.1254 -1.8818  0.0583
   26SAPC  H10S 3452   1.281  -0.579   7.359  0.9154  1.0064  0.8485
   26SAPC  C211 3453   1.296  -0.362   7.341 -0.4020  0.2996  0.0463
   26SAPC  H11R 3454   1.313  -0.290   7.260  0.0026 -0.4379 -0.5328
   26SAPC  C212 3455   1.321  -0.315   7.465 -0.4445 -0.3398  0.3897
   26SAPC  H12R 3456   1.374  -0.219   7.476  0.6637 -0.6753 -1.6279
   26SAPC  C213 3457   1.294  -0.381   7.597 -0.0740  0.0364 -0.2692
   26SAPC  H13R 3458   1.376  -0.348   7.665  1.1423 -2.1462 -0.6229
   26SAPC  H13S 3459   1.306  -0.492   7.598  1.5370  0.1648  2.3695
   26SAPC  C214 3460   1.153  -0.357   7.652 -0.0015 -0.3545  0.1662
   26SAPC  H14R 3461   1.067  -0.337   7.585 -0.6485  1.0309  1.3832
   26SAPC  C215 3462   1.122  -0.385   7.782 -0.3744 -0.6703 -0.1770
   26SAPC  H15R 3463   1.025  -0.344   7.813 -0.7206 -0.4769 -1.5156
   26SAPC  C216 3464   1.205  -0.428   7.896 -0.0610 -0.1549 -0.0561
   26SAPC  H16R 3465   1.291  -0.486   7.856 -0.1091 -0.6891  0.6151
   26SAPC  H16S 3466   1.142  -0.498   7.955 -0.9486  0.5510 -0.1484
   26SAPC  C217 3467   1.255  -0.320   7.989  0.0781  0.0380 -0.2506
   26SAPC  H17R 3468   1.163  -0.278   8.037  1.7377  2.4694  0.9180
   26SAPC  H17S 3469   1.316  -0.233   7.957 -0.0513  0.6532  1.1338
   26SAPC  C218 3470   1.323  -0.387   8.107 -0.9065  0.6988 -0.2267
   26SAPC  H18R 3471   1.420  -0.434   8.079 -0.8842 -0.7125  2.0297
   26SAPC  H18S 3472   1.254  -0.460   8.155 -1.6024 -2.0555 -5.1052
   26SAPC  C219 3473   1.358  -0.283   8.213 -0.2674 -0.2605  0.1498
   26SAPC  H19R 3474   1.262  -0.240   8.249 -0.5887 -1.0488  0.2516
   26SAPC  H19S 3475   1.409  -0.195   8.169 -0.9181 -0.4952 -1.1275
   26SAPC  C220 3476   1.445  -0.351   8.318  0.2727  0.3602 -0.2559
   26SAPC  H20R 3477   1.374  -0.419   8.370  0.0004  0.7542 -0.1031
   26SAPC  H20S 3478   1.490  -0.284   8.395 -1.2771 -0.3698  1.3348
   26SAPC  H20T 3479   1.521  -0.410   8.264 -0.3091 -0.0080 -0.6751
   26SAPC   C33 3480   1.695  -0.148   7.181 -0.3880  0.4585  0.2077
   26SAPC   H3X 3481   1.734  -0.250   7.200  0.2306  1.3547  4.1793
   26SAPC   H3Y 3482   1.585  -0.160   7.184 -0.2575 -1.3970 -1.4910
   26SAPC   C34 3483   1.736  -0.039   7.285  0.2580 -0.0634 -0.0716
   26SAPC   H4X 3484   1.678   0.051   7.258 -2.8650 -1.0917  2.9231
   26SAPC   H4Y 3485   1.846  -0.022   7.284  0.2430  0.0997  0.7952
   26SAPC   C35 3486   1.693  -0.073   7.430  0.0765 -0.1669  0.6475
   26SAPC   H5X 3487   1.759  -0.159   7.454  0.7435  0.8669  2.6641
   26SAPC   H5Y 3488   1.586  -0.101   7.429 -0.3590  1.4603 -0.2623
   26SAPC   C36 3489   1.692   0.044   7.529  0.2039 -0.3991  0.0695
   26SAPC   H6X 3490   1.631   0.130   7.495  0.7485  0.4795  1.2978
   26SAPC   H6Y 3491   1.794   0.083   7.549  0.8716 -2.4163  0.7840
   26SAPC   C37 3492   1.639   0.006   7.671  0.3177  0.0121  0.4132
   26SAPC   H7X 3493   1.551  -0.061   7.657 -0.1393  0.6741  0.0822
   26SAPC   H7Y 3494   1.594   0.097   7.717 -0.6563  0.6858 -1.7568
   26SAPC   C38 3495   1.753  -0.064   7.747  0.3903 -0.5940  0.1867
   26SAPC   H8X 3496   1.843   0.000   7.736  0.6032 -0.6269  1.6867
   26SAPC   H8Y 3497   1.773  -0.158   7.692  2.2362 -0.6343  0.9041
   26SAPC   C39 3498   1.705  -0.100   7.893  0.5848  0.2240  0.8362
   26SAPC   H9X 3499   1.741  -0.203   7.912  1.5520  0.2581 -0.6833
   26SAPC   H9Y 3500   1.595  -0.111   7.884  0.8580 -1.9112 -0.2456
   26SAPC  C310 3501   1.749  -0.020   8.018  0.2617 -0.4223 -0.1406
   26SAPC  H10X 3502   1.709   0.083   8.010 -0.5562 -0.6831  0.4798
   26SAPC  H10Y 3503   1.860  -0.014   8.012  0.3130 -2.4522 -1.6898
   26SAPC  C311 3504   1.702  -0.080   8.151 -0.2667 -0.1896 -0.0863
   26SAPC  H11X 3505   1.720  -0.189   8.139  0.0575 -0.4541  2.4164
   26SAPC  H11Y 3506   1.593  -0.062   8.162 -0.6880 -2.6440 -0.0827
   26SAPC  C312 3507   1.767  -0.025   8.278 -0.4594  0.1819 -0.1897
   26SAPC  H12X 3508   1.756   0.084   8.295  1.1815 -0.0226  2.3860
   26SAPC  H12Y 3509   1.877  -0.038   8.271 -0.5735 -1.7390  1.0036
   26SAPC  C313 3510   1.734  -0.098   8.404 -0.3891 -0.3714  0.2776
   26SAPC  H13X 3511   1.829  -0.123   8.456  0.4555  2.9642  0.4202
   26SAPC  H13Y 3512   1.680  -0.192   8.379 -2.9647  0.9983  0.5958
   26SAPC  C314 3513   1.655  -0.022   8.511  0.0778 -0.2503 -0.1531
   26SAPC  H14X 3514   1.734   0.038   8.561 -0.9436  1.1414 -0.1746
   26SAPC  H14Y 3515   1.622  -0.093   8.591 -1.7574  0.0146 -0.6568
   26SAPC  C315 3516   1.536   0.052   8.465  0.4319  0.1858  0.3518
   26SAPC  H15X 3517   1.485  -0.028   8.406  0.8224  0.4228 -0.3203
   26SAPC  H15Y 3518   1.562   0.141   8.403 -1.2191 -0.2061 -0.9584
   26SAPC  C316 3519   1.441   0.086   8.582  0.4466 -0.1597  0.3517
   26SAPC  H16X 3520   1.495   0.070   8.678  0.1370 -3.7045  0.0169
   26SAPC  H16Y 3521   1.361   0.008   8.577 -1.8655  2.0566  1.3417
   26SAPC  C317 3522   1.378   0.223   8.564 -0.6196 -0.0531  0.0401
   26SAPC  H17X 3523   1.333   0.222   8.463 -0.0070 -0.6177 -0.2294
   26SAPC  H17Y 3524   1.449   0.309   8.564  0.0565 -0.6034  0.5969
   26SAPC  C318 3525   1.262   0.263   8.657 -0.1130 -0.3801 -0.3658
   26SAPC  H18X 3526   1.213   0.354   8.614  1.8583  1.9142  2.0559
   26SAPC  H18Y 3527   1.304   0.302   8.753 -1.2571 -0.4559  0.1716
   26SAPC  H18Z 3528   1.181   0.190   8.676 -0.1693 -0.3276 -0.4029
   27SAPC     N 3529   5.942   0.211   6.509  0.4094 -0.3568  0.5146
   27SAPC   C12 3530   5.851   0.139   6.620  0.0552 -0.5521 -0.6877
   27SAPC  H12A 3531   5.816   0.049   6.572  0.7306 -0.9668 -0.4141
   27SAPC  H12B 3532   5.759   0.194   6.636  0.1925 -0.7096  0.7623
   27SAPC   C13 3533   6.072   0.144   6.491  0.9706 -0.2603  0.6382
   27SAPC  H13A 3534   6.125   0.190   6.409 -1.3636  1.0101 -0.1989
   27SAPC  H13B 3535   6.141   0.161   6.573  2.6409  0.2704 -0.8442
   27SAPC  H13C 3536   6.071   0.037   6.480  1.0193 -0.2070  0.1104
   27SAPC   C14 3537   5.865   0.209   6.381  0.2427 -0.5777 -0.0392
   27SAPC  H14A 3538   5.760   0.225   6.404  0.4686  0.2786  0.4322
   27SAPC  H14B 3539   5.899   0.276   6.304 -1.5552  1.4250  0.8523
   27SAPC  H14C 3540   5.869   0.107   6.346  1.1933 -0.0187 -1.5640
   27SAPC   C15 3541   5.956   0.354   6.551  0.1073  0.2257  0.1601
   27SAPC  H15A 3542   6.003   0.412   6.473  0.3876 -1.7984 -1.2388
   27SAPC  H15B 3543   5.860   0.400   6.569 -0.4156 -0.8385  0.1785
   27SAPC  H15C 3544   5.998   0.370   6.649  1.3096 -0.0937 -0.2935
   27SAPC   C11 3545   5.920   0.098   6.757  0.2138  0.0819 -0.9697
   27SAPC  H11A 3546   5.993   0.021   6.724  0.4703  0.2482 -0.7845
   27SAPC  H11B 3547   5.853   0.046   6.828 -1.2108  1.1753 -1.4881
   27SAPC     P 3548   6.119   0.192   6.884  0.4385 -0.0735 -0.0700
   27SAPC   O13 3549   6.219   0.171   6.776  0.0823 -0.2780 -0.1503
   27SAPC   O14 3550   6.152   0.299   6.987 -0.5465  0.1077  0.0933
   27SAPC   O12 3551   5.979   0.217   6.820  0.6327  0.1535 -0.2076
   27SAPC   O11 3552   6.099   0.058   6.964 -0.5036 -0.0262 -0.5789
   27SAPC    C1 3553   6.202  -0.045   6.972  0.0701 -0.0585  0.5667
   27SAPC    HA 3554   6.305  -0.014   6.943 -0.4199 -1.0892 -2.5979
   27SAPC    HB 3555   6.222  -0.088   7.072  0.1990 -0.5752  0.3248
   27SAPC    C2 3556   6.165  -0.158   6.876  0.6314 -0.6400  0.4746
   27SAPC    HS 3557   6.170  -0.120   6.772  1.3415 -0.5646  0.5291
   27SAPC   O21 3558   6.030  -0.198   6.904  0.0243 -0.4369  0.5037
   27SAPC   C21 3559   5.973  -0.282   6.821 -0.2314 -0.0616 -0.6025
   27SAPC   O22 3560   6.030  -0.326   6.721 -0.0631  0.2793 -0.0426
   27SAPC   C22 3561   5.827  -0.297   6.876 -0.1676  0.4516  0.1446
   27SAPC   H2R 3562   5.784  -0.196   6.889  0.0042  0.5570 -0.0919
   27SAPC   H2S 3563   5.754  -0.345   6.807  0.2418  1.1830 -0.8101
   27SAPC    C3 3564   6.263  -0.288   6.891 -0.4977 -0.6723  0.3781
   27SAPC    HX 3565   6.365  -0.256   6.861 -0.5607  0.1518  1.0183
   27SAPC    HY 3566   6.236  -0.359   6.810 -0.0466 -0.7268  0.2760
   27SAPC   O31 3567   6.254  -0.346   7.022 -0.0030  0.1649  0.4174
   27SAPC   C31 3568   6.180  -0.452   7.033 -0.0969  0.6210  1.5232
   27SAPC   O32 3569   6.118  -0.510   6.948 -0.0709 -0.1905  0.3365
   27SAPC   C32 3570   6.185  -0.505   7.171  0.8121  0.4384 -0.2941
   27SAPC   H2X 3571   6.135  -0.432   7.239  0.4568  1.3982 -1.5691
   27SAPC   H2Y 3572   6.293  -0.509   7.196  1.0729 -1.2691 -1.6510
   27SAPC   C23 3573   5.822  -0.365   7.017 -0.0599 -0.4264  0.5022
   27SAPC   H3R 3574   5.865  -0.294   7.090  0.8501  2.0939 -2.3963
   27SAPC   H3S 3575   5.887  -0.454   7.034  1.3080  0.8656  2.2235
   27SAPC   C24 3576   5.671  -0.401   7.055  0.1390  0.5474  0.6423
   27SAPC   H4R 3577   5.683  -0.463   7.147 -1.8837  1.0886  1.2747
   27SAPC   H4S 3578   5.637  -0.456   6.965 -0.0222 -0.4033  1.2831
   27SAPC   C25 3579   5.583  -0.284   7.080  0.0956 -0.5560  0.0833
   27SAPC   H5R 3580   5.540  -0.229   6.995 -1.8909 -0.1912  1.2799
   27SAPC   C26 3581   5.539  -0.238   7.202 -0.1953 -0.2638  0.7073
   27SAPC   H6R 3582   5.466  -0.156   7.193 -0.9547 -1.0884 -0.8676
   27SAPC   C27 3583   5.584  -0.290   7.341  0.3708 -0.7738 -0.3872
   27SAPC   H7R 3584   5.615  -0.396   7.333  0.7103 -0.8115  1.2520
   27SAPC   H7S 3585   5.498  -0.279   7.410  0.6057  2.8359 -0.5641
   27SAPC   C28 3586   5.699  -0.204   7.399  0.6304 -0.5338  0.0269
   27SAPC   H8R 3587   5.755  -0.147   7.324 -2.1309 -0.8613 -2.3738
   27SAPC   C29 3588   5.714  -0.197   7.535  0.2490 -0.2435 -0.3934
   27SAPC   H9R 3589   5.797  -0.133   7.569 -0.3758  0.3957 -0.0746
   27SAPC  C210 3590   5.629  -0.269   7.637  0.6361 -0.7558  0.1226
   27SAPC  H10R 3591   5.551  -0.330   7.587  0.8454 -1.2058  0.3413
   27SAPC  H10S 3592   5.585  -0.195   7.708 -0.5305  0.3573 -1.7287
   27SAPC  C211 3593   5.723  -0.372   7.695 -0.3617  0.2050 -0.0966
   27SAPC  H11R 3594   5.756  -0.455   7.631 -1.2861 -1.9469  2.0941
   27SAPC  C212 3595   5.767  -0.377   7.822  0.1348 -0.5645  0.0695
   27SAPC  H12R 3596   5.807  -0.476   7.848 -0.3734 -0.9588 -0.6278
   27SAPC  C213 3597   5.730  -0.277   7.934  0.0294 -0.3793 -0.3304
   27SAPC  H13R 3598   5.728  -0.175   7.889  1.0955 -1.1886 -2.2476
   27SAPC  H13S 3599   5.808  -0.296   8.010 -0.1033 -2.5177 -0.6858
   27SAPC  C214 3600   5.595  -0.302   7.991  0.3911 -0.6348 -0.0766
   27SAPC  H14R 3601   5.516  -0.295   7.914 -0.7328 -2.8925  0.8239
   27SAPC  C215 3602   5.552  -0.319   8.117  0.4584  0.2191  0.2219
   27SAPC  H15R 3603   5.446  -0.339   8.135  0.1501 -0.5959 -2.3122
   27SAPC  C216 3604   5.652  -0.324   8.235  0.4671 -0.0316 -0.1949
   27SAPC  H16R 3605   5.744  -0.275   8.197  0.2391  0.7067  0.1903
   27SAPC  H16S 3606   5.663  -0.432   8.259  1.1437 -0.1709 -1.0989
   27SAPC  C217 3607   5.614  -0.245   8.362  0.5958 -0.1320  0.1254
   27SAPC  H17R 3608   5.509  -0.269   8.389  0.6929 -1.2306 -0.4228
   27SAPC  H17S 3609   5.611  -0.140   8.326 -1.2402 -0.6734 -1.4074
   27SAPC  C218 3610   5.715  -0.255   8.476 -0.2298  0.5812 -0.0431
   27SAPC  H18R 3611   5.695  -0.185   8.559  1.9700 -2.4054  3.1388
   27SAPC  H18S 3612   5.816  -0.231   8.437 -0.2502 -0.9163 -1.0557
   27SAPC  C219 3613   5.717  -0.397   8.544  0.1860 -0.7764  0.1444
   27SAPC  H19R 3614   5.797  -0.401   8.621  1.2382  0.7116 -0.8426
   27SAPC  H19S 3615   5.760  -0.476   8.478  1.3804 -1.2973  1.5174
   27SAPC  C220 3616   5.588  -0.441   8.622 -0.1276 -0.6966  0.1507
   27SAPC  H20R 3617   5.523  -0.451   8.533  1.5405  0.6078 -1.2385
   27SAPC  H20S 3618   5.552  -0.352   8.679 -3.2551 -0.8070 -1.5247
   27SAPC  H20T 3619   5.594  -0.533   8.684 -2.9576 -1.9891 -1.3718
   27SAPC   C33 3620   6.126  -0.647   7.198  0.2466 -0.1397 -0.0245
   27SAPC   H3X 3621   6.160  -0.719   7.121  2.6182 -2.1470  2.7410
   27SAPC   H3Y 3622   6.016  -0.637   7.204  0.1727 -1.3995  1.0612
   27SAPC   C34 3623   6.186  -0.707   7.335 -0.0403 -0.1153  0.3311
   27SAPC   H4X 3624   6.291  -0.675   7.348  0.2676  0.0323 -2.2852
   27SAPC   H4Y 3625   6.179  -0.818   7.332  2.9605 -0.3064 -1.0121
   27SAPC   C35 3626   6.121  -0.648   7.466  0.8089  0.2538  0.5211
   27SAPC   H5X 3627   6.021  -0.693   7.481  1.1436 -1.2996 -1.6307
   27SAPC   H5Y 3628   6.100  -0.540   7.445 -0.3967  0.1007  0.8831
   27SAPC   C36 3629   6.201  -0.657   7.594  0.4055  0.1801 -0.5705
   27SAPC   H6X 3630   6.295  -0.598   7.583  0.7930 -0.0374  1.4234
   27SAPC   H6Y 3631   6.243  -0.758   7.612  0.1565  0.3387  0.9552
   27SAPC   C37 3632   6.132  -0.595   7.707 -0.9861 -0.5349  0.0476
   27SAPC   H7X 3633   6.040  -0.657   7.718  0.5675 -2.5355  2.0735
   27SAPC   H7Y 3634   6.109  -0.488   7.688  3.0182  0.2862 -0.6902
   27SAPC   C38 3635   6.228  -0.597   7.832 -0.2632  0.1483  0.3037
   27SAPC   H8X 3636   6.313  -0.539   7.792 -0.6050 -0.8069 -1.8920
   27SAPC   H8Y 3637   6.258  -0.703   7.849 -2.3030 -0.2553  1.6390
   27SAPC   C39 3638   6.176  -0.533   7.960  0.0263  0.0795 -0.1292
   27SAPC   H9X 3639   6.173  -0.424   7.939  2.1227 -0.1783 -1.9445
   27SAPC   H9Y 3640   6.260  -0.559   8.028  0.1630 -0.8884 -0.6601
   27SAPC  C310 3641   6.034  -0.584   8.001  0.3654 -0.3096 -0.7444
   27SAPC  H10X 3642   6.050  -0.691   8.026  0.1675  0.0130  0.8548
   27SAPC  H10Y 3643   5.974  -0.580   7.908  1.8787 -0.2860 -1.7356
   27SAPC  C311 3644   5.965  -0.501   8.107  0.4698  0.1829  0.3015
   27SAPC  H11X 3645   5.860  -0.533   8.092  0.1732  1.6133 -0.8598
   27SAPC  H11Y 3646   5.971  -0.393   8.080 -0.1557 -0.2458 -1.6692
   27SAPC  C312 3647   6.020  -0.516   8.246 -0.2750  0.3717  0.0123
   27SAPC  H12X 3648   5.994  -0.423   8.303 -1.0974 -0.2757  0.7079
   27SAPC  H12Y 3649   6.129  -0.532   8.233  0.0913  0.4340  2.5964
   27SAPC  C313 3650   5.966  -0.642   8.312  0.5373  0.3689  0.6239
   27SAPC  H13X 3651   5.984  -0.729   8.245 -0.0527 -0.0215  0.9690
   27SAPC  H13Y 3652   5.855  -0.644   8.306  0.6223 -1.8438 -0.6386
   27SAPC  C314 3653   6.005  -0.653   8.456  0.4736 -0.3136 -0.3042
   27SAPC  H14X 3654   5.928  -0.716   8.506 -0.5884  0.8629 -0.4398
   27SAPC  H14Y 3655   5.989  -0.557   8.510 -1.0925 -0.7137 -0.0378
   27SAPC  C315 3656   6.153  -0.691   8.476  0.3474  0.0239 -0.2771
   27SAPC  H15X 3657   6.166  -0.723   8.582 -5.5618  0.7253  0.8529
   27SAPC  H15Y 3658   6.216  -0.599   8.474 -2.2807  1.8675 -1.9992
   27SAPC  C316 3659   6.207  -0.809   8.395  0.1993 -0.1015  1.1249
   27SAPC  H16X 3660   6.174  -0.798   8.290  1.3385 -0.3573  0.7294
   27SAPC  H16Y 3661   6.151  -0.897   8.435 -1.8611  1.3346  1.4841
   27SAPC  C317 3662   6.352  -0.842   8.417  0.2356 -0.7927  0.1780
   27SAPC  H17X 3663   6.370  -0.873   8.522 -1.8557  1.3137  1.2008
   27SAPC  H17Y 3664   6.425  -0.762   8.395 -2.8348  1.8767 -0.8162
   27SAPC  C318 3665   6.399  -0.951   8.325 -0.0562 -0.0435  0.5756
   27SAPC  H18X 3666   6.369  -0.927   8.221 -0.6341  0.8884  0.9496
   27SAPC  H18Y 3667   6.353  -1.049   8.352  0.0943 -1.0895 -2.6943
   27SAPC  H18Z 3668   6.510  -0.953   8.324 -0.0694 -0.7818 -2.1272
   28SAPC     N 3669   4.689   2.872   6.071  0.2113  0.6338 -0.1680
   28SAPC   C12 3670   4.597   2.881   6.191 -0.9776  0.4429 -0.1932
   28SAPC  H12A 3671   4.621   2.808   6.266 -1.6202  1.0476  0.6051
   28SAPC  H12B 3672   4.496   2.863   6.160 -0.7675 -0.7848 -0.1593
   28SAPC   C13 3673   4.661   2.998   5.986 -0.0229 -0.0287  0.1675
   28SAPC  H13A 3674   4.554   3.002   5.969 -0.2392  0.6245  1.6950
   28SAPC  H13B 3675   4.684   3.091   6.035  0.5498  0.6891 -1.4034
   28SAPC  H13C 3676   4.706   2.991   5.888  5.2261 -2.0464  2.5655
   28SAPC   C14 3677   4.831   2.842   6.101 -0.4501 -0.0178  0.8295
   28SAPC  H14A 3678   4.885   2.931   6.127 -0.4058 -0.2434  1.5085
   28SAPC  H14B 3679   4.859   2.776   6.182  0.5143 -1.0272 -0.3048
   28SAPC  H14C 3680   4.866   2.798   6.008  0.0291  0.6602  0.6859
   28SAPC   C15 3681   4.643   2.756   5.984  0.4559 -0.6404 -0.1793
   28SAPC  H15A 3682   4.686   2.765   5.886 -0.3077 -1.6308 -0.6151
   28SAPC  H15B 3683   4.684   2.665   6.027 -2.3603 -2.0417 -0.3441
   28SAPC  H15C 3684   4.536   2.751   5.974  0.4574 -0.6003 -0.2212
   28SAPC   C11 3685   4.589   3.014   6.277  0.3051 -0.3011 -0.3646
   28SAPC  H11A 3686   4.691   3.054   6.295  0.9480 -1.5334 -1.1567
   28SAPC  H11B 3687   4.543   2.988   6.375  1.5893  0.3545  0.4226
   28SAPC     P 3688   4.367   3.106   6.201 -0.0993  0.2226 -0.4590
   28SAPC   O13 3689   4.332   3.210   6.111 -0.1905 -0.0050  0.1663
   28SAPC   O14 3690   4.333   2.968   6.163  0.2934 -0.4171 -0.8424
   28SAPC   O12 3691   4.520   3.120   6.214 -0.1542 -0.0581 -0.1455
   28SAPC   O11 3692   4.306   3.126   6.340 -0.5526 -0.0453  0.9494
   28SAPC    C1 3693   4.311   3.252   6.409 -0.8155 -0.3897 -0.3544
   28SAPC    HA 3694   4.337   3.339   6.346  0.9529 -1.7983 -1.6358
   28SAPC    HB 3695   4.214   3.278   6.456  0.7746  2.0078  1.7216
   28SAPC    C2 3696   4.411   3.229   6.531  0.3776  0.4618 -0.0788
   28SAPC    HS 3697   4.502   3.183   6.487  0.2200 -0.3615  0.4516
   28SAPC   O21 3698   4.344   3.137   6.624 -0.8455  0.3526  0.1260
   28SAPC   C21 3699   4.422   3.044   6.677 -1.0013  0.0571 -0.0464
   28SAPC   O22 3700   4.545   3.038   6.665 -0.9495  0.2632  0.2640
   28SAPC   C22 3701   4.343   2.952   6.774 -0.0845  0.1572 -0.0998
   28SAPC   H2R 3702   4.239   2.990   6.769 -0.7601 -1.5847  0.2812
   28SAPC   H2S 3703   4.347   2.847   6.737 -1.3559  0.7813 -2.0655
   28SAPC    C3 3704   4.444   3.364   6.609 -0.1990 -0.2502 -0.3348
   28SAPC    HX 3705   4.348   3.412   6.640  0.7138  0.9401  0.6695
   28SAPC    HY 3706   4.496   3.427   6.534 -0.3606 -1.0021 -1.0829
   28SAPC   O31 3707   4.535   3.343   6.717 -0.6205 -0.1400 -0.2086
   28SAPC   C31 3708   4.493   3.356   6.841 -0.6963 -0.5388 -0.3153
   28SAPC   O32 3709   4.379   3.349   6.883 -0.2881 -0.2529  0.0048
   28SAPC   C32 3710   4.613   3.389   6.935 -0.1177  0.0337  0.9195
   28SAPC   H2X 3711   4.569   3.469   6.998  0.6177 -0.2604  1.8230
   28SAPC   H2Y 3712   4.702   3.429   6.881 -0.6156 -0.3025 -0.1592
   28SAPC   C23 3713   4.393   2.947   6.915 -0.0409 -0.0709  0.0304
   28SAPC   H3R 3714   4.398   3.052   6.952  1.4878  0.2527 -1.0873
   28SAPC   H3S 3715   4.500   2.918   6.906 -0.1202  0.3485 -2.7360
   28SAPC   C24 3716   4.312   2.864   7.017  0.0927 -0.0865  0.0180
   28SAPC   H4R 3717   4.285   2.762   6.982 -0.3857 -0.4144  1.3336
   28SAPC   H4S 3718   4.371   2.857   7.111 -1.7232  1.2139  1.2734
   28SAPC   C25 3719   4.177   2.923   7.045  0.6183 -0.2953  0.1163
   28SAPC   H5R 3720   4.091   2.884   6.988  0.2597  0.5951  0.0461
   28SAPC   C26 3721   4.154   3.020   7.132  0.1719  0.2609 -0.7129
   28SAPC   H6R 3722   4.056   3.071   7.130  0.2841  0.6007  1.0707
   28SAPC   C27 3723   4.261   3.085   7.223 -0.0850  0.3699  0.4139
   28SAPC   H7R 3724   4.345   3.022   7.256  1.9383  1.9169 -1.6440
   28SAPC   H7S 3725   4.209   3.109   7.318  0.0237  1.0599  0.3062
   28SAPC   C28 3726   4.313   3.218   7.167  0.4251  0.5145 -0.1810
   28SAPC   H8R 3727   4.296   3.236   7.059  0.1143 -0.4825 -0.3061
   28SAPC   C29 3728   4.387   3.311   7.226  0.2372  0.3730  0.0185
   28SAPC   H9R 3729   4.399   3.404   7.169 -2.7666 -0.5259 -2.1806
   28SAPC  C210 3730   4.421   3.304   7.367 -0.4412  0.9756 -0.0513
   28SAPC  H10R 3731   4.336   3.276   7.432  0.9706  0.3181  1.5621
   28SAPC  H10S 3732   4.448   3.408   7.395  0.3029  1.0087 -0.8754
   28SAPC  C211 3733   4.543   3.216   7.402 -0.3838 -0.0746 -0.3016
   28SAPC  H11R 3734   4.628   3.208   7.332 -0.7242 -1.7958 -0.5580
   28SAPC  C212 3735   4.552   3.148   7.518  0.1532  1.3706 -0.4806
   28SAPC  H12R 3736   4.642   3.087   7.529 -1.9298 -1.5830  0.7396
   28SAPC  C213 3737   4.453   3.146   7.637  0.6132  0.1452 -0.1102
   28SAPC  H13R 3738   4.427   3.040   7.661  1.5287 -0.5056 -1.8423
   28SAPC  H13S 3739   4.363   3.208   7.621  0.7095  0.3664  0.2011
   28SAPC  C214 3740   4.534   3.204   7.747  0.7778 -0.5973 -0.0239
   28SAPC  H14R 3741   4.575   3.300   7.714 -1.7190  0.4833 -0.0983
   28SAPC  C215 3742   4.563   3.161   7.873  0.1486 -0.5489 -0.2418
   28SAPC  H15R 3743   4.623   3.230   7.935 -0.9623 -1.8459  2.3420
   28SAPC  C216 3744   4.504   3.043   7.943 -0.2450  1.0351 -0.1005
   28SAPC  H16R 3745   4.585   2.967   7.940 -0.8473  0.3574  0.8149
   28SAPC  H16S 3746   4.411   3.022   7.887 -1.0321  2.5374  0.5955
   28SAPC  C217 3747   4.469   3.061   8.090 -0.9878 -0.9210 -0.2503
   28SAPC  H17R 3748   4.398   2.985   8.129  0.0468 -1.2682  0.9768
   28SAPC  H17S 3749   4.414   3.158   8.097 -2.5359 -1.8321  0.5301
   28SAPC  C218 3750   4.587   3.065   8.184  0.6316  0.1635 -0.2053
   28SAPC  H18R 3751   4.663   3.134   8.141  0.9413  0.2269  0.4437
   28SAPC  H18S 3752   4.629   2.962   8.191 -0.2200 -0.2511 -1.0276
   28SAPC  C219 3753   4.560   3.116   8.326  0.3073  0.3546 -0.0337
   28SAPC  H19R 3754   4.530   3.223   8.329  1.0929  0.5716  0.3179
   28SAPC  H19S 3755   4.660   3.123   8.374 -1.2878  2.6301  3.1866
   28SAPC  C220 3756   4.482   3.021   8.409 -0.2335  0.1176  0.7141
   28SAPC  H20R 3757   4.378   3.002   8.374  0.4426  0.1499 -1.3577
   28SAPC  H20S 3758   4.470   3.061   8.512 -0.3231 -2.2575  1.6706
   28SAPC  H20T 3759   4.527   2.920   8.405 -0.2253  0.2016 -2.5155
   28SAPC   C33 3760   4.653   3.267   7.014  1.1260  0.2821 -0.5978
   28SAPC   H3X 3761   4.695   3.202   6.935  0.6537  0.6974 -1.1888
   28SAPC   H3Y 3762   4.567   3.217   7.065  1.6923  1.8948  2.0418
   28SAPC   C34 3763   4.764   3.290   7.118  0.3079  0.6310  0.2948
   28SAPC   H4X 3764   4.716   3.332   7.209 -0.4590 -1.3513  0.8211
   28SAPC   H4Y 3765   4.838   3.362   7.076 -1.3020  1.9108 -0.3718
   28SAPC   C35 3766   4.829   3.156   7.164  0.6813 -0.1080 -0.1569
   28SAPC   H5X 3767   4.913   3.131   7.096  1.3595 -0.0895  0.6705
   28SAPC   H5Y 3768   4.756   3.074   7.180  0.9100 -0.1763  0.5859
   28SAPC   C36 3769   4.897   3.185   7.298  1.2719  0.0761  0.3953
   28SAPC   H6X 3770   4.964   3.098   7.312  2.0290  0.8283  1.5748
   28SAPC   H6Y 3771   4.824   3.178   7.381  1.3504 -1.3053  0.3651
   28SAPC   C37 3772   4.989   3.311   7.319  0.2280  0.0169  0.0996
   28SAPC   H7X 3773   4.936   3.408   7.329 -0.6350 -0.2074 -1.9810
   28SAPC   H7Y 3774   5.068   3.314   7.241 -0.6361 -1.5597 -0.8614
   28SAPC   C38 3775   5.052   3.302   7.457 -0.5919 -0.1097 -0.2897
   28SAPC   H8X 3776   5.119   3.390   7.465 -1.1411  0.3298 -0.4098
   28SAPC   H8Y 3777   5.106   3.206   7.462 -1.0449 -0.4553 -1.8206
   28SAPC   C39 3778   4.957   3.293   7.584  0.2116  0.0445  0.7377
   28SAPC   H9X 3779   4.909   3.193   7.574  0.2825  0.1565 -0.8046
   28SAPC   H9Y 3780   4.879   3.369   7.565  0.6343  0.6823  1.5419
   28SAPC  C310 3781   5.029   3.327   7.721 -0.9831  0.0857 -0.0693
   28SAPC  H10X 3782   5.088   3.419   7.701 -0.3660 -0.1115  0.8211
   28SAPC  H10Y 3783   5.094   3.242   7.752 -0.9684 -0.4760 -1.6114
   28SAPC  C311 3784   4.932   3.345   7.839 -0.2097 -0.4264  0.7767
   28SAPC  H11X 3785   4.869   3.253   7.843 -1.3408  0.3046 -0.1032
   28SAPC  H11Y 3786   4.870   3.436   7.825 -0.4501 -0.5476  1.0393
   28SAPC  C312 3787   5.003   3.348   7.974  0.3981 -0.0652  0.4580
   28SAPC  H12X 3788   5.045   3.451   7.977 -1.2051  0.5944  0.6301
   28SAPC  H12Y 3789   5.095   3.286   7.975 -0.0209 -0.7337 -1.4545
   28SAPC  C313 3790   4.911   3.335   8.101  0.1089 -0.1704  0.2094
   28SAPC  H13X 3791   4.880   3.229   8.111 -1.4437  0.2877  0.4761
   28SAPC  H13Y 3792   4.828   3.409   8.110 -0.4257 -0.5982 -1.2382
   28SAPC  C314 3793   5.000   3.345   8.233 -0.2193 -0.1967  0.4527
   28SAPC  H14X 3794   5.040   3.448   8.243  1.0881 -0.6710  0.2558
   28SAPC  H14Y 3795   5.079   3.269   8.218 -2.0488 -1.9017 -0.8598
   28SAPC  C315 3796   4.914   3.306   8.358  0.4289  0.5130 -0.6072
   28SAPC  H15X 3797   4.838   3.232   8.327  1.2824 -0.2640 -0.8578
   28SAPC  H15Y 3798   4.867   3.399   8.398  0.9936 -0.3254  2.1371
   28SAPC  C316 3799   4.979   3.223   8.475  0.3198 -0.4325  0.4622
   28SAPC  H16X 3800   5.059   3.288   8.516  0.7285 -0.6474  0.0095
   28SAPC  H16Y 3801   5.026   3.145   8.412 -0.3831  0.4768 -1.2327
   28SAPC  C317 3802   4.892   3.180   8.586 -0.4109 -0.1539 -0.2562
   28SAPC  H17X 3803   4.953   3.115   8.651 -0.3305 -0.3356 -0.5108
   28SAPC  H17Y 3804   4.814   3.111   8.545 -0.7828  0.7475 -1.1128
   28SAPC  C318 3805   4.832   3.284   8.678 -0.3570  0.2345  0.2875
   28SAPC  H18X 3806   4.773   3.355   8.616 -0.0522 -0.7365 -1.1336
   28SAPC  H18Y 3807   4.922   3.340   8.712 -0.5064  0.0488  0.9791
   28SAPC  H18Z 3808   4.780   3.250   8.770 -0.2784 -0.4306  0.0888
   29SAPC     N 3809   1.138   0.181   6.519 -0.3626  0.5921  0.8013
   29SAPC   C12 3810   0.992   0.213   6.523 -0.3799  0.0229 -0.5602
   29SAPC  H12A 3811   0.969   0.315   6.551  3.7345  0.3492  2.0888
   29SAPC  H12B 3812   0.945   0.150   6.596 -0.5981  0.1824 -0.5627
   29SAPC   C13 3813   1.219   0.240   6.637  0.8568 -0.0422  0.1409
   29SAPC  H13A 3814   1.171   0.229   6.733  1.1382 -1.2055  0.1615
   29SAPC  H13B 3815   1.320   0.202   6.635  0.8954  0.0922 -0.6300
   29SAPC  H13C 3816   1.227   0.347   6.624  0.4824  0.2141  1.9555
   29SAPC   C14 3817   1.155   0.024   6.521 -0.0050  0.4088  0.1756
   29SAPC  H14A 3818   1.114   0.000   6.424  1.7453  2.6218 -1.1460
   29SAPC  H14B 3819   1.259  -0.005   6.522  0.2323  1.1750 -0.9264
   29SAPC  H14C 3820   1.103  -0.012   6.609  0.9414  2.0765  1.4563
   29SAPC   C15 3821   1.206   0.230   6.393  0.2742 -0.0039  0.1759
   29SAPC  H15A 3822   1.146   0.212   6.306  1.2281 -1.6898 -0.1578
   29SAPC  H15B 3823   1.220   0.337   6.391  1.3008 -0.1557 -1.4732
   29SAPC  H15C 3824   1.302   0.182   6.375  0.1552  0.3702 -1.4822
   29SAPC   C11 3825   0.912   0.179   6.393 -0.4216 -0.6565  0.5356
   29SAPC  H11A 3826   0.805   0.172   6.420 -0.3272 -2.0275  0.5899
   29SAPC  H11B 3827   0.952   0.088   6.344 -1.5693 -1.7688  1.6529
   29SAPC     P 3828   0.881   0.435   6.315  0.3232 -0.0197 -0.1436
   29SAPC   O13 3829   0.964   0.520   6.228  0.3283 -0.0731  0.3050
   29SAPC   O14 3830   0.739   0.448   6.294 -0.1026  0.0542 -0.7529
   29SAPC   O12 3831   0.917   0.285   6.296 -0.2242  1.0194 -0.1803
   29SAPC   O11 3832   0.929   0.468   6.460  0.2450 -0.1270  0.6307
   29SAPC    C1 3833   0.865   0.580   6.530 -0.1091 -0.7803  0.1966
   29SAPC    HA 3834   0.920   0.673   6.503 -3.0104  1.0567  0.3467
   29SAPC    HB 3835   0.758   0.585   6.498  0.2650  0.2992 -0.9456
   29SAPC    C2 3836   0.848   0.561   6.687 -0.0394 -0.1754 -0.0804
   29SAPC    HS 3837   0.820   0.660   6.728  1.2220 -0.4788  1.5871
   29SAPC   O21 3838   0.975   0.524   6.748 -0.1941 -0.0986  0.3797
   29SAPC   C21 3839   1.053   0.621   6.780 -0.1163  0.7386  0.2870
   29SAPC   O22 3840   1.025   0.740   6.784  0.7022  0.1600 -0.2831
   29SAPC   C22 3841   1.191   0.575   6.820 -0.3933  0.1675  0.6831
   29SAPC   H2R 3842   1.185   0.523   6.918  0.1086 -0.3344  0.4509
   29SAPC   H2S 3843   1.238   0.507   6.745 -0.6128  2.4348 -1.5436
   29SAPC    C3 3844   0.735   0.458   6.726  0.0326  0.0011 -0.8421
   29SAPC    HX 3845   0.768   0.358   6.689 -0.8014 -1.2549  1.7075
   29SAPC    HY 3846   0.642   0.477   6.667 -0.8332  2.1040  1.1380
   29SAPC   O31 3847   0.698   0.451   6.867  0.4228  0.0568 -0.4416
   29SAPC   C31 3848   0.764   0.368   6.940  0.6619  1.1422 -0.2524
   29SAPC   O32 3849   0.861   0.302   6.913  0.0591 -0.1511  0.0290
   29SAPC   C32 3850   0.698   0.380   7.083 -0.6118  0.6539  0.5955
   29SAPC   H2X 3851   0.598   0.332   7.078 -0.2255 -0.2175  1.0061
   29SAPC   H2Y 3852   0.696   0.489   7.104 -1.0724  0.2968  2.4792
   29SAPC   C23 3853   1.307   0.685   6.827  0.2866  0.3006  0.1510
   29SAPC   H3R 3854   1.294   0.751   6.915  0.3853  0.2614  0.1943
   29SAPC   H3S 3855   1.292   0.755   6.742  2.1562  2.4846  1.5594
   29SAPC   C24 3856   1.442   0.616   6.826  0.6733  0.3319  0.6436
   29SAPC   H4R 3857   1.525   0.690   6.820 -2.2722  3.6619 -0.7898
   29SAPC   H4S 3858   1.450   0.558   6.732 -1.0421 -1.1563  1.3882
   29SAPC   C25 3859   1.458   0.526   6.946  0.2376  0.2416  0.0218
   29SAPC   H5R 3860   1.423   0.425   6.919  0.2840  0.3628 -0.5143
   29SAPC   C26 3861   1.472   0.564   7.077  0.0541 -0.4388  0.2795
   29SAPC   H6R 3862   1.485   0.487   7.156  2.8103 -0.4146 -0.0822
   29SAPC   C27 3863   1.488   0.705   7.124  0.0125 -0.7922 -0.3081
   29SAPC   H7R 3864   1.486   0.772   7.036 -1.7059  0.3651  0.5907
   29SAPC   H7S 3865   1.587   0.730   7.168  0.2337  0.3080 -1.4146
   29SAPC   C28 3866   1.374   0.741   7.206 -0.1217  0.1840  0.1736
   29SAPC   H8R 3867   1.284   0.774   7.151  0.8930  1.0168 -1.0034
   29SAPC   C29 3868   1.364   0.748   7.343  0.3715  0.1690  0.6491
   29SAPC   H9R 3869   1.262   0.751   7.383  0.5066  1.9539  0.8740
   29SAPC  C210 3870   1.465   0.715   7.446 -0.3443  0.7573  0.5742
   29SAPC  H10R 3871   1.566   0.709   7.401 -0.8187 -0.3575 -0.3721
   29SAPC  H10S 3872   1.456   0.609   7.478  0.0242  0.2860 -0.8497
   29SAPC  C211 3873   1.460   0.819   7.560 -0.2585 -0.3347  0.3209
   29SAPC  H11R 3874   1.464   0.925   7.532 -2.3421 -0.4931 -0.6876
   29SAPC  C212 3875   1.461   0.780   7.697 -0.3687  0.1172 -0.5507
   29SAPC  H12R 3876   1.438   0.860   7.769 -2.8086 -0.0814 -1.0656
   29SAPC  C213 3877   1.478   0.643   7.765  0.9269  0.3690 -0.2131
   29SAPC  H13R 3878   1.470   0.563   7.689 -0.1562 -1.7270  2.0184
   29SAPC  H13S 3879   1.385   0.631   7.824 -0.6982 -0.4462 -2.8589
   29SAPC  C214 3880   1.613   0.620   7.834  0.1261 -0.2218  0.1087
   29SAPC  H14R 3881   1.682   0.571   7.764 -0.0479  0.9561 -0.9110
   29SAPC  C215 3882   1.648   0.654   7.962  0.3256  0.0745  0.0019
   29SAPC  H15R 3883   1.748   0.621   7.994  0.0512 -0.7567 -0.0023
   29SAPC  C216 3884   1.573   0.729   8.065 -0.0372 -0.3816  1.0575
   29SAPC  H16R 3885   1.490   0.785   8.017  0.0307 -1.8859 -0.8616
   29SAPC  H16S 3886   1.634   0.816   8.098  1.3236 -1.0697  0.3755
   29SAPC  C217 3887   1.524   0.645   8.189 -0.1162 -0.0278  0.4492
   29SAPC  H17R 3888   1.603   0.570   8.211 -1.1103 -0.9409  0.9565
   29SAPC  H17S 3889   1.432   0.590   8.162 -0.1026  0.1743 -0.0239
   29SAPC  C218 3890   1.494   0.729   8.315 -0.7073  0.7918  0.2013
   29SAPC  H18R 3891   1.391   0.770   8.310 -1.5653 -1.1787  1.1973
   29SAPC  H18S 3892   1.569   0.809   8.334  0.2657  0.1169 -0.7621
   29SAPC  C219 3893   1.501   0.636   8.438 -0.0456 -0.3452 -0.5233
   29SAPC  H19R 3894   1.480   0.540   8.386  0.0844  0.9731 -3.0934
   29SAPC  H19S 3895   1.418   0.660   8.508  0.2620  0.0320 -0.2836
   29SAPC  C220 3896   1.629   0.622   8.515 -0.5932  0.4671 -0.0976
   29SAPC  H20R 3897   1.717   0.590   8.454  0.7336  1.5683  1.2009
   29SAPC  H20S 3898   1.603   0.546   8.592 -3.9121  3.0742  1.4694
   29SAPC  H20T 3899   1.668   0.711   8.568 -0.4448  0.4250 -0.1347
   29SAPC   C33 3900   0.762   0.299   7.198 -0.1186 -0.0688  0.4291
   29SAPC   H3X 3901   0.870   0.325   7.197 -0.3666  0.9520 -0.9207
   29SAPC   H3Y 3902   0.752   0.190   7.179 -2.0657 -0.2074  2.0603
   29SAPC   C34 3903   0.708   0.317   7.334  0.3724 -0.3361  0.2485
   29SAPC   H4X 3904   0.601   0.293   7.353  0.4307  0.1157  1.1934
   29SAPC   H4Y 3905   0.730   0.420   7.369 -0.7213  0.0709 -0.2497
   29SAPC   C35 3906   0.782   0.220   7.431 -0.6780 -0.0697 -0.3623
   29SAPC   H5X 3907   0.890   0.210   7.408 -0.0095 -0.5486  2.8045
   29SAPC   H5Y 3908   0.743   0.116   7.419 -0.4138 -0.4925  2.0752
   29SAPC   C36 3909   0.766   0.255   7.577 -0.0122 -0.0387  0.1754
   29SAPC   H6X 3910   0.812   0.356   7.592 -0.4169 -0.0444  1.5889
   29SAPC   H6Y 3911   0.832   0.186   7.634  0.4867 -1.4832 -2.1213
   29SAPC   C37 3912   0.620   0.263   7.628 -0.3420  0.8763  0.1881
   29SAPC   H7X 3913   0.588   0.161   7.598  0.6982  0.4733  0.4516
   29SAPC   H7Y 3914   0.565   0.338   7.566  0.6448  2.6646  1.4368
   29SAPC   C38 3915   0.600   0.279   7.773  0.0512  0.1466  0.1281
   29SAPC   H8X 3916   0.665   0.363   7.806  0.0477 -0.3556  1.4547
   29SAPC   H8Y 3917   0.630   0.183   7.820  1.3033  0.8646  0.8424
   29SAPC   C39 3918   0.459   0.283   7.825 -0.4321  0.5966 -0.4920
   29SAPC   H9X 3919   0.402   0.207   7.769  0.8357 -0.6568 -0.1101
   29SAPC   H9Y 3920   0.429   0.388   7.801  0.5844  0.3644 -2.9741
   29SAPC  C310 3921   0.459   0.252   7.979  0.1291  0.6814  0.6275
   29SAPC  H10X 3922   0.493   0.149   8.002 -1.4200 -0.0225 -0.1516
   29SAPC  H10Y 3923   0.352   0.247   8.007  0.3675  1.8655  1.8030
   29SAPC  C311 3924   0.516   0.363   8.062  0.6451 -0.9847  0.4781
   29SAPC  H11X 3925   0.494   0.462   8.016  2.2317 -1.0159 -0.3636
   29SAPC  H11Y 3926   0.623   0.342   8.080  0.9536 -1.0330 -1.3529
   29SAPC  C312 3927   0.439   0.364   8.195  0.3624  0.4475  0.0296
   29SAPC  H12X 3928   0.448   0.272   8.257 -1.7183  0.3102  0.1450
   29SAPC  H12Y 3929   0.333   0.393   8.182  0.1925  0.3778  1.1751
   29SAPC  C313 3930   0.499   0.481   8.273 -0.2188 -0.1100 -0.3302
   29SAPC  H13X 3931   0.498   0.577   8.216  0.8203 -1.0664 -1.9918
   29SAPC  H13Y 3932   0.608   0.464   8.285  0.1900  2.1796 -0.5431
   29SAPC  C314 3933   0.445   0.498   8.419  0.1122  0.1530  0.2330
   29SAPC  H14X 3934   0.484   0.421   8.489  1.2705 -0.7507 -1.3690
   29SAPC  H14Y 3935   0.335   0.486   8.414  0.2854 -2.2644  1.1476
   29SAPC  C315 3936   0.462   0.622   8.505  0.5562  0.0293 -0.0237
   29SAPC  H15X 3937   0.420   0.711   8.453 -1.3588 -0.0554  1.3687
   29SAPC  H15Y 3938   0.569   0.652   8.517  0.3563  0.4583  0.7270
   29SAPC  C316 3939   0.382   0.619   8.633 -0.3495 -0.2120 -0.2670
   29SAPC  H16X 3940   0.395   0.523   8.689 -1.7967 -0.2154  0.0707
   29SAPC  H16Y 3941   0.277   0.625   8.598 -0.8070  1.2839  1.3487
   29SAPC  C317 3942   0.409   0.727   8.730 -0.7601  0.6376 -0.7522
   29SAPC  H17X 3943   0.506   0.717   8.784 -0.9796  0.5694 -0.3720
   29SAPC  H17Y 3944   0.331   0.722   8.808 -0.0884 -0.3628 -0.1396
   29SAPC  C318 3945   0.409   0.875   8.676 -0.7333  0.6203  0.0535
   29SAPC  H18X 3946   0.497   0.880   8.608 -1.4677 -2.7539 -1.2723
   29SAPC  H18Y 3947   0.420   0.950   8.757 -1.5111  1.2534 -0.4244
   29SAPC  H18Z 3948   0.321   0.899   8.612 -0.9309 -1.0828 -0.3654
   30SAPC     N 3949   2.692   0.217   5.875 -0.0328 -0.6765  0.6009
   30SAPC   C12 3950   2.725   0.311   5.989 -0.2178 -1.2051 -0.1128
   30SAPC  H12A 3951   2.763   0.407   5.957  0.2587 -1.2226  0.3836
   30SAPC  H12B 3952   2.803   0.261   6.046  0.0276 -0.3052  0.3443
   30SAPC   C13 3953   2.803   0.202   5.788 -0.3665 -0.0074  0.1880
   30SAPC  H13A 3954   2.807   0.295   5.732  0.4382  1.8630  3.2165
   30SAPC  H13B 3955   2.894   0.179   5.839 -0.1627  1.5831  0.5818
   30SAPC  H13C 3956   2.782   0.122   5.719  1.4268 -1.3978  1.2355
   30SAPC   C14 3957   2.651   0.082   5.929  0.3374 -0.0437 -0.7745
   30SAPC  H14A 3958   2.722   0.046   6.003 -0.3758 -0.0101 -0.0620
   30SAPC  H14B 3959   2.562   0.086   5.990  1.5199  2.6567  0.8869
   30SAPC  H14C 3960   2.643   0.012   5.848 -0.3322  0.2071 -0.9243
   30SAPC   C15 3961   2.574   0.268   5.787 -0.3803 -0.3115  0.1047
   30SAPC  H15A 3962   2.483   0.271   5.845 -0.9786 -0.5233 -0.8114
   30SAPC  H15B 3963   2.601   0.368   5.757  0.7682 -0.2960  1.1678
   30SAPC  H15C 3964   2.565   0.205   5.699 -1.2279 -0.5362  0.3468
   30SAPC   C11 3965   2.615   0.340   6.088  0.8451 -0.6328  0.2932
   30SAPC  H11A 3966   2.652   0.376   6.187  2.1764  0.2274 -0.4923
   30SAPC  H11B 3967   2.558   0.248   6.109  0.5040 -0.8137 -1.3964
   30SAPC     P 3968   2.370   0.444   6.065  0.2298  0.2768 -0.3383
   30SAPC   O13 3969   2.307   0.535   5.968 -0.6865  0.9046  0.3756
   30SAPC   O14 3970   2.313   0.307   6.064 -0.2835  0.0682  0.2228
   30SAPC   O12 3971   2.529   0.449   6.051  0.3809  0.3117 -0.1087
   30SAPC   O11 3972   2.340   0.507   6.204  0.1984 -0.2500  0.0799
   30SAPC    C1 3973   2.404   0.627   6.250  0.2474  0.2433  0.1042
   30SAPC    HA 3974   2.476   0.672   6.178  0.2456 -1.1385 -0.7802
   30SAPC    HB 3975   2.327   0.703   6.273  2.2724  1.9539  1.4707
   30SAPC    C2 3976   2.480   0.600   6.385  0.3313  0.0192 -0.1951
   30SAPC    HS 3977   2.523   0.695   6.424 -1.2308  1.6416 -2.2977
   30SAPC   O21 3978   2.581   0.504   6.370  0.2245 -0.1890  0.3397
   30SAPC   C21 3979   2.683   0.499   6.451  0.1237 -0.2312 -0.0631
   30SAPC   O22 3980   2.716   0.587   6.526  0.0385 -0.2171  0.3368
   30SAPC   C22 3981   2.743   0.354   6.440 -0.4508  0.4849 -0.6100
   30SAPC   H2R 3982   2.670   0.289   6.388  0.5477 -0.4007 -0.9158
   30SAPC   H2S 3983   2.834   0.366   6.377  0.3317  0.3978  0.4974
   30SAPC    C3 3984   2.378   0.555   6.489  0.0811 -0.7331  0.0288
   30SAPC    HX 3985   2.341   0.455   6.458  0.8171 -1.0546  0.1558
   30SAPC    HY 3986   2.296   0.629   6.491  0.2107 -0.5654 -1.0178
   30SAPC   O31 3987   2.436   0.548   6.620 -0.5210 -0.2912 -0.0348
   30SAPC   C31 3988   2.456   0.655   6.690 -0.2728  0.0708 -0.1897
   30SAPC   O32 3989   2.428   0.770   6.664  0.1319 -0.3852 -0.6449
   30SAPC   C32 3990   2.545   0.608   6.817 -0.6587 -0.2743  0.1620
   30SAPC   H2X 3991   2.646   0.636   6.780 -0.1069 -2.8963 -0.3977
   30SAPC   H2Y 3992   2.515   0.503   6.837  1.1823 -1.3602 -2.5093
   30SAPC   C23 3993   2.791   0.294   6.575 -0.1007  0.4316  0.6608
   30SAPC   H3R 3994   2.871   0.354   6.622  1.2608  0.7491 -1.9436
   30SAPC   H3S 3995   2.848   0.203   6.545 -0.0088  0.5712  0.4080
   30SAPC   C24 3996   2.692   0.268   6.689  0.2262 -0.3799 -0.1261
   30SAPC   H4R 3997   2.599   0.223   6.649  0.1824 -0.7266  0.3723
   30SAPC   H4S 3998   2.676   0.366   6.739  0.7176 -0.1518 -0.4115
   30SAPC   C25 3999   2.750   0.171   6.785  0.4410  0.8604  0.1509
   30SAPC   H5R 4000   2.838   0.113   6.751  0.9568  3.0306 -2.3335
   30SAPC   C26 4001   2.681   0.129   6.891  0.2293  0.7323  0.2437
   30SAPC   H6R 4002   2.732   0.055   6.954 -1.2832  0.1195  0.7685
   30SAPC   C27 4003   2.539   0.163   6.926  0.4440  0.5820 -0.3181
   30SAPC   H7R 4004   2.474   0.176   6.837 -3.2674  0.5453  2.2582
   30SAPC   H7S 4005   2.535   0.262   6.975 -0.6564  0.6980 -0.6177
   30SAPC   C28 4006   2.468   0.064   7.010  1.1290 -0.3552  0.2349
   30SAPC   H8R 4007   2.406  -0.009   6.957  1.4773  1.4344 -2.7413
   30SAPC   C29 4008   2.475   0.062   7.142  1.0946  0.1641  0.6111
   30SAPC   H9R 4009   2.412  -0.010   7.196  0.2968  0.8828  0.6540
   30SAPC  C210 4010   2.546   0.162   7.239 -0.3474  0.7884  0.8489
   30SAPC  H10R 4011   2.648   0.176   7.197 -0.8433  0.0647 -0.6244
   30SAPC  H10S 4012   2.565   0.109   7.334  2.5635  0.5550  0.1840
   30SAPC  C211 4013   2.488   0.298   7.263  1.2474 -0.1956  0.1928
   30SAPC  H11R 4014   2.449   0.348   7.173 -2.3510 -1.4047  0.9913
   30SAPC  C212 4015   2.479   0.373   7.378 -1.1582 -0.4041 -0.0220
   30SAPC  H12R 4016   2.430   0.471   7.374  1.2576  0.8074 -1.3403
   30SAPC  C213 4017   2.525   0.326   7.513 -0.1999 -0.0207 -0.4781
   30SAPC  H13R 4018   2.486   0.224   7.535 -2.7597  1.5002  2.2115
   30SAPC  H13S 4019   2.480   0.383   7.596 -1.9411 -1.5870 -0.3199
   30SAPC  C214 4020   2.677   0.318   7.526 -0.1849  1.0806 -0.3230
   30SAPC  H14R 4021   2.735   0.357   7.441 -1.3247 -0.1255 -1.6897
   30SAPC  C215 4022   2.754   0.250   7.620  0.3066  0.4920  0.9041
   30SAPC  H15R 4023   2.864   0.246   7.612  0.6300  2.1603  3.8831
   30SAPC  C216 4024   2.697   0.180   7.741 -0.1248 -0.2058  1.3441
   30SAPC  H16R 4025   2.755   0.086   7.754  0.6723 -0.1609 -1.4584
   30SAPC  H16S 4026   2.588   0.163   7.727 -0.5484  2.6558  0.8625
   30SAPC  C217 4027   2.709   0.265   7.867 -1.2167  0.2012  0.1576
   30SAPC  H17R 4028   2.651   0.209   7.944 -0.3996 -0.3236  0.3955
   30SAPC  H17S 4029   2.671   0.365   7.838 -2.0114 -0.0074  0.4547
   30SAPC  C218 4030   2.854   0.275   7.918  0.1220  0.0966  0.0383
   30SAPC  H18R 4031   2.915   0.331   7.844  0.8270 -0.6868  0.0175
   30SAPC  H18S 4032   2.901   0.176   7.933 -0.0638  0.3913  2.8394
   30SAPC  C219 4033   2.847   0.356   8.046 -0.2352 -0.0141 -0.2013
   30SAPC  H19R 4034   2.782   0.311   8.124 -0.8343 -1.7038 -1.6329
   30SAPC  H19S 4035   2.810   0.456   8.018 -0.3134 -0.0785 -0.3252
   30SAPC  C220 4036   2.985   0.378   8.097  0.3424  0.0917  0.2251
   30SAPC  H20R 4037   3.022   0.278   8.130  0.5022 -0.0434 -0.3551
   30SAPC  H20S 4038   2.986   0.453   8.178  0.0524  0.6951 -0.3262
   30SAPC  H20T 4039   3.050   0.419   8.016  1.4008  0.8794  1.4579
   30SAPC   C33 4040   2.512   0.700   6.933  1.0863  0.3506  0.4259
   30SAPC   H3X 4041   2.404   0.684   6.954  1.0921 -1.3885 -0.7047
   30SAPC   H3Y 4042   2.528   0.802   6.892  3.2020  0.0360  0.4079
   30SAPC   C34 4043   2.603   0.671   7.048  1.0075  0.6703 -0.2114
   30SAPC   H4X 4044   2.711   0.682   7.025  1.4547 -1.5067  0.6754
   30SAPC   H4Y 4045   2.586   0.570   7.091  1.5083 -0.2031 -2.0061
   30SAPC   C35 4046   2.571   0.774   7.165 -0.3326  0.2480 -0.5371
   30SAPC   H5X 4047   2.461   0.783   7.183 -0.2724  0.3197 -0.1922
   30SAPC   H5Y 4048   2.607   0.871   7.126  1.0875  0.5368  1.4129
   30SAPC   C36 4049   2.635   0.729   7.300  0.0701 -0.1618 -0.3797
   30SAPC   H6X 4050   2.746   0.733   7.293  0.1320  0.9949  1.1181
   30SAPC   H6Y 4051   2.596   0.626   7.317 -1.8180  0.4036 -1.2133
   30SAPC   C37 4052   2.588   0.814   7.414  0.2208 -0.1386 -0.1907
   30SAPC   H7X 4053   2.477   0.809   7.410  0.1583  0.1394  0.9021
   30SAPC   H7Y 4054   2.624   0.919   7.420  1.8854 -0.6699 -0.5168
   30SAPC   C38 4055   2.620   0.749   7.555  0.3230  0.3196 -0.1047
   30SAPC   H8X 4056   2.730   0.757   7.569  0.3532 -0.1780 -0.0591
   30SAPC   H8Y 4057   2.598   0.640   7.548  1.1251  0.0965  0.7677
   30SAPC   C39 4058   2.553   0.814   7.675  0.6095  0.4495 -0.0443
   30SAPC   H9X 4059   2.443   0.805   7.675  0.5497  0.8165  2.8960
   30SAPC   H9Y 4060   2.575   0.922   7.687 -1.8713  0.7288  2.2867
   30SAPC  C310 4061   2.593   0.745   7.808  0.4157  0.0065 -0.1851
   30SAPC  H10X 4062   2.701   0.763   7.824  0.3775 -0.1472  0.2377
   30SAPC  H10Y 4063   2.571   0.638   7.789  1.5140  0.1928 -2.6814
   30SAPC  C311 4064   2.525   0.790   7.940 -0.1010 -0.4879 -0.1850
   30SAPC  H11X 4065   2.419   0.820   7.924  0.2057 -0.1032 -1.5879
   30SAPC  H11Y 4066   2.589   0.875   7.970 -0.5152 -0.2872  0.1372
   30SAPC  C312 4067   2.528   0.678   8.044  0.7071 -0.3096 -0.3091
   30SAPC  H12X 4068   2.634   0.646   8.046  0.2639 -1.8054  0.0147
   30SAPC  H12Y 4069   2.477   0.584   8.014  0.7125 -0.4277  0.0468
   30SAPC  C313 4070   2.516   0.706   8.196 -1.0738 -0.3316 -0.0250
   30SAPC  H13X 4071   2.416   0.743   8.229 -0.0982  1.5516  0.8941
   30SAPC  H13Y 4072   2.581   0.791   8.226 -1.1912 -0.9549  2.1185
   30SAPC  C314 4073   2.560   0.589   8.288  0.0412 -0.7742  0.0013
   30SAPC  H14X 4074   2.659   0.544   8.267 -1.0999 -2.6865 -1.3408
   30SAPC  H14Y 4075   2.491   0.504   8.270 -0.9057  0.2292 -1.1197
   30SAPC  C315 4076   2.570   0.621   8.436  0.7676 -0.5806  0.0368
   30SAPC  H15X 4077   2.472   0.670   8.457  0.2876 -0.9981 -1.1681
   30SAPC  H15Y 4078   2.637   0.710   8.437 -1.2996  1.0233  0.5068
   30SAPC  C316 4079   2.610   0.505   8.520  0.0937  0.5393  0.0582
   30SAPC  H16X 4080   2.559   0.416   8.477  2.6013 -0.4743 -0.9503
   30SAPC  H16Y 4081   2.565   0.534   8.618 -0.4019  0.3707 -0.1194
   30SAPC  C317 4082   2.760   0.484   8.549 -0.6369  0.0960  0.8381
   30SAPC  H17X 4083   2.801   0.454   8.450 -1.9375 -2.0397  0.9063
   30SAPC  H17Y 4084   2.754   0.403   8.625 -2.6403 -0.4272  0.1626
   30SAPC  C318 4085   2.846   0.595   8.604  0.0734  0.3132  0.4752
   30SAPC  H18X 4086   2.807   0.640   8.698 -1.4506  0.9734 -0.4550
   30SAPC  H18Y 4087   2.848   0.680   8.533  3.8112  1.9801  2.4026
   30SAPC  H18Z 4088   2.951   0.559   8.618 -0.5787 -2.4274 -1.3618
   31SAPC     N 4089   3.613   0.981   6.114 -0.2992  0.6241 -0.3913
   31SAPC   C12 4090   3.730   1.066   6.139 -0.1789  0.5759  0.5361
   31SAPC  H12A 4091   3.715   1.167   6.101 -1.8831  1.2066  2.8001
   31SAPC  H12B 4092   3.810   1.039   6.071 -0.8118  1.8299 -0.7336
   31SAPC   C13 4093   3.653   0.836   6.108  0.0922  0.1956  0.3907
   31SAPC  H13A 4094   3.562   0.777   6.102 -1.2001  2.1638  0.4012
   31SAPC  H13B 4095   3.720   0.814   6.026  1.0177  2.4450  0.5079
   31SAPC  H13C 4096   3.706   0.799   6.195 -2.8260 -3.3289  0.8052
   31SAPC   C14 4097   3.514   1.004   6.223 -0.7629  0.0916 -0.2781
   31SAPC  H14A 4098   3.534   0.945   6.311  2.1232  1.7251  0.2240
   31SAPC  H14B 4099   3.519   1.106   6.260  0.7419 -1.0150  2.6773
   31SAPC  H14C 4100   3.415   0.980   6.188 -1.1242  1.0901  0.0213
   31SAPC   C15 4101   3.544   1.011   5.982 -0.0101 -0.0899  0.6941
   31SAPC  H15A 4102   3.604   1.021   5.893 -2.5203 -1.4327 -1.2192
   31SAPC  H15B 4103   3.503   0.920   5.941  3.0046  0.9211 -5.0441
   31SAPC  H15C 4104   3.476   1.095   5.985  0.0564  0.0544 -1.4374
   31SAPC   C11 4105   3.805   1.059   6.274 -0.0247  0.4429 -0.0129
   31SAPC  H11A 4106   3.738   1.044   6.360  1.4394 -1.6453  0.8130
   31SAPC  H11B 4107   3.846   1.163   6.272 -1.4997  1.0291 -0.2614
   31SAPC     P 4108   3.947   0.872   6.387 -0.2590  0.6279 -0.0911
   31SAPC   O13 4109   3.868   0.745   6.379  0.2703 -0.0383 -0.1043
   31SAPC   O14 4110   4.094   0.869   6.384  0.4026 -0.0842 -0.3793
   31SAPC   O12 4111   3.910   0.959   6.263 -0.0510  0.0255  0.0735
   31SAPC   O11 4112   3.902   0.957   6.508 -0.0814 -0.2677  0.4692
   31SAPC    C1 4113   3.967   1.075   6.560 -0.1197 -1.1300 -0.2334
   31SAPC    HA 4114   4.057   1.107   6.504 -0.6374  1.7436  0.4898
   31SAPC    HB 4115   3.900   1.163   6.547 -0.5070 -1.1299  1.5988
   31SAPC    C2 4116   3.993   1.068   6.713 -0.2111  0.8317  0.1276
   31SAPC    HS 4117   4.098   1.041   6.737  0.2231  3.0169  0.8010
   31SAPC   O21 4118   3.906   0.966   6.768 -0.2113 -0.0095 -0.1714
   31SAPC   C21 4119   3.955   0.847   6.788 -1.0291 -0.3333 -0.0793
   31SAPC   O22 4120   4.072   0.821   6.762  0.9246  0.6466 -0.3343
   31SAPC   C22 4121   3.856   0.745   6.852 -0.0658 -0.7353 -0.1814
   31SAPC   H2R 4122   3.792   0.805   6.921 -1.0388 -3.7684  1.6618
   31SAPC   H2S 4123   3.796   0.697   6.772 -0.5764 -1.0124  0.3626
   31SAPC    C3 4124   3.967   1.196   6.793  0.1849 -0.1866 -0.6044
   31SAPC    HX 4125   3.861   1.222   6.774 -1.4376 -3.9014  2.6907
   31SAPC    HY 4126   4.024   1.279   6.745 -0.9973  0.4181 -0.9775
   31SAPC   O31 4127   3.997   1.175   6.925  0.5876  0.0746  0.2662
   31SAPC   C31 4128   3.949   1.271   7.003  0.1138 -0.4929  0.0891
   31SAPC   O32 4129   3.875   1.361   6.966 -0.0657  0.1438  0.3254
   31SAPC   C32 4130   3.988   1.238   7.146  0.2413 -0.3776  0.8151
   31SAPC   H2X 4131   4.086   1.282   7.172 -0.5703  1.3195  1.0809
   31SAPC   H2Y 4132   4.013   1.130   7.156 -0.7340 -0.7270 -0.3919
   31SAPC   C23 4133   3.935   0.646   6.937  0.1868 -0.4861 -0.2523
   31SAPC   H3R 4134   4.013   0.607   6.868  0.5160 -1.3738  0.6146
   31SAPC   H3S 4135   3.864   0.568   6.972 -0.7572  0.4798 -0.0151
   31SAPC   C24 4136   4.007   0.696   7.069 -0.4744 -0.0673  0.7784
   31SAPC   H4R 4137   4.087   0.771   7.047 -0.2879 -0.0644  1.4532
   31SAPC   H4S 4138   4.074   0.613   7.100  0.1872  0.3166  0.4045
   31SAPC   C25 4139   3.924   0.736   7.187 -0.6876  0.3941 -0.2320
   31SAPC   H5R 4140   3.837   0.789   7.148  0.5240  2.1343 -0.6383
   31SAPC   C26 4141   3.938   0.703   7.321  0.0664  0.3180  0.5088
   31SAPC   H6R 4142   3.856   0.731   7.389 -1.2225 -2.9255  0.3508
   31SAPC   C27 4143   4.049   0.619   7.378  0.8001 -0.0143 -0.3209
   31SAPC   H7R 4144   4.098   0.548   7.308  1.8792 -1.7753  2.1436
   31SAPC   H7S 4145   3.997   0.544   7.441  0.0907 -0.6614 -1.6482
   31SAPC   C28 4146   4.148   0.700   7.454  0.3605 -0.6272 -0.3338
   31SAPC   H8R 4147   4.243   0.698   7.397 -1.1157  1.0009 -2.9474
   31SAPC   C29 4148   4.141   0.773   7.563 -0.3710  0.6808 -0.2624
   31SAPC   H9R 4149   4.237   0.810   7.600 -0.3772  0.0741  0.3745
   31SAPC  C210 4150   4.013   0.798   7.640  0.3647  0.0742  0.3212
   31SAPC  H10R 4151   4.032   0.763   7.743  3.9441  0.3614 -0.1815
   31SAPC  H10S 4152   3.927   0.738   7.604 -1.1609  0.6217  2.9019
   31SAPC  C211 4153   3.985   0.942   7.622  0.1675  0.1545 -0.3571
   31SAPC  H11R 4154   3.971   0.974   7.517 -1.1476  1.4068  0.1834
   31SAPC  C212 4155   3.965   1.036   7.716 -0.1956 -0.1265  0.2481
   31SAPC  H12R 4156   3.950   1.140   7.684 -3.0324  0.3086  2.7848
   31SAPC  C213 4157   3.966   1.022   7.868 -0.2474 -0.6143 -0.3300
   31SAPC  H13R 4158   3.992   1.117   7.918 -2.1738 -0.7678  1.0213
   31SAPC  H13S 4159   4.031   0.935   7.892  3.3070  2.2504  0.8723
   31SAPC  C214 4160   3.832   0.987   7.911  0.4468  0.0119 -0.3937
   31SAPC  H14R 4161   3.776   0.914   7.851  1.7337 -1.8924  0.6653
   31SAPC  C215 4162   3.751   1.035   8.010  0.2877  0.4782 -0.4348
   31SAPC  H15R 4163   3.649   0.995   8.016  1.1312 -2.1187 -2.4514
   31SAPC  C216 4164   3.786   1.147   8.106  0.0782  0.3691  0.2281
   31SAPC  H16R 4165   3.887   1.190   8.089 -0.6352  2.8488  1.8537
   31SAPC  H16S 4166   3.780   1.115   8.212 -0.7932  0.3186  0.1669
   31SAPC  C217 4167   3.681   1.258   8.097 -0.2755  0.0442  0.4278
   31SAPC  H17R 4168   3.578   1.217   8.107 -0.9661  1.4865 -0.5890
   31SAPC  H17S 4169   3.689   1.291   7.991 -1.0333  1.9562  0.9439
   31SAPC  C218 4170   3.699   1.357   8.200 -0.0586  0.3272  0.0561
   31SAPC  H18R 4171   3.805   1.391   8.192 -0.1236  0.2429 -1.2035
   31SAPC  H18S 4172   3.678   1.321   8.303  0.8701  1.6466  0.7275
   31SAPC  C219 4173   3.612   1.483   8.178  0.1528 -0.0906 -0.2867
   31SAPC  H19R 4174   3.626   1.525   8.076  0.2271 -1.3856 -0.8172
   31SAPC  H19S 4175   3.641   1.553   8.260 -0.7049 -0.2026  0.1255
   31SAPC  C220 4176   3.467   1.460   8.199  0.0634 -0.0488  0.3143
   31SAPC  H20R 4177   3.395   1.543   8.219 -2.0115 -2.0745  1.4659
   31SAPC  H20S 4178   3.468   1.398   8.291  0.4306  1.3683  1.2800
   31SAPC  H20T 4179   3.429   1.396   8.116  1.1216  0.3425 -0.4847
   31SAPC   C33 4180   3.876   1.271   7.257 -0.1400 -0.0747 -0.2940
   31SAPC   H3X 4181   3.801   1.189   7.259  0.3325 -0.5295 -0.9455
   31SAPC   H3Y 4182   3.812   1.360   7.238  1.4890  0.6825 -2.4457
   31SAPC   C34 4183   3.940   1.308   7.394  0.8337  0.2441  0.3561
   31SAPC   H4X 4184   4.039   1.356   7.375  0.2027  0.2839 -3.3266
   31SAPC   H4Y 4185   3.973   1.214   7.442 -1.2883 -0.7502 -0.0757
   31SAPC   C35 4186   3.859   1.389   7.499 -0.2434 -1.2868 -0.5964
   31SAPC   H5X 4187   3.776   1.317   7.517 -0.9083  0.1150  2.4179
   31SAPC   H5Y 4188   3.827   1.485   7.454 -0.7009 -0.5608  1.2197
   31SAPC   C36 4189   3.935   1.424   7.630  0.0208 -0.3228  0.2377
   31SAPC   H6X 4190   4.045   1.417   7.614  0.1320  1.3900  0.1495
   31SAPC   H6Y 4191   3.912   1.344   7.704  2.7986 -2.3016 -0.9592
   31SAPC   C37 4192   3.932   1.569   7.681  0.4106  0.3004 -0.1991
   31SAPC   H7X 4193   3.830   1.613   7.678  0.1525 -0.3173 -0.5681
   31SAPC   H7Y 4194   3.998   1.625   7.611  0.4845  0.6107  0.1180
   31SAPC   C38 4195   4.001   1.581   7.822  0.0284 -0.0455  0.5247
   31SAPC   H8X 4196   4.107   1.561   7.797  0.8785  1.8897  2.3980
   31SAPC   H8Y 4197   3.957   1.510   7.895 -1.5302  0.0700 -0.2732
   31SAPC   C39 4198   3.987   1.721   7.886  0.5266 -0.3189  0.3525
   31SAPC   H9X 4199   4.021   1.807   7.824 -1.0669 -0.6209 -1.0055
   31SAPC   H9Y 4200   4.059   1.723   7.970 -0.5428  0.1959  1.2691
   31SAPC  C310 4201   3.848   1.745   7.941  0.8733 -0.5845  0.1988
   31SAPC  H10X 4202   3.823   1.659   8.007 -3.0674  0.2556 -0.0898
   31SAPC  H10Y 4203   3.774   1.756   7.859 -0.6623  1.1122  1.7665
   31SAPC  C311 4204   3.847   1.879   8.024  0.0014 -0.1913 -0.3867
   31SAPC  H11X 4205   3.742   1.916   8.031  0.6945  1.4953  1.5941
   31SAPC  H11Y 4206   3.906   1.962   7.981  0.2309  0.4330  1.0993
   31SAPC  C312 4207   3.915   1.867   8.163 -0.6551 -0.7779  0.4613
   31SAPC  H12X 4208   4.012   1.817   8.145 -1.8258 -2.7549 -0.5035
   31SAPC  H12Y 4209   3.847   1.797   8.217  2.7719 -2.0477  3.2659
   31SAPC  C313 4210   3.916   2.009   8.236  0.3959  0.0423  0.0981
   31SAPC  H13X 4211   3.810   2.040   8.224  0.6548  1.6495  1.7652
   31SAPC  H13Y 4212   3.980   2.081   8.181  0.1953 -0.0280 -0.2296
   31SAPC  C314 4213   3.951   1.997   8.385  0.1217 -0.0591 -0.0560
   31SAPC  H14X 4214   3.910   1.906   8.432  0.1872 -0.0525  0.0142
   31SAPC  H14Y 4215   3.900   2.082   8.434  1.2493 -0.0176  1.0883
   31SAPC  C315 4216   4.104   1.999   8.405  0.5941  0.2220  0.3960
   31SAPC  H15X 4217   4.134   2.103   8.380 -0.6473  0.6522  0.6818
   31SAPC  H15Y 4218   4.155   1.926   8.338 -0.7753 -0.0684 -0.3559
   31SAPC  C316 4219   4.151   1.972   8.552 -0.1835 -0.3048 -0.4219
   31SAPC  H16X 4220   4.129   1.867   8.580 -1.6906 -0.1502 -0.9949
   31SAPC  H16Y 4221   4.090   2.041   8.614  3.0813  2.5327 -0.2288
   31SAPC  C317 4222   4.299   1.994   8.571 -0.6742 -0.2295  0.8171
   31SAPC  H17X 4223   4.317   2.004   8.680  1.0723 -0.3183  0.5580
   31SAPC  H17Y 4224   4.328   2.096   8.540  0.0668 -1.1349 -1.5897
   31SAPC  C318 4225   4.390   1.902   8.492 -0.2869 -0.0189  0.4296
   31SAPC  H18X 4226   4.354   1.799   8.512 -2.3426  0.1463 -2.1441
   31SAPC  H18Y 4227   4.493   1.919   8.529 -0.3023 -2.3184  1.6002
   31SAPC  H18Z 4228   4.387   1.934   8.385  0.6595  0.0361  0.4162
   32SAPC     N 4229   4.553   1.824   6.077 -0.0530 -0.2900  0.6277
   32SAPC   C12 4230   4.612   1.757   6.202  0.5591 -0.3108  0.4810
   32SAPC  H12A 4231   4.717   1.765   6.180 -0.1577  2.3490 -2.3699
   32SAPC  H12B 4232   4.580   1.654   6.200  0.6556 -0.3286 -0.0672
   32SAPC   C13 4233   4.406   1.870   6.101 -0.0589 -0.0625 -0.7234
   32SAPC  H13A 4234   4.405   1.957   6.166 -0.0167 -0.2556 -0.4640
   32SAPC  H13B 4235   4.346   1.906   6.019  1.7233  1.0720 -1.5612
   32SAPC  H13C 4236   4.348   1.794   6.152  0.3220 -0.7444 -1.3019
   32SAPC   C14 4237   4.641   1.945   6.034 -0.3560  0.4050 -0.6783
   32SAPC  H14A 4238   4.611   2.031   6.093 -0.3901 -0.4666  0.5959
   32SAPC  H14B 4239   4.748   1.932   6.040 -0.6936 -3.3585 -1.7426
   32SAPC  H14C 4240   4.606   1.974   5.936 -2.0484  0.9916  0.0746
   32SAPC   C15 4241   4.554   1.733   5.960  0.5375  0.1487 -0.6083
   32SAPC  H15A 4242   4.487   1.650   5.979  0.4604  0.0709 -1.2011
   32SAPC  H15B 4243   4.517   1.782   5.871 -0.1417  0.8120  0.0268
   32SAPC  H15C 4244   4.651   1.689   5.940  1.6821  1.9787  0.8555
   32SAPC   C11 4245   4.600   1.820   6.348  0.3773 -0.1225  0.6467
   32SAPC  H11A 4246   4.663   1.758   6.416  0.5975  1.1614  1.6373
   32SAPC  H11B 4247   4.496   1.812   6.385  0.3212 -0.3266  0.4423
   32SAPC     P 4248   4.782   2.009   6.333  0.0558  0.0775  0.2422
   32SAPC   O13 4249   4.862   1.891   6.284 -0.6977  0.3108  0.1227
   32SAPC   O14 4250   4.787   2.125   6.249  0.2767 -0.0947  0.0478
   32SAPC   O12 4251   4.638   1.961   6.357  0.8203 -0.1203  0.2823
   32SAPC   O11 4252   4.827   2.044   6.478 -0.4305 -0.0380 -0.6892
   32SAPC    C1 4253   4.773   2.168   6.539 -0.3437 -0.4687  0.1930
   32SAPC    HA 4254   4.815   2.259   6.491  0.9008 -0.3230  1.4983
   32SAPC    HB 4255   4.663   2.175   6.524 -0.0900  0.2503 -1.4024
   32SAPC    C2 4256   4.801   2.183   6.692  0.5477  0.4839  0.4111
   32SAPC    HS 4257   4.910   2.173   6.705  0.4085  1.1214  2.2103
   32SAPC   O21 4258   4.726   2.081   6.771 -0.4580 -0.5615 -0.1116
   32SAPC   C21 4259   4.799   2.023   6.867  0.1408  0.3331  0.4677
   32SAPC   O22 4260   4.919   2.036   6.891  0.1787  0.0357 -0.2123
   32SAPC   C22 4261   4.709   1.936   6.954  0.5153  0.8037 -0.0007
   32SAPC   H2R 4262   4.607   1.981   6.951  2.1687  4.6726 -0.7183
   32SAPC   H2S 4263   4.703   1.831   6.917 -1.1909  1.4474 -1.6169
   32SAPC    C3 4264   4.766   2.326   6.748  0.1485 -0.3291  0.5181
   32SAPC    HX 4265   4.655   2.328   6.745  0.0543 -2.6747  1.0052
   32SAPC    HY 4266   4.810   2.400   6.677 -1.1431 -1.9166 -2.0296
   32SAPC   O31 4267   4.809   2.348   6.886  0.4301  0.0373  0.2460
   32SAPC   C31 4268   4.935   2.359   6.916  0.5035  0.9675  0.3073
   32SAPC   O32 4269   5.025   2.366   6.835  0.0556  0.6426 -0.3174
   32SAPC   C32 4270   4.956   2.350   7.073  0.6310 -0.1699  0.3175
   32SAPC   H2X 4271   4.866   2.296   7.111 -0.5407  0.6962 -1.1709
   32SAPC   H2Y 4272   4.955   2.455   7.109  0.7405 -0.1393  0.2324
   32SAPC   C23 4273   4.743   1.920   7.104 -0.2072 -0.5141 -0.3814
   32SAPC   H3R 4274   4.661   1.882   7.169  0.0003  1.1193  0.8837
   32SAPC   H3S 4275   4.762   2.019   7.150  0.3613 -1.2091  0.9403
   32SAPC   C24 4276   4.861   1.827   7.131 -0.8336  0.1007  0.2700
   32SAPC   H4R 4277   4.903   1.843   7.232 -2.4364 -0.8526  1.1034
   32SAPC   H4S 4278   4.945   1.865   7.069  0.6581 -3.3955  0.0046
   32SAPC   C25 4279   4.833   1.680   7.100  0.0506 -0.1502 -0.3054
   32SAPC   H5R 4280   4.790   1.664   7.000 -0.5223  3.5279 -0.7026
   32SAPC   C26 4281   4.845   1.575   7.184 -0.2761  0.2079 -0.1757
   32SAPC   H6R 4282   4.826   1.474   7.143  3.4717 -0.2166 -1.0263
   32SAPC   C27 4283   4.900   1.590   7.328  0.2500 -0.0716  0.1605
   32SAPC   H7R 4284   4.876   1.494   7.378 -1.5381  1.2322  1.9123
   32SAPC   H7S 4285   4.832   1.663   7.378  2.0843  0.8238  1.3816
   32SAPC   C28 4286   5.040   1.632   7.360 -0.4682  0.2336 -0.1405
   32SAPC   H8R 4287   5.112   1.632   7.277 -0.3632 -0.3587 -0.0542
   32SAPC   C29 4288   5.073   1.660   7.483  0.5017 -0.5253 -0.2436
   32SAPC   H9R 4289   5.176   1.692   7.506  0.3910 -1.0547  1.0349
   32SAPC  C210 4290   4.990   1.656   7.610  0.2080  0.0582 -0.0238
   32SAPC  H10R 4291   5.066   1.661   7.690  1.5849 -0.3605 -1.2927
   32SAPC  H10S 4292   4.940   1.557   7.616  3.3155 -1.4539  1.4503
   32SAPC  C211 4293   4.881   1.761   7.636  0.9840 -0.6724  1.2169
   32SAPC  H11R 4294   4.858   1.829   7.553 -0.6820  1.6336  3.4835
   32SAPC  C212 4295   4.806   1.759   7.743 -0.7569  0.2553  0.0517
   32SAPC  H12R 4296   4.739   1.846   7.751  0.2511  0.9895  0.6881
   32SAPC  C213 4297   4.801   1.672   7.870  0.6666 -0.4979 -0.2092
   32SAPC  H13R 4298   4.824   1.748   7.948 -0.4023 -0.2981 -0.0756
   32SAPC  H13S 4299   4.883   1.598   7.880  0.9636 -0.1377  0.0231
   32SAPC  C214 4300   4.672   1.607   7.902  0.2394  0.5929 -0.5395
   32SAPC  H14R 4301   4.631   1.543   7.821  1.6851  2.9723 -3.2302
   32SAPC  C215 4302   4.597   1.611   8.016  0.3617  0.1525 -0.1185
   32SAPC  H15R 4303   4.499   1.561   8.022  0.1658  0.6659  1.3102
   32SAPC  C216 4304   4.629   1.696   8.138  0.4460  0.2373 -0.1061
   32SAPC  H16R 4305   4.532   1.733   8.178  0.6287  2.1295 -1.3524
   32SAPC  H16S 4306   4.684   1.786   8.104 -0.2767  0.1989 -1.4054
   32SAPC  C217 4307   4.710   1.627   8.246  0.3467 -0.3969 -0.4616
   32SAPC  H17R 4308   4.800   1.591   8.192 -1.9119  0.5919 -5.1791
   32SAPC  H17S 4309   4.651   1.540   8.283  0.4797  0.7782  2.5866
   32SAPC  C218 4310   4.741   1.724   8.357  0.1903 -0.1733  0.3426
   32SAPC  H18R 4311   4.658   1.737   8.430  0.3165  1.5894  0.1971
   32SAPC  H18S 4312   4.748   1.824   8.309  1.1062 -0.2807  0.2585
   32SAPC  C219 4313   4.866   1.678   8.432 -0.2991 -0.8756  0.0903
   32SAPC  H19R 4314   4.948   1.669   8.357 -1.8075  1.0291 -1.8716
   32SAPC  H19S 4315   4.842   1.579   8.475 -1.6540 -0.4002  0.4419
   32SAPC  C220 4316   4.889   1.775   8.554 -0.0006 -0.6224  0.1715
   32SAPC  H20R 4317   4.903   1.883   8.529 -0.6891 -0.1489  1.7976
   32SAPC  H20S 4318   4.981   1.743   8.608 -1.5745 -2.1468  1.9950
   32SAPC  H20T 4319   4.803   1.761   8.622  1.5402 -0.3312  2.2254
   32SAPC   C33 4320   5.083   2.268   7.106 -0.3008 -0.7505  0.4187
   32SAPC   H3X 4321   5.175   2.323   7.074  0.6886  0.0816  4.3963
   32SAPC   H3Y 4322   5.081   2.180   7.039 -0.1363 -0.2235 -0.2811
   32SAPC   C34 4323   5.094   2.245   7.258 -0.3453  0.2230 -0.0695
   32SAPC   H4X 4324   5.008   2.189   7.302 -1.9439  1.4364 -1.5538
   32SAPC   H4Y 4325   5.103   2.339   7.317 -0.8682 -0.6147  1.3687
   32SAPC   C35 4326   5.228   2.167   7.284 -0.2247  0.2690 -0.1072
   32SAPC   H5X 4327   5.299   2.232   7.230 -1.3682  1.6048 -0.0269
   32SAPC   H5Y 4328   5.214   2.070   7.231  1.7952  0.3118 -0.7260
   32SAPC   C36 4329   5.277   2.154   7.436  0.0038 -0.2810  0.2193
   32SAPC   H6X 4330   5.266   2.250   7.489 -1.1502 -0.6526  0.6761
   32SAPC   H6Y 4331   5.385   2.130   7.443 -0.0820 -1.5031 -2.1032
   32SAPC   C37 4332   5.209   2.042   7.510  0.0033  0.0639  0.3925
   32SAPC   H7X 4333   5.217   1.948   7.451  0.9780  1.5884 -1.9423
   32SAPC   H7Y 4334   5.100   2.056   7.526 -0.1368 -1.0848  0.4783
   32SAPC   C38 4335   5.283   2.011   7.642 -0.0482 -0.5197  0.8813
   32SAPC   H8X 4336   5.375   2.073   7.641 -0.9141  0.7889  0.0711
   32SAPC   H8Y 4337   5.310   1.904   7.649 -0.7642 -0.8681 -1.2762
   32SAPC   C39 4338   5.207   2.070   7.760  0.9852  0.2498 -0.3697
   32SAPC   H9X 4339   5.161   2.171   7.758 -1.7221 -0.9184  0.0915
   32SAPC   H9Y 4340   5.274   2.069   7.848  0.6395 -0.6288 -0.1055
   32SAPC  C310 4341   5.087   1.972   7.779  0.2981  0.6231  0.2109
   32SAPC  H10X 4342   5.126   1.868   7.775  0.9331  0.8021  1.5006
   32SAPC  H10Y 4343   5.015   1.979   7.695 -0.9555 -0.8204  1.1456
   32SAPC  C311 4344   5.015   2.000   7.913 -0.1566 -0.2582  1.4466
   32SAPC  H11X 4345   4.912   1.958   7.910  0.2686 -1.3304  1.8118
   32SAPC  H11Y 4346   4.996   2.109   7.920  0.6685  0.1792 -2.0278
   32SAPC  C312 4347   5.099   1.943   8.024  0.3500 -0.1955 -0.2540
   32SAPC  H12X 4348   5.194   1.999   8.036 -1.2365  2.3707  0.9296
   32SAPC  H12Y 4349   5.132   1.841   7.995 -1.4105 -0.2910 -2.0102
   32SAPC  C313 4350   5.017   1.952   8.163  0.7343 -0.3565  0.2663
   32SAPC  H13X 4351   5.080   1.925   8.250  0.1585 -0.8452  0.5303
   32SAPC  H13Y 4352   4.935   1.878   8.156 -0.2232  0.7800 -0.6869
   32SAPC  C314 4353   4.942   2.087   8.179  0.2185  0.4059  0.9522
   32SAPC  H14X 4354   4.853   2.085   8.113  1.1156  1.1201 -0.2981
   32SAPC  H14Y 4355   5.000   2.177   8.150 -1.9783  1.6536  0.3234
   32SAPC  C315 4356   4.894   2.123   8.320 -0.6994 -0.0796  0.5155
   32SAPC  H15X 4357   4.974   2.118   8.397  0.5605  3.2359 -0.4469
   32SAPC  H15Y 4358   4.812   2.063   8.363  1.5871 -1.6977  2.7992
   32SAPC  C316 4359   4.851   2.268   8.328 -0.0301 -0.5489  0.5821
   32SAPC  H16X 4360   4.780   2.289   8.410 -0.7385  2.2479 -0.6977
   32SAPC  H16Y 4361   4.791   2.305   8.242  0.0654  2.2906  1.6900
   32SAPC  C317 4362   4.967   2.367   8.354 -0.7237  0.2431  0.3537
   32SAPC  H17X 4363   5.027   2.376   8.261 -0.1667  1.4900  0.8223
   32SAPC  H17Y 4364   5.022   2.335   8.445 -0.4040 -0.5730 -0.1156
   32SAPC  C318 4365   4.920   2.504   8.370 -0.5303 -0.1229 -0.6269
   32SAPC  H18X 4366   4.995   2.568   8.319  0.6531  0.0533  1.2959
   32SAPC  H18Y 4367   4.937   2.525   8.477  1.1807  3.5813 -1.5599
   32SAPC  H18Z 4368   4.819   2.525   8.329 -0.1901  0.7807 -1.0158
   33POPC     N 4369   1.803   3.732  10.993 -0.1955 -0.8124 -0.0368
   33POPC   C12 4370   1.871   3.647  10.883 -0.4838  0.5520  0.2761
   33POPC  H12A 4371   1.887   3.549  10.925 -1.4966  0.3027  0.1012
   33POPC  H12B 4372   1.966   3.691  10.858  0.1858 -0.2382  1.3987
   33POPC   C13 4373   1.669   3.666  11.027 -0.3817  0.4715 -0.2889
   33POPC  H13A 4374   1.608   3.718  11.098  2.1565 -0.0717  2.4002
   33POPC  H13B 4375   1.615   3.641  10.937 -1.6407  1.1563  0.2725
   33POPC  H13C 4376   1.679   3.568  11.072 -2.6035 -0.1737 -1.1353
   33POPC   C14 4377   1.885   3.735  11.121  0.3428  0.4445 -0.1122
   33POPC  H14A 4378   1.854   3.819  11.182 -1.4311 -0.1055 -0.2342
   33POPC  H14B 4379   1.871   3.641  11.172 -1.1206  0.5104 -0.3715
   33POPC  H14C 4380   1.991   3.749  11.103  0.2718  2.1131  0.6265
   33POPC   C15 4381   1.782   3.870  10.943 -0.0610 -0.2081  0.6987
   33POPC  H15A 4382   1.721   3.941  10.998 -0.4383 -0.0378  0.0674
   33POPC  H15B 4383   1.735   3.863  10.846 -0.7155 -1.0552  1.0695
   33POPC  H15C 4384   1.869   3.926  10.912 -1.0428  1.1421  0.3344
   33POPC   C11 4385   1.783   3.630  10.755 -0.4582 -0.6093  0.8767
   33POPC  H11A 4386   1.681   3.590  10.775 -0.0686 -1.6950  0.7035
   33POPC  H11B 4387   1.838   3.559  10.691 -0.6277  0.2741 -0.2699
   33POPC     P 4388   1.870   3.810  10.576  0.2436 -0.3761  0.3725
   33POPC   O13 4389   2.001   3.740  10.578  0.4463  0.3507 -0.4061
   33POPC   O14 4390   1.889   3.953  10.608 -0.2923  0.0722  0.6174
   33POPC   O12 4391   1.768   3.752  10.682  0.1084 -0.3559  0.8063
   33POPC   O11 4392   1.796   3.793  10.435 -0.0883 -1.0005 -0.3239
   33POPC    C1 4393   1.680   3.721  10.405  0.0567  0.0556  0.5103
   33POPC    HA 4394   1.715   3.617  10.385  1.2476  0.9193 -2.1771
   33POPC    HB 4395   1.619   3.705  10.496  0.3160  0.8887  0.8298
   33POPC    C2 4396   1.584   3.781  10.298 -0.8755  0.1657 -0.1388
   33POPC    HS 4397   1.488   3.726  10.303  0.1925 -1.6411  1.1891
   33POPC   O21 4398   1.655   3.778  10.168  0.0820  0.5970 -0.0068
   33POPC   C21 4399   1.617   3.666  10.101  0.3363  0.4342 -1.2010
   33POPC   O22 4400   1.555   3.573  10.147 -0.0991 -0.1757 -0.4416
   33POPC   C22 4401   1.658   3.681   9.955  0.0197  0.2126  0.4250
   33POPC   H2R 4402   1.604   3.608   9.891  1.0268 -1.8764  1.9106
   33POPC   H2S 4403   1.766   3.654   9.958 -0.0284 -0.0729 -0.3380
   33POPC    C3 4404   1.540   3.922  10.337 -0.3412  0.4910  0.0013
   33POPC    HX 4405   1.632   3.982  10.353 -0.8710  1.2340  0.2984
   33POPC    HY 4406   1.491   3.903  10.436 -0.6058 -0.7309 -0.3473
   33POPC   O31 4407   1.437   3.989  10.253  0.3777  0.3917  0.4606
   33POPC   C31 4408   1.471   4.097  10.187 -0.5201 -0.0756  0.0313
   33POPC   O32 4409   1.581   4.144  10.178  0.3238 -0.0666  0.3155
   33POPC   C32 4410   1.354   4.161  10.111  0.2100 -0.2173  0.6926
   33POPC   H2X 4411   1.388   4.256  10.065  1.4681 -0.7465  0.4927
   33POPC   H2Y 4412   1.276   4.178  10.188  1.3406  0.8052  1.6486
   33POPC   C23 4413   1.645   3.824   9.888 -0.3687 -0.2477 -0.6789
   33POPC   H3R 4414   1.719   3.894   9.932  0.1993 -0.8573 -0.6566
   33POPC   H3S 4415   1.544   3.859   9.918  0.8823  1.2995  1.8784
   33POPC   C24 4416   1.655   3.834   9.730  0.0392 -0.0427 -0.6190
   33POPC   H4R 4417   1.567   3.783   9.684 -1.2615  0.8264  0.8388
   33POPC   H4S 4418   1.746   3.794   9.681  0.9421  0.0765  0.9375
   33POPC   C25 4419   1.645   3.989   9.705 -1.0264  0.5561  0.8960
   33POPC   H5R 4420   1.730   4.047   9.747 -1.2346  0.7868  1.0022
   33POPC   H5S 4421   1.556   4.030   9.759 -0.6421  1.0197  1.1787
   33POPC   C26 4422   1.634   4.008   9.550 -0.3259 -0.4895  0.6111
   33POPC   H6R 4423   1.529   3.982   9.527 -0.2006 -1.2051  0.8512
   33POPC   H6S 4424   1.717   3.954   9.499  0.2747  0.7690  0.2239
   33POPC   C27 4425   1.640   4.157   9.504  0.0144 -0.7057 -0.0421
   33POPC   H7R 4426   1.737   4.198   9.538 -0.4512 -0.4164  0.9736
   33POPC   H7S 4427   1.552   4.207   9.550  1.5160  0.0417  2.0906
   33POPC   C28 4428   1.626   4.162   9.347 -0.3325  0.4103 -1.1362
   33POPC   H8R 4429   1.538   4.101   9.318  0.5052 -1.3436 -0.0888
   33POPC   H8S 4430   1.717   4.110   9.311 -0.5100 -0.4054 -0.4348
   33POPC   C29 4431   1.606   4.304   9.306 -0.5511  0.6972  0.1568
   33POPC   H91 4432   1.568   4.377   9.379 -3.4961 -0.4459 -0.1742
   33POPC  C210 4433   1.640   4.357   9.189 -0.0822 -0.3519  0.0725
   33POPC  H101 4434   1.615   4.460   9.162  0.5179 -0.2884 -0.2508
   33POPC  C211 4435   1.690   4.275   9.069 -0.8660 -0.8765 -0.1858
   33POPC  H11R 4436   1.735   4.177   9.095  1.3806 -0.3594 -1.9687
   33POPC  H11S 4437   1.768   4.333   9.016  0.8106 -0.9160  2.1765
   33POPC  C212 4438   1.583   4.244   8.975  0.4692 -0.5181 -0.2082
   33POPC  H12R 4439   1.535   4.338   8.941 -0.1216  0.0717  2.1701
   33POPC  H12S 4440   1.499   4.187   9.019 -1.2834  1.3354 -1.0750
   33POPC  C213 4441   1.644   4.176   8.848  0.2697 -0.5107 -0.1551
   33POPC  H13R 4442   1.682   4.077   8.881  0.9488 -0.7699 -1.6978
   33POPC  H13S 4443   1.735   4.230   8.816  0.1016 -1.8179 -3.0115
   33POPC  C214 4444   1.539   4.145   8.731 -0.7832 -0.6293  0.7250
   33POPC  H14R 4445   1.479   4.239   8.729 -0.4073 -0.3437  2.1630
   33POPC  H14S 4446   1.476   4.058   8.760 -1.1542 -1.0334 -1.2300
   33POPC  C215 4447   1.606   4.120   8.597 -0.1545  0.5551 -0.5462
   33POPC  H15R 4448   1.624   4.222   8.556 -1.4344  0.3005 -1.7856
   33POPC  H15S 4449   1.533   4.074   8.527 -1.6982 -0.2737  1.5842
   33POPC  C216 4450   1.735   4.044   8.605  0.1048 -0.5328  0.6392
   33POPC  H16R 4451   1.731   3.964   8.682  2.3083 -1.6394 -0.3510
   33POPC  H16S 4452   1.817   4.113   8.631 -0.3856  1.3903 -2.6599
   33POPC  C217 4453   1.769   3.972   8.469 -0.0031 -0.9039 -0.4015
   33POPC  H17R 4454   1.686   3.901   8.452  1.3503 -2.2018 -1.6904
   33POPC  H17S 4455   1.862   3.912   8.466  0.3774 -0.2877 -1.1612
   33POPC  C218 4456   1.792   4.075   8.359 -0.4901 -0.6237 -0.0680
   33POPC  H18R 4457   1.813   4.027   8.261 -0.4563  0.6260 -0.6802
   33POPC  H18S 4458   1.886   4.129   8.386 -0.9137 -0.4671  1.1094
   33POPC  H18T 4459   1.716   4.155   8.347 -1.0756 -0.9756  1.2272
   33POPC   C33 4460   1.298   4.075   9.996 -0.2126  0.3681  0.3631
   33POPC   H3X 4461   1.218   4.010  10.038  0.4966 -0.8190 -0.0943
   33POPC   H3Y 4462   1.383   4.013   9.960  0.0411  1.4409 -0.9366
   33POPC   C34 4463   1.261   4.163   9.884 -0.2197 -0.4263 -0.1277
   33POPC   H4X 4464   1.340   4.234   9.849  0.4932 -1.4063 -0.5225
   33POPC   H4Y 4465   1.167   4.221   9.899  1.6353  2.4931  0.8146
   33POPC   C35 4466   1.249   4.084   9.743 -0.4944 -0.2049 -0.4280
   33POPC   H5X 4467   1.168   4.008   9.746 -1.1617  0.5443  1.8389
   33POPC   H5Y 4468   1.350   4.042   9.726  1.8165  4.2489  1.3943
   33POPC   C36 4469   1.212   4.182   9.632 -1.1264 -0.2711 -0.7640
   33POPC   H6X 4470   1.266   4.278   9.649 -3.4272  1.2111 -1.5671
   33POPC   H6Y 4471   1.104   4.206   9.648 -1.7976 -2.2556 -2.1886
   33POPC   C37 4472   1.228   4.127   9.487  0.3985 -0.5754  0.1700
   33POPC   H7X 4473   1.146   4.053   9.476  1.7290 -2.2161  1.0496
   33POPC   H7Y 4474   1.324   4.072   9.482 -0.9765 -2.8220 -3.9747
   33POPC   C38 4475   1.206   4.239   9.380  0.2143  0.5367  0.4802
   33POPC   H8X 4476   1.267   4.331   9.391 -0.6580  1.1513  0.2652
   33POPC   H8Y 4477   1.104   4.280   9.397 -0.9855 -1.7952 -0.8072
   33POPC   C39 4478   1.220   4.181   9.239 -0.3477  0.4019  0.3187
   33POPC   H9X 4479   1.166   4.085   9.221  0.7795 -0.5046  1.5954
   33POPC   H9Y 4480   1.329   4.170   9.221 -0.1677  0.7949  1.1243
   33POPC  C310 4481   1.170   4.277   9.134 -0.1853 -0.7025  0.4403
   33POPC  H10X 4482   1.233   4.369   9.135  0.6983 -1.2395 -1.7086
   33POPC  H10Y 4483   1.066   4.313   9.147  0.1245  0.1597  0.5819
   33POPC  C311 4484   1.193   4.229   8.992 -0.2337  0.4964  1.1317
   33POPC  H11X 4485   1.140   4.132   8.988 -0.0396  0.4244  0.1944
   33POPC  H11Y 4486   1.297   4.205   8.963 -0.4145  1.6405 -0.5621
   33POPC  C312 4487   1.129   4.322   8.886 -0.2968  0.5109  0.7438
   33POPC  H12X 4488   1.173   4.424   8.893  1.0020  0.0027  0.2189
   33POPC  H12Y 4489   1.019   4.328   8.894 -0.2660  0.4723  1.1884
   33POPC  C313 4490   1.163   4.269   8.745 -0.5753 -0.0871  0.2785
   33POPC  H13X 4491   1.133   4.163   8.727  0.6504 -0.4653  0.4236
   33POPC  H13Y 4492   1.273   4.272   8.733 -0.6819 -0.1824 -0.7177
   33POPC  C314 4493   1.125   4.368   8.632 -0.4152 -0.3436  0.0425
   33POPC  H14X 4494   1.159   4.473   8.645 -0.9199 -0.1256 -0.3804
   33POPC  H14Y 4495   1.014   4.374   8.632 -0.3151  2.0551  1.7868
   33POPC  C315 4496   1.162   4.312   8.499 -0.7176  0.1823 -0.0480
   33POPC  H15X 4497   1.109   4.215   8.500 -1.9672  0.8532 -0.5072
   33POPC  H15Y 4498   1.271   4.301   8.480 -1.0323 -0.8827 -1.2254
   33POPC  C316 4499   1.083   4.381   8.377  0.1431 -0.7355  0.3499
   33POPC  H16X 4500   0.973   4.371   8.395  0.4178 -0.0544  2.5149
   33POPC  H16Y 4501   1.106   4.332   8.281  1.6137 -1.4156  1.0433
   33POPC  H16Z 4502   1.111   4.489   8.378 -1.8448 -0.1957  0.3150
   34POPC     N 4503   0.743   4.330  10.838  0.0244 -1.0516 -0.7125
   34POPC   C12 4504   0.842   4.337  10.951  0.6279 -0.0136  0.2411
   34POPC  H12A 4505   0.877   4.239  10.981 -0.4207 -0.8446 -1.1671
   34POPC  H12B 4506   0.784   4.381  11.030  0.7701 -0.1108  0.3986
   34POPC   C13 4507   0.629   4.236  10.869 -0.1337  0.3554 -0.4461
   34POPC  H13A 4508   0.588   4.244  10.968  1.0060  1.0259 -0.0231
   34POPC  H13B 4509   0.546   4.255  10.802  0.2948 -1.3833 -1.4995
   34POPC  H13C 4510   0.659   4.134  10.851 -2.9223 -0.5441 -0.2201
   34POPC   C14 4511   0.683   4.472  10.808 -0.1611 -0.2158  0.0400
   34POPC  H14A 4512   0.616   4.491  10.890 -0.8902 -0.9442 -0.3785
   34POPC  H14B 4513   0.746   4.560  10.812  0.6941 -0.9165  2.2234
   34POPC  H14C 4514   0.620   4.478  10.720 -1.8841  1.9371  1.3472
   34POPC   C15 4515   0.803   4.286  10.714  0.1416  0.6771 -0.1531
   34POPC  H15A 4516   0.856   4.193  10.727 -0.2304  0.4723 -0.1178
   34POPC  H15B 4517   0.875   4.359  10.679 -0.0774  1.7220  1.5080
   34POPC  H15C 4518   0.732   4.279  10.634  0.9033 -1.9325 -0.6343
   34POPC   C11 4519   0.969   4.426  10.929  0.0967 -0.4368  0.4748
   34POPC  H11A 4520   1.008   4.409  10.827  1.9448  0.7378  0.9763
   34POPC  H11B 4521   1.048   4.392  11.000 -1.2126 -2.4980  0.9822
   34POPC     P 4522   1.046   4.672  10.893  0.0848  0.3777  0.0616
   34POPC   O13 4523   1.181   4.616  10.916 -0.0910 -0.1086 -0.2752
   34POPC   O14 4524   1.016   4.802  10.962 -0.9132  0.0199  0.0457
   34POPC   O12 4525   0.936   4.565  10.945 -0.0785  0.4942 -0.2942
   34POPC   O11 4526   1.029   4.692  10.738  0.0348  0.3229 -0.1561
   34POPC    C1 4527   0.900   4.687  10.685  0.4780 -0.0816 -0.6184
   34POPC    HA 4528   0.822   4.734  10.748 -1.2652 -0.3591 -2.5334
   34POPC    HB 4529   0.870   4.583  10.661 -0.8380 -0.0868  0.9905
   34POPC    C2 4530   0.884   4.771  10.547 -0.2996  0.0029 -0.2201
   34POPC    HS 4531   0.776   4.767  10.519 -0.1911 -0.6657 -0.5600
   34POPC   O21 4532   0.952   4.704  10.440  0.5927  0.0775  0.2998
   34POPC   C21 4533   0.904   4.718  10.320 -0.2209 -0.8289  0.2526
   34POPC   O22 4534   0.791   4.750  10.289 -0.0643 -0.2557 -0.0780
   34POPC   C22 4535   1.019   4.688  10.224 -0.2545 -0.0463 -0.1352
   34POPC   H2R 4536   1.050   4.581  10.225  0.3298  0.1042 -1.1582
   34POPC   H2S 4537   1.111   4.738  10.261 -0.2566  0.2751 -0.5608
   34POPC    C3 4538   0.940   4.921  10.560 -0.5760 -0.7381  0.6519
   34POPC    HX 4539   1.045   4.897  10.588 -0.2941 -1.0817 -0.6584
   34POPC    HY 4540   0.897   4.972  10.648  0.9872  0.3444  0.8225
   34POPC   O31 4541   0.921   4.999  10.434 -0.3233 -0.1925 -0.0530
   34POPC   C31 4542   0.798   5.051  10.423 -0.2879  0.2268  0.0713
   34POPC   O32 4543   0.706   5.033  10.500 -0.3721 -0.6146 -0.4079
   34POPC   C32 4544   0.787   5.153  10.312  0.1173  0.2300  0.4917
   34POPC   H2X 4545   0.834   5.249  10.340 -3.0762  2.3656 -1.1504
   34POPC   H2Y 4546   0.679   5.171  10.295 -0.0049  0.8190  1.8722
   34POPC   C23 4547   0.979   4.735  10.081 -0.6386 -0.5061 -0.3261
   34POPC   H3R 4548   0.965   4.845  10.080 -0.7863 -0.5175  0.2400
   34POPC   H3S 4549   0.878   4.690  10.064 -1.0623  0.1394  0.4441
   34POPC   C24 4550   1.089   4.688   9.976  0.0003  0.2730  0.6434
   34POPC   H4R 4551   1.128   4.589  10.007  2.3947  0.1137 -2.6482
   34POPC   H4S 4552   1.175   4.757   9.984  0.0925  0.4866 -1.6488
   34POPC   C25 4553   1.024   4.672   9.841  0.5982 -0.2105 -1.1127
   34POPC   H5R 4554   0.990   4.774   9.815  3.6873  1.0864 -0.2655
   34POPC   H5S 4555   0.942   4.599   9.856  1.7041 -1.1905  0.4448
   34POPC   C26 4556   1.118   4.604   9.728 -0.1874 -0.1080 -0.2081
   34POPC   H6R 4557   1.193   4.540   9.778  1.4075  0.1188 -2.2927
   34POPC   H6S 4558   1.169   4.688   9.678 -1.0820 -0.6627 -2.1149
   34POPC   C27 4559   1.043   4.514   9.633 -0.6330  0.9312  0.1143
   34POPC   H7R 4560   0.992   4.435   9.693 -1.8516  0.7801 -1.1054
   34POPC   H7S 4561   1.110   4.465   9.560  0.8921  1.2591  1.2501
   34POPC   C28 4562   0.933   4.587   9.557  0.4092  0.2808 -0.0279
   34POPC   H8R 4563   0.993   4.663   9.503 -1.7174  1.2624 -1.0355
   34POPC   H8S 4564   0.855   4.636   9.618 -0.2819 -1.8913  0.8923
   34POPC   C29 4565   0.872   4.500   9.447 -0.2496  0.0962  0.0973
   34POPC   H91 4566   0.801   4.428   9.490 -0.5047  1.1092  1.3958
   34POPC  C210 4567   0.899   4.496   9.313 -0.3132 -0.0116 -0.2556
   34POPC  H101 4568   0.858   4.408   9.262  1.5451 -0.6053 -0.7822
   34POPC  C211 4569   0.993   4.590   9.237  0.0606  0.1893 -0.3328
   34POPC  H11R 4570   1.079   4.529   9.202  0.0397  1.3537 -2.5186
   34POPC  H11S 4571   1.024   4.681   9.293  1.5341 -0.6044  0.1726
   34POPC  C212 4572   0.922   4.624   9.105 -0.1648  0.2068  0.8819
   34POPC  H12R 4573   0.836   4.692   9.121  0.4754  1.1182  0.5237
   34POPC  H12S 4574   0.888   4.524   9.069  0.2384  0.3296  0.1574
   34POPC  C213 4575   1.014   4.698   9.013 -0.2486 -0.6286  0.3686
   34POPC  H13R 4576   1.091   4.624   8.983  0.4949 -0.0461  0.8255
   34POPC  H13S 4577   1.054   4.788   9.065 -1.5009  0.1413  0.0052
   34POPC  C214 4578   0.943   4.746   8.893  0.4261  0.2881  0.9792
   34POPC  H14R 4579   0.870   4.817   8.937  1.1998  1.8138 -0.1611
   34POPC  H14S 4580   0.887   4.670   8.833  1.4292  1.4803 -1.5600
   34POPC  C215 4581   1.025   4.823   8.794 -0.0976  0.2360  0.7030
   34POPC  H15R 4582   1.120   4.769   8.772 -0.3444  0.0375  0.1251
   34POPC  H15S 4583   1.058   4.912   8.852 -1.5708  0.5155  1.1215
   34POPC  C216 4584   0.948   4.864   8.664 -0.2409 -0.6326 -0.6143
   34POPC  H16R 4585   0.998   4.958   8.630 -3.2704  1.6180  0.9441
   34POPC  H16S 4586   0.841   4.888   8.680  0.4005  1.7739  0.3789
   34POPC  C217 4587   0.972   4.757   8.561 -0.2792  0.5819 -0.2307
   34POPC  H17R 4588   0.947   4.661   8.613  1.9908  0.3551  0.4889
   34POPC  H17S 4589   1.079   4.744   8.535 -0.3913 -2.4169  0.5549
   34POPC  C218 4590   0.897   4.772   8.431  0.4399 -0.8710  1.0517
   34POPC  H18R 4591   0.937   4.698   8.358 -0.9983 -0.3333 -0.3012
   34POPC  H18S 4592   0.905   4.873   8.385  2.4091 -0.7620  1.5774
   34POPC  H18T 4593   0.789   4.750   8.442  0.8901 -1.9880  3.5877
   34POPC   C33 4594   0.844   5.104  10.177 -0.3151 -0.0953  0.3166
   34POPC   H3X 4595   0.808   4.999  10.176 -2.3376  0.5945 -0.8429
   34POPC   H3Y 4596   0.954   5.096  10.162  0.0433  2.0005  1.5246
   34POPC   C34 4597   0.787   5.165  10.047 -0.6512 -0.5171 -0.0918
   34POPC   H4X 4598   0.825   5.270  10.046  1.7933 -1.2010  4.6555
   34POPC   H4Y 4599   0.676   5.159  10.051 -0.9000  0.7160 -3.6711
   34POPC   C35 4600   0.829   5.085   9.922 -0.2623 -0.3370  0.0405
   34POPC   H5X 4601   0.928   5.035   9.930 -1.2230 -2.0518  1.7385
   34POPC   H5Y 4602   0.821   5.148   9.830 -0.1305  1.3249  1.1558
   34POPC   C36 4603   0.735   4.963   9.886  0.0964 -0.8472  0.2314
   34POPC   H6X 4604   0.629   4.987   9.910  0.7165  0.1908  2.0418
   34POPC   H6Y 4605   0.775   4.888   9.957 -0.3739 -2.2767 -0.9802
   34POPC   C37 4606   0.728   4.915   9.742 -0.1601  0.2120 -0.5267
   34POPC   H7X 4607   0.826   4.879   9.703 -0.2122  0.1433 -0.5945
   34POPC   H7Y 4608   0.687   4.977   9.659 -0.5154  0.6575 -0.0196
   34POPC   C38 4609   0.640   4.791   9.727 -0.6075  0.0212  0.1626
   34POPC   H8X 4610   0.550   4.795   9.792 -0.6809 -2.5782  0.3084
   34POPC   H8Y 4611   0.700   4.702   9.757  0.0790 -0.2312 -1.9195
   34POPC   C39 4612   0.580   4.771   9.588  0.1858 -0.3183  0.0579
   34POPC   H9X 4613   0.665   4.768   9.517 -0.2323  0.9838 -0.4991
   34POPC   H9Y 4614   0.509   4.850   9.556 -0.0995 -0.6622 -0.1601
   34POPC  C310 4615   0.504   4.634   9.595  0.1872 -0.0332 -0.8809
   34POPC  H10X 4616   0.424   4.653   9.669  1.1468  1.8243 -0.2826
   34POPC  H10Y 4617   0.567   4.544   9.610 -0.3112 -0.1961  0.2923
   34POPC  C311 4618   0.418   4.619   9.466  0.4978 -0.5288 -0.2818
   34POPC  H11X 4619   0.393   4.717   9.419 -2.0886 -1.4207 -0.8907
   34POPC  H11Y 4620   0.315   4.583   9.490 -0.1296  0.6503 -1.1830
   34POPC  C312 4621   0.483   4.518   9.369  0.1351 -0.0597  0.8819
   34POPC  H12X 4622   0.497   4.423   9.424  1.6980  0.8248  2.0950
   34POPC  H12Y 4623   0.587   4.549   9.345  0.5361 -1.7143  0.4930
   34POPC  C313 4624   0.392   4.491   9.245  0.0438  0.1075 -0.2218
   34POPC  H13X 4625   0.359   4.588   9.203 -1.8356 -0.4351 -0.0443
   34POPC  H13Y 4626   0.294   4.445   9.272  0.9383  0.4696  4.0334
   34POPC  C314 4627   0.459   4.407   9.135  0.5541 -0.4402 -0.0645
   34POPC  H14X 4628   0.479   4.303   9.169  1.4983 -0.8665 -1.8853
   34POPC  H14Y 4629   0.553   4.451   9.096 -0.7677  0.1995 -2.6079
   34POPC  C315 4630   0.371   4.400   9.008  0.7001 -0.4832 -0.0457
   34POPC  H15X 4631   0.430   4.343   8.934  1.1166  2.6220 -2.2049
   34POPC  H15Y 4632   0.352   4.501   8.965 -0.7740 -1.4042 -1.6175
   34POPC  C316 4633   0.237   4.321   9.039 -0.4676 -0.1898 -0.1501
   34POPC  H16X 4634   0.156   4.340   8.965 -1.0590  0.7340  0.7218
   34POPC  H16Y 4635   0.193   4.352   9.136  0.8379 -2.5891  1.2252
   34POPC  H16Z 4636   0.253   4.212   9.043 -1.8177 -0.3709  0.6324
   35POPC     N 4637   0.816   2.097  10.896  0.4314  0.6390 -0.0147
   35POPC   C12 4638   0.857   1.956  10.846  0.0323  0.5959 -0.6521
   35POPC  H12A 4639   0.940   1.932  10.910 -0.1088  1.2845 -0.2009
   35POPC  H12B 4640   0.873   1.962  10.739  1.2948  2.5622 -0.3904
   35POPC   C13 4641   0.908   2.198  10.854  0.0516 -0.5009 -0.0631
   35POPC  H13A 4642   0.902   2.296  10.899  0.7999 -0.0389 -0.9563
   35POPC  H13B 4643   1.009   2.162  10.866  0.5748  0.5027 -1.2869
   35POPC  H13C 4644   0.904   2.210  10.746  2.0065 -0.4031 -0.1386
   35POPC   C14 4645   0.673   2.119  10.851 -0.4276 -0.0084  0.0654
   35POPC  H14A 4646   0.636   2.205  10.905 -0.9458 -0.7136  0.8240
   35POPC  H14B 4647   0.670   2.140  10.745 -1.2139  1.2014  0.3152
   35POPC  H14C 4648   0.614   2.032  10.874  0.6790 -0.8509 -0.2253
   35POPC   C15 4649   0.824   2.090  11.048 -0.0559  0.1688 -0.3351
   35POPC  H15A 4650   0.805   2.183  11.101 -1.4639 -1.5138  2.2226
   35POPC  H15B 4651   0.918   2.045  11.078 -0.7151  0.3317  2.0508
   35POPC  H15C 4652   0.751   2.022  11.088  0.1317 -0.0223 -0.3195
   35POPC   C11 4653   0.760   1.846  10.865 -0.1974  0.5540 -0.2147
   35POPC  H11A 4654   0.821   1.754  10.849  0.5146  1.0741 -0.5033
   35POPC  H11B 4655   0.688   1.849  10.781 -1.4944  0.7844  0.8999
   35POPC     P 4656   0.568   1.768  11.016 -0.1660  0.2348 -0.1258
   35POPC   O13 4657   0.510   1.820  11.140  0.2075 -0.2594 -0.3043
   35POPC   O14 4658   0.590   1.616  11.016 -0.3067 -0.5779 -0.4688
   35POPC   O12 4659   0.703   1.842  11.001  0.2896 -0.0448 -0.0838
   35POPC   O11 4660   0.488   1.817  10.886  0.7392 -0.2110 -0.0490
   35POPC    C1 4661   0.345   1.823  10.886 -0.2787 -0.4365 -0.4602
   35POPC    HA 4662   0.308   1.909  10.947 -0.8805 -0.5916 -0.6074
   35POPC    HB 4663   0.302   1.729  10.926 -3.7236  1.7865  1.3621
   35POPC    C2 4664   0.291   1.842  10.739 -0.1294 -0.0206 -0.4041
   35POPC    HS 4665   0.255   1.745  10.698 -3.2039  0.1641  1.6958
   35POPC   O21 4666   0.389   1.914  10.656 -0.0080 -0.5227  0.1232
   35POPC   C21 4667   0.469   1.837  10.585 -0.2647  0.3423  0.0121
   35POPC   O22 4668   0.472   1.713  10.584  0.1212 -0.0989  0.1061
   35POPC   C22 4669   0.568   1.914  10.508  0.1821  0.3111 -0.1262
   35POPC   H2R 4670   0.649   1.849  10.468 -0.2134  0.2897 -0.9205
   35POPC   H2S 4671   0.610   1.989  10.578 -0.9408  0.8649 -0.0410
   35POPC    C3 4672   0.165   1.935  10.741  0.0289 -0.3777  0.2859
   35POPC    HX 4673   0.211   2.030  10.776 -0.3240  0.0297 -0.3628
   35POPC    HY 4674   0.100   1.902  10.825  0.3978 -2.7256 -0.3202
   35POPC   O31 4675   0.095   1.940  10.621  0.5350  0.1520  0.1003
   35POPC   C31 4676   0.081   2.054  10.560 -1.2957  0.0362  0.1585
   35POPC   O32 4677   0.118   2.162  10.598 -0.1099 -0.1967 -0.6011
   35POPC   C32 4678   0.008   2.034  10.431 -0.6880  0.1498 -0.2643
   35POPC   H2X 4679  -0.034   2.133  10.405  1.7473  1.0111 -1.0995
   35POPC   H2Y 4680  -0.072   1.957  10.442 -0.8234  0.4285  0.8170
   35POPC   C23 4681   0.509   1.979  10.379 -0.1408 -0.1759 -0.6811
   35POPC   H3R 4682   0.570   2.068  10.351  0.1824  0.9937  3.4028
   35POPC   H3S 4683   0.405   2.013  10.395  0.4996  1.9846 -0.9189
   35POPC   C24 4684   0.502   1.881  10.259  0.4240  0.1477  0.1363
   35POPC   H4R 4685   0.417   1.811  10.271 -0.7523  1.8289  2.0429
   35POPC   H4S 4686   0.598   1.825  10.258  1.1595  1.3730  0.2319
   35POPC   C25 4687   0.508   1.964  10.128  0.7609  0.6166  1.0655
   35POPC   H5R 4688   0.594   2.034  10.139 -0.4979  2.3407  0.2834
   35POPC   H5S 4689   0.416   2.027  10.126  0.4133  0.1746 -4.0419
   35POPC   C26 4690   0.528   1.878  10.006  0.0744 -0.5000  0.1643
   35POPC   H6R 4691   0.457   1.793  10.006 -0.8126  0.2392 -1.0068
   35POPC   H6S 4692   0.628   1.831  10.021  0.2012 -0.4079 -0.3877
   35POPC   C27 4693   0.516   1.963   9.883  0.1589 -0.4088  0.2241
   35POPC   H7R 4694   0.567   2.061   9.896 -1.8651  1.1931 -3.0993
   35POPC   H7S 4695   0.409   1.992   9.871  1.0280  1.6153 -3.2852
   35POPC   C28 4696   0.538   1.881   9.760  0.2696  0.5312  0.9594
   35POPC   H8R 4697   0.507   1.950   9.679 -1.4055 -0.3289  0.8655
   35POPC   H8S 4698   0.469   1.795   9.750 -0.5614  1.4327 -1.3007
   35POPC   C29 4699   0.676   1.826   9.741  0.2206  0.2176  0.8808
   35POPC   H91 4700   0.728   1.792   9.832  0.5154  0.3007  0.7456
   35POPC  C210 4701   0.735   1.817   9.621  0.7388  0.8708 -0.1363
   35POPC  H101 4702   0.831   1.764   9.611  1.3941  1.8629  0.8027
   35POPC  C211 4703   0.673   1.855   9.491  0.6961  1.2618  0.3033
   35POPC  H11R 4704   0.737   1.940   9.458  0.8283  1.0954  0.1304
   35POPC  H11S 4705   0.579   1.912   9.504 -0.7306 -1.3281  1.7561
   35POPC  C212 4706   0.665   1.751   9.375  0.3169  0.2421 -0.3122
   35POPC  H12R 4707   0.634   1.780   9.272  2.2734 -0.8376 -1.2369
   35POPC  H12S 4708   0.585   1.680   9.406 -0.0624  1.0976  0.7012
   35POPC  C213 4709   0.798   1.677   9.356 -0.5479  0.2456 -0.0343
   35POPC  H13R 4710   0.841   1.627   9.445  0.5866  0.0247 -0.6969
   35POPC  H13S 4711   0.866   1.754   9.314 -2.3597  0.0166 -3.5599
   35POPC  C214 4712   0.777   1.563   9.254  0.2643 -0.5854 -0.0717
   35POPC  H14R 4713   0.765   1.616   9.157  1.2168  1.9662  1.1471
   35POPC  H14S 4714   0.689   1.499   9.274  1.0440 -1.8001 -0.4830
   35POPC  C215 4715   0.903   1.472   9.233 -0.1315  0.1931  0.2151
   35POPC  H15R 4716   0.924   1.414   9.326  1.1115 -0.3757 -0.4064
   35POPC  H15S 4717   0.993   1.537   9.224 -1.0870  1.2355 -2.1727
   35POPC  C216 4718   0.888   1.375   9.114 -0.1868 -0.3999  0.0656
   35POPC  H16R 4719   0.929   1.419   9.020  0.2808 -2.5038 -0.7336
   35POPC  H16S 4720   0.780   1.362   9.090  0.0494  2.5252 -3.0251
   35POPC  C217 4721   0.945   1.241   9.145 -0.0858  0.7635  0.1071
   35POPC  H17R 4722   0.887   1.196   9.228  1.1092  0.0427  0.5535
   35POPC  H17S 4723   1.052   1.242   9.173  0.0072  0.7562 -0.2437
   35POPC  C218 4724   0.930   1.149   9.027  0.2241 -0.6099 -0.2661
   35POPC  H18R 4725   0.824   1.123   9.010  0.3395 -0.2520 -1.6209
   35POPC  H18S 4726   0.987   1.057   9.052  1.6073  0.1427 -0.5582
   35POPC  H18T 4727   0.975   1.202   8.940 -2.7565  1.3976 -0.6424
   35POPC   C33 4728   0.107   1.996  10.321  0.1767  0.1632 -0.2234
   35POPC   H3X 4729   0.164   1.904  10.345  0.7564  0.6321  0.1974
   35POPC   H3Y 4730   0.180   2.076  10.300 -0.6848  1.6808  2.3639
   35POPC   C34 4731   0.030   1.967  10.195  0.4425  0.2969  0.3240
   35POPC   H4X 4732  -0.041   2.043  10.158 -0.8180 -1.4201 -0.8532
   35POPC   H4Y 4733  -0.029   1.877  10.223  2.2700 -0.7698  0.8779
   35POPC   C35 4734   0.121   1.917  10.078  0.3715 -0.3434  0.5348
   35POPC   H5X 4735   0.192   1.842  10.119  0.0845 -1.6467 -1.2987
   35POPC   H5Y 4736   0.166   2.004  10.025  1.4667  0.5392  2.8397
   35POPC   C36 4737   0.028   1.838   9.991 -0.0946  0.1683 -0.4351
   35POPC   H6X 4738  -0.063   1.892   9.958 -0.3721  0.3524  0.6174
   35POPC   H6Y 4739   0.002   1.740  10.037 -1.7119  0.1172 -1.4215
   35POPC   C37 4740   0.099   1.797   9.859  0.5325 -0.4084 -0.2522
   35POPC   H7X 4741   0.045   1.713   9.811  1.5487 -1.7274  0.8809
   35POPC   H7Y 4742   0.199   1.750   9.869  0.2194 -0.9540  0.3073
   35POPC   C38 4743   0.102   1.906   9.757 -0.8718  0.2630  0.2798
   35POPC   H8X 4744   0.171   1.984   9.796  1.0576 -0.9496 -0.6466
   35POPC   H8Y 4745  -0.005   1.934   9.743 -0.9170 -0.9163 -1.9196
   35POPC   C39 4746   0.177   1.854   9.634  0.1062 -0.4616  0.4268
   35POPC   H9X 4747   0.116   1.772   9.591 -0.1620  0.0822 -0.2432
   35POPC   H9Y 4748   0.277   1.812   9.658 -0.7325 -2.6903  0.1652
   35POPC  C310 4749   0.193   1.968   9.537  0.7012  1.0532 -0.4935
   35POPC  H10X 4750   0.246   2.052   9.586  0.8231  1.0791 -0.6703
   35POPC  H10Y 4751   0.089   1.996   9.509 -0.6860 -3.3214 -0.1845
   35POPC  C311 4752   0.242   1.910   9.406 -0.3784 -0.5553 -1.0701
   35POPC  H11X 4753   0.173   1.830   9.372 -1.2992 -1.2292  2.1824
   35POPC  H11Y 4754   0.342   1.864   9.414 -1.4767 -2.6483  1.0797
   35POPC  C312 4755   0.252   2.025   9.298  0.1593  0.0331 -0.5070
   35POPC  H12X 4756   0.319   2.106   9.333  1.0291  0.1174 -2.3085
   35POPC  H12Y 4757   0.152   2.071   9.286  0.7289  1.4687  0.1567
   35POPC  C313 4758   0.305   1.980   9.163 -0.1660 -0.5671  0.7012
   35POPC  H13X 4759   0.229   1.908   9.123 -1.2895  1.7165 -1.4155
   35POPC  H13Y 4760   0.400   1.922   9.169  1.1405  1.3841 -0.7143
   35POPC  C314 4761   0.337   2.096   9.069  0.6244  0.5695 -0.4888
   35POPC  H14X 4762   0.436   2.135   9.103  0.4029  0.8639 -0.1788
   35POPC  H14Y 4763   0.268   2.182   9.074 -1.0321 -0.7802  1.0007
   35POPC  C315 4764   0.342   2.056   8.922 -0.5309  0.3408  0.6086
   35POPC  H15X 4765   0.258   1.986   8.904  0.3863  0.0319 -2.7769
   35POPC  H15Y 4766   0.437   2.002   8.902 -0.4341  1.0642 -0.9411
   35POPC  C316 4767   0.330   2.171   8.831  0.5373 -0.7255  0.0804
   35POPC  H16X 4768   0.319   2.132   8.727  0.7758 -0.6993  0.0450
   35POPC  H16Y 4769   0.411   2.244   8.854 -1.4116  1.4511  0.3129
   35POPC  H16Z 4770   0.243   2.233   8.862  1.5904  0.1790  1.2961
   36POPC     N 4771   0.603   6.672  11.027 -0.0810 -0.2641 -0.2722
   36POPC   C12 4772   0.539   6.734  10.904  0.4118  0.3279 -0.2498
   36POPC  H12A 4773   0.516   6.840  10.910  0.0042  0.1576  1.7028
   36POPC  H12B 4774   0.440   6.691  10.896  0.7074 -0.0454 -2.1317
   36POPC   C13 4775   0.631   6.531  10.992 -0.1101 -0.6608 -0.0086
   36POPC  H13A 4776   0.688   6.524  10.901 -0.6256 -0.3420 -0.3590
   36POPC  H13B 4777   0.694   6.483  11.064  0.0691  2.9496  2.3675
   36POPC  H13C 4778   0.541   6.474  10.973 -0.7835  0.5983 -0.7655
   36POPC   C14 4779   0.733   6.742  11.048 -0.8026 -0.0432  0.4075
   36POPC  H14A 4780   0.787   6.738  10.955 -1.1509  0.5485  0.1721
   36POPC  H14B 4781   0.717   6.846  11.073  0.8190  0.0631  1.0297
   36POPC  H14C 4782   0.792   6.707  11.131 -0.0837 -0.3040 -0.2058
   36POPC   C15 4783   0.534   6.691  11.156 -0.2150  0.2531 -0.7619
   36POPC  H15A 4784   0.597   6.648  11.232 -1.2701  2.0404  1.1540
   36POPC  H15B 4785   0.440   6.638  11.155  0.6430 -1.2997 -0.6330
   36POPC  H15C 4786   0.508   6.795  11.168  0.2643  0.4719 -1.5520
   36POPC   C11 4787   0.612   6.715  10.770  0.8153 -0.1871  0.1641
   36POPC  H11A 4788   0.541   6.745  10.690  0.1118 -0.6495  0.6114
   36POPC  H11B 4789   0.633   6.610  10.743  0.9541  0.0583 -0.6918
   36POPC     P 4790   0.735   6.949  10.724 -0.4768  0.3942  0.0885
   36POPC   O13 4791   0.855   6.975  10.637 -0.6875 -0.2326  0.1687
   36POPC   O14 4792   0.730   7.023  10.853 -0.1909  0.8985 -0.4170
   36POPC   O12 4793   0.733   6.798  10.766 -0.0821 -0.4756  0.7367
   36POPC   O11 4794   0.604   6.960  10.643  0.3013  0.2850 -0.0393
   36POPC    C1 4795   0.538   7.081  10.615 -0.1157 -0.5810  0.4772
   36POPC    HA 4796   0.603   7.171  10.628 -0.5873 -0.3747  1.4947
   36POPC    HB 4797   0.450   7.097  10.680  0.6531 -1.1652  1.6861
   36POPC    C2 4798   0.485   7.101  10.471  0.0703  0.5828  0.0988
   36POPC    HS 4799   0.390   7.043  10.468  0.9480 -0.8615 -0.2563
   36POPC   O21 4800   0.569   7.046  10.366  0.3338  0.5364  0.2929
   36POPC   C21 4801   0.574   6.910  10.352 -0.0130  0.3275 -0.1250
   36POPC   O22 4802   0.506   6.828  10.411  0.4675  0.0483 -0.6119
   36POPC   C22 4803   0.692   6.863  10.259 -0.1360  0.5278  0.0771
   36POPC   H2R 4804   0.787   6.876  10.316  1.0080 -1.6313 -1.2751
   36POPC   H2S 4805   0.702   6.925  10.167 -3.5482 -3.4658 -3.1548
   36POPC    C3 4806   0.462   7.253  10.446  0.2003 -0.5445 -0.0629
   36POPC    HX 4807   0.557   7.307  10.429 -0.7893  1.6032  1.0111
   36POPC    HY 4808   0.420   7.302  10.537  1.4372  0.7238 -0.1614
   36POPC   O31 4809   0.384   7.269  10.323  0.5304  0.1804  0.0005
   36POPC   C31 4810   0.304   7.365  10.311 -0.2878 -0.4356 -0.5157
   36POPC   O32 4811   0.285   7.455  10.398  0.1056  0.2612 -0.2448
   36POPC   C32 4812   0.222   7.326  10.185 -0.9512 -0.0584  0.4349
   36POPC   H2X 4813   0.168   7.231  10.205 -0.4411 -1.1163 -2.8227
   36POPC   H2Y 4814   0.301   7.309  10.109 -1.4073  1.7478 -0.4817
   36POPC   C23 4815   0.692   6.713  10.216 -0.3080 -0.3347  0.4690
   36POPC   H3R 4816   0.588   6.675  10.204  0.0601 -1.4886  0.9295
   36POPC   H3S 4817   0.719   6.659  10.309 -2.5407 -0.4911  1.0521
   36POPC   C24 4818   0.764   6.686  10.085  0.9441  0.3544 -0.0904
   36POPC   H4R 4819   0.711   6.728   9.997 -0.1769  1.4665  1.1017
   36POPC   H4S 4820   0.757   6.576  10.069 -0.0116  0.2675  0.8551
   36POPC   C25 4821   0.916   6.720  10.099 -0.1503 -0.1988  0.1381
   36POPC   H5R 4822   0.954   6.672  10.191  0.1858 -1.4531 -0.6382
   36POPC   H5S 4823   0.931   6.830  10.101 -0.4372 -0.1170 -1.2288
   36POPC   C26 4824   1.007   6.660   9.995  0.0822  0.1852  0.2230
   36POPC   H6R 4825   0.984   6.551   9.989  1.5177 -0.3060  3.1207
   36POPC   H6S 4826   1.111   6.666  10.034  0.2910 -3.0683  0.2882
   36POPC   C27 4827   0.997   6.720   9.848  1.3273  0.0398  0.3824
   36POPC   H7R 4828   0.990   6.830   9.862 -1.2687 -0.0504  0.1244
   36POPC   H7S 4829   0.902   6.684   9.802 -0.0248  0.1800  2.9715
   36POPC   C28 4830   1.115   6.687   9.759  0.3038  0.4667 -0.9061
   36POPC   H8R 4831   1.204   6.700   9.824  1.0374  1.3396 -2.0746
   36POPC   H8S 4832   1.127   6.747   9.667 -3.2233 -0.1881 -1.8593
   36POPC   C29 4833   1.106   6.544   9.722 -0.5222 -0.1260  0.6877
   36POPC   H91 4834   1.163   6.475   9.786  1.4114 -0.6246 -1.5113
   36POPC  C210 4835   1.069   6.494   9.602  0.1586 -0.9452 -0.4126
   36POPC  H101 4836   1.069   6.384   9.592  1.0688 -0.8018 -2.2119
   36POPC  C211 4837   1.019   6.569   9.484 -0.7493  0.5578 -0.3400
   36POPC  H11R 4838   1.107   6.586   9.418 -1.5743  0.7558 -1.4045
   36POPC  H11S 4839   0.989   6.673   9.510 -1.5718  1.0058 -2.9161
   36POPC  C212 4840   0.923   6.493   9.392 -0.0169 -0.0375 -0.3694
   36POPC  H12R 4841   0.833   6.450   9.442 -0.9742 -0.5206 -2.4597
   36POPC  H12S 4842   0.976   6.413   9.336 -0.8490  1.2154 -2.9724
   36POPC  C213 4843   0.866   6.584   9.287  0.2026  0.0352  0.0205
   36POPC  H13R 4844   0.943   6.652   9.243 -1.2761  0.6892 -1.6093
   36POPC  H13S 4845   0.788   6.644   9.338  0.3717 -1.7445  2.4036
   36POPC  C214 4846   0.786   6.503   9.172 -0.1400 -0.1015 -0.3373
   36POPC  H14R 4847   0.723   6.430   9.227  0.7842  0.8140  2.0159
   36POPC  H14S 4848   0.854   6.452   9.100  0.7398  0.2974  0.1962
   36POPC  C215 4849   0.702   6.599   9.089 -0.2400 -0.6258 -0.3040
   36POPC  H15R 4850   0.771   6.678   9.053  0.1208 -0.2609  1.1690
   36POPC  H15S 4851   0.637   6.654   9.161 -2.1658 -0.8189 -1.8440
   36POPC  C216 4852   0.610   6.540   8.978 -0.1672  0.2926 -0.4472
   36POPC  H16R 4853   0.557   6.630   8.942  1.6669  1.3822 -0.4727
   36POPC  H16S 4854   0.541   6.469   9.028 -0.6365  2.1213  1.5768
   36POPC  C217 4855   0.690   6.478   8.862 -0.0675  0.6333  0.7625
   36POPC  H17R 4856   0.630   6.426   8.784 -2.8470  2.5973  1.5208
   36POPC  H17S 4857   0.761   6.401   8.897 -1.0790 -0.3318  0.7357
   36POPC  C218 4858   0.771   6.589   8.800 -0.4167  0.7327 -0.0290
   36POPC  H18R 4859   0.707   6.674   8.768  0.5793  1.7799  0.7278
   36POPC  H18S 4860   0.825   6.552   8.710 -2.4499  1.4577 -1.5831
   36POPC  H18T 4861   0.860   6.616   8.860  1.7913  0.3184 -2.9849
   36POPC   C33 4862   0.120   7.430  10.133  0.5094  0.0000 -0.4123
   36POPC   H3X 4863   0.181   7.523  10.125  0.0580  0.5777  2.3237
   36POPC   H3Y 4864   0.027   7.433  10.193 -0.1377 -1.0081 -1.3547
   36POPC   C34 4865   0.087   7.390   9.990 -0.3063 -0.0328  0.3978
   36POPC   H4X 4866   0.028   7.466   9.935  0.7776  1.4945  1.2850
   36POPC   H4Y 4867   0.025   7.298   9.991 -0.1380 -0.1435  1.0349
   36POPC   C35 4868   0.196   7.367   9.888  0.0964  0.6626 -1.4159
   36POPC   H5X 4869   0.257   7.280   9.921 -1.9354  0.2196  1.2619
   36POPC   H5Y 4870   0.278   7.443   9.880 -1.1410  2.2740  0.7864
   36POPC   C36 4871   0.146   7.340   9.751 -0.4225  0.2567 -0.2849
   36POPC   H6X 4872   0.219   7.279   9.695  1.4737  1.4531  0.8367
   36POPC   H6Y 4873   0.139   7.440   9.703 -1.0548  1.6403  2.5641
   36POPC   C37 4874   0.023   7.251   9.722 -0.2629 -0.1145 -0.0392
   36POPC   H7X 4875  -0.065   7.315   9.743  0.4790  1.3299 -1.1373
   36POPC   H7Y 4876   0.034   7.168   9.794  0.9709 -0.5848 -0.7512
   36POPC   C38 4877   0.016   7.190   9.585 -0.2271  0.4358  0.3061
   36POPC   H8X 4878   0.106   7.138   9.546  0.0109  0.8850  0.2497
   36POPC   H8Y 4879  -0.001   7.270   9.510 -0.6888 -0.4073 -0.4987
   36POPC   C39 4880  -0.094   7.091   9.566 -0.3673  0.3939 -0.4881
   36POPC   H9X 4881  -0.195   7.134   9.578 -0.0082  1.2000 -0.3043
   36POPC   H9Y 4882  -0.066   7.011   9.639  0.6854  1.3022  0.1186
   36POPC  C310 4883  -0.091   7.027   9.426 -0.3496 -0.2731 -0.0362
   36POPC  H10X 4884   0.003   6.967   9.419 -0.4931 -0.5479  0.3881
   36POPC  H10Y 4885  -0.065   7.113   9.362 -0.5054 -0.2655 -0.0883
   36POPC  C311 4886  -0.217   6.947   9.398 -0.2976 -0.6820 -0.1948
   36POPC  H11X 4887  -0.305   7.008   9.429  0.8022  1.0251 -0.3819
   36POPC  H11Y 4888  -0.210   6.858   9.465  2.3553  0.1968  0.7716
   36POPC  C312 4889  -0.243   6.898   9.255  0.1145 -0.0499 -0.0501
   36POPC  H12X 4890  -0.157   6.836   9.221  0.1557  0.1680 -0.3429
   36POPC  H12Y 4891  -0.251   6.993   9.197 -1.7928 -0.1907 -0.0375
   36POPC  C313 4892  -0.367   6.811   9.244  0.0349 -0.4954  0.5754
   36POPC  H13X 4893  -0.458   6.873   9.263  0.6991  2.2036 -4.2348
   36POPC  H13Y 4894  -0.374   6.722   9.310 -1.4383 -0.2003  0.8352
   36POPC  C314 4895  -0.368   6.751   9.098 -0.3015  0.0011 -0.7670
   36POPC  H14X 4896  -0.441   6.667   9.101  0.0377 -0.2661  0.9550
   36POPC  H14Y 4897  -0.267   6.709   9.077 -0.8373 -2.1162  0.6688
   36POPC  C315 4898  -0.419   6.857   8.988 -0.7642  0.0572  0.1934
   36POPC  H15X 4899  -0.442   6.952   9.042 -1.0709 -1.0655  2.0880
   36POPC  H15Y 4900  -0.512   6.824   8.937 -0.7146  1.7514 -1.0411
   36POPC  C316 4901  -0.314   6.878   8.884 -0.5147  0.2268 -0.0445
   36POPC  H16X 4902  -0.305   6.779   8.833 -0.8064  0.1776 -0.0032
   36POPC  H16Y 4903  -0.220   6.900   8.938 -0.8251  0.6406  0.3308
   36POPC  H16Z 4904  -0.333   6.962   8.814 -3.4514 -0.1351  0.2509
   37POPC     N 4905   5.888   2.059   6.372  0.3043 -0.6627 -0.2826
   37POPC   C12 4906   5.835   2.174   6.453  0.8713  0.2126 -0.4523
   37POPC  H12A 4907   5.812   2.150   6.556 -1.5241 -1.5622 -1.3840
   37POPC  H12B 4908   5.742   2.212   6.413  0.1113 -1.7832 -0.6183
   37POPC   C13 4909   5.780   1.945   6.387  0.2724 -0.2096 -0.7412
   37POPC  H13A 4910   5.819   1.851   6.350  1.0671  0.7757 -2.4994
   37POPC  H13B 4911   5.772   1.928   6.493 -0.1033 -0.3974 -0.7986
   37POPC  H13C 4912   5.679   1.963   6.355 -0.8724 -2.1698  1.6668
   37POPC   C14 4913   5.919   2.084   6.236  0.2502  0.1716 -0.7785
   37POPC  H14A 4914   6.016   2.130   6.223 -0.6975  1.9323 -1.8390
   37POPC  H14B 4915   5.932   1.990   6.185  1.4805  0.2070 -0.5329
   37POPC  H14C 4916   5.838   2.132   6.183  0.6607  0.0769 -1.5003
   37POPC   C15 4917   6.012   2.005   6.444 -0.1090  0.6437 -0.1802
   37POPC  H15A 4918   5.985   1.969   6.542  1.1410 -1.5481 -0.6039
   37POPC  H15B 4919   6.088   2.082   6.442  1.9084 -1.2332  1.6333
   37POPC  H15C 4920   6.071   1.929   6.395 -2.9588 -0.6498 -1.6884
   37POPC   C11 4921   5.927   2.302   6.482 -0.1798 -0.0282  0.6354
   37POPC  H11A 4922   5.860   2.388   6.505 -0.5854 -0.6164  1.6583
   37POPC  H11B 4923   5.982   2.341   6.394  0.4161 -1.1970  0.4842
   37POPC     P 4924   5.954   2.264   6.737 -0.2049 -0.5206 -0.2102
   37POPC   O13 4925   6.077   2.265   6.819  0.0738 -0.3816  0.8102
   37POPC   O14 4926   5.850   2.156   6.750  0.1985 -0.1055 -0.4894
   37POPC   O12 4927   6.016   2.273   6.590 -0.2915  0.9659 -0.0021
   37POPC   O11 4928   5.891   2.415   6.738  0.2725 -0.2642 -0.9067
   37POPC    C1 4929   5.943   2.547   6.728  0.3355  0.3282  0.0167
   37POPC    HA 4930   5.874   2.595   6.656  2.0200 -0.5289 -2.2571
   37POPC    HB 4931   6.039   2.554   6.672 -0.5136  4.7325 -1.0144
   37POPC    C2 4932   5.951   2.631   6.853 -0.1613  0.0743 -0.0789
   37POPC    HS 4933   6.024   2.713   6.836  0.0975 -0.4807 -1.8303
   37POPC   O21 4934   5.986   2.546   6.965  0.0108 -0.4082  0.0217
   37POPC   C21 4935   6.117   2.528   6.970  0.6294 -0.4318 -0.0616
   37POPC   O22 4936   6.203   2.588   6.907 -0.5927  0.1784 -0.0083
   37POPC   C22 4937   6.152   2.431   7.085  0.0148  0.0824  0.1852
   37POPC   H2R 4938   6.207   2.345   7.043 -1.7095 -0.4057 -1.1180
   37POPC   H2S 4939   6.060   2.394   7.136  1.2858 -1.9623  1.0139
   37POPC    C3 4940   5.815   2.699   6.880 -0.0085 -0.4748  0.4675
   37POPC    HX 4941   5.740   2.626   6.917 -3.2616  0.6738 -3.4301
   37POPC    HY 4942   5.774   2.736   6.784 -0.0197 -1.1133  0.2259
   37POPC   O31 4943   5.834   2.808   6.974  0.5612  0.3416  0.0925
   37POPC   C31 4944   5.788   2.785   7.103  0.1398  0.0680  0.4732
   37POPC   O32 4945   5.723   2.686   7.137 -0.1086  0.4898  0.1044
   37POPC   C32 4946   5.845   2.877   7.204  0.0278  0.7089 -0.0298
   37POPC   H2X 4947   5.832   2.979   7.162  2.3262  1.1825  0.3417
   37POPC   H2Y 4948   5.951   2.851   7.227 -0.0226  0.8669  0.3932
   37POPC   C23 4949   6.240   2.503   7.190  0.4369 -0.3217  0.1008
   37POPC   H3R 4950   6.336   2.541   7.149  0.5339 -0.6759 -0.0017
   37POPC   H3S 4951   6.277   2.426   7.261 -0.0459 -0.7926 -0.1557
   37POPC   C24 4952   6.162   2.616   7.255 -0.1105  0.8020  0.0517
   37POPC   H4R 4953   6.062   2.575   7.281  0.2784 -0.9072 -1.0676
   37POPC   H4S 4954   6.129   2.688   7.177  0.9171  1.5488  0.2919
   37POPC   C25 4955   6.230   2.681   7.379  0.4521 -0.0673 -0.5066
   37POPC   H5R 4956   6.338   2.696   7.355  0.0828  0.7990 -1.6676
   37POPC   H5S 4957   6.230   2.611   7.466 -2.1302  0.2745 -0.1943
   37POPC   C26 4958   6.166   2.811   7.416  0.0552 -0.5915 -0.1510
   37POPC   H6R 4959   6.062   2.788   7.447 -0.7038  1.0129 -1.4035
   37POPC   H6S 4960   6.173   2.884   7.333  1.3110  0.5303  0.9153
   37POPC   C27 4961   6.238   2.884   7.531 -0.4659  0.4459 -0.2404
   37POPC   H7R 4962   6.347   2.886   7.511 -0.3822 -2.2163 -0.1701
   37POPC   H7S 4963   6.223   2.816   7.617  0.4090 -2.6622 -2.4638
   37POPC   C28 4964   6.187   3.030   7.563 -0.4284  0.6489 -0.0892
   37POPC   H8R 4965   6.087   3.008   7.606  0.0174 -1.6903 -0.1782
   37POPC   H8S 4966   6.182   3.083   7.465 -0.5553  1.1536  0.1908
   37POPC   C29 4967   6.281   3.106   7.655 -0.1989  0.1027  0.5972
   37POPC   H91 4968   6.362   3.160   7.605 -0.2435 -0.9673 -0.6477
   37POPC  C210 4969   6.273   3.109   7.790  0.5152 -0.2392 -0.6403
   37POPC  H101 4970   6.341   3.173   7.848  0.1335 -0.9775  0.6188
   37POPC  C211 4971   6.174   3.032   7.877 -0.5318 -0.4282 -0.4112
   37POPC  H11R 4972   6.114   2.953   7.827 -0.0057 -0.7637 -0.5180
   37POPC  H11S 4973   6.100   3.111   7.901  1.0004  1.1460 -0.8082
   37POPC  C212 4974   6.236   2.966   8.004  0.0246  0.1776  0.1642
   37POPC  H12R 4975   6.302   2.884   7.967 -0.8147  0.0161 -1.0182
   37POPC  H12S 4976   6.149   2.925   8.060 -0.8979  2.3603  0.3612
   37POPC  C213 4977   6.302   3.065   8.106 -0.2082  0.2059  0.2998
   37POPC  H13R 4978   6.232   3.150   8.127 -3.0288 -1.7294 -0.9202
   37POPC  H13S 4979   6.391   3.111   8.058  0.8091  0.1214  2.0860
   37POPC  C214 4980   6.340   3.000   8.237 -0.1147  0.5527 -0.3039
   37POPC  H14R 4981   6.394   3.082   8.289  1.1109 -0.8075  0.6220
   37POPC  H14S 4982   6.416   2.919   8.228 -0.4683  0.1771  0.0689
   37POPC  C215 4983   6.228   2.953   8.322 -0.0412  0.3524  0.1051
   37POPC  H15R 4984   6.187   2.859   8.277  2.5174 -0.4924 -0.5428
   37POPC  H15S 4985   6.155   3.036   8.321  1.5226  1.7400 -0.2612
   37POPC  C216 4986   6.262   2.911   8.470 -0.1041  0.6451 -0.0798
   37POPC  H16R 4987   6.333   2.825   8.468 -0.4308  0.3914 -0.9404
   37POPC  H16S 4988   6.164   2.871   8.503 -0.5726 -0.3944 -2.5668
   37POPC  C217 4989   6.311   3.009   8.569 -0.5400 -0.2405  0.0818
   37POPC  H17R 4990   6.419   3.027   8.551 -0.3079 -0.2872  1.3880
   37POPC  H17S 4991   6.305   2.962   8.670 -1.2405 -0.4440 -0.0546
   37POPC  C218 4992   6.240   3.143   8.584  0.7051 -0.9502  0.1558
   37POPC  H18R 4993   6.138   3.123   8.622  1.4593 -0.6151  2.4195
   37POPC  H18S 4994   6.247   3.201   8.490 -0.4219 -2.7084 -1.0432
   37POPC  H18T 4995   6.301   3.199   8.658 -2.6009  0.5297  1.8756
   37POPC   C33 4996   5.773   2.875   7.343  0.4940 -0.8291  0.5576
   37POPC   H3X 4997   5.795   2.783   7.402 -2.3610 -1.7459  0.2833
   37POPC   H3Y 4998   5.662   2.875   7.330  0.6358 -0.2562 -0.7131
   37POPC   C34 4999   5.819   2.989   7.433  0.2989 -0.3621  0.1630
   37POPC   H4X 5000   5.763   3.079   7.398 -0.2411 -0.6453  0.2936
   37POPC   H4Y 5001   5.929   3.004   7.429 -0.1431  3.1527 -0.4665
   37POPC   C35 5002   5.790   2.975   7.584  0.3094 -0.1192  0.2144
   37POPC   H5X 5003   5.853   2.894   7.624 -0.0929 -1.0153 -0.9383
   37POPC   H5Y 5004   5.686   2.938   7.595 -0.8574  2.1365 -2.5954
   37POPC   C36 5005   5.819   3.101   7.671 -0.4310 -0.4551  0.3632
   37POPC   H6X 5006   5.757   3.188   7.642  0.4199 -0.6058 -1.9946
   37POPC   H6Y 5007   5.926   3.125   7.653 -1.0032  0.2577 -2.1875
   37POPC   C37 5008   5.790   3.069   7.821  0.6082 -0.5091  0.0083
   37POPC   H7X 5009   5.857   2.982   7.838 -0.6804 -1.6516 -0.6458
   37POPC   H7Y 5010   5.685   3.035   7.837  1.0923 -2.7904 -1.4171
   37POPC   C38 5011   5.812   3.194   7.919  0.3150 -0.0659  0.1147
   37POPC   H8X 5012   5.726   3.260   7.895  1.0219  1.3426  1.3955
   37POPC   H8Y 5013   5.901   3.251   7.885  0.2920  0.2229  0.5300
   37POPC   C39 5014   5.831   3.156   8.066  0.1395  0.0544 -0.0843
   37POPC   H9X 5015   5.924   3.098   8.082  2.4722  2.1879 -4.8488
   37POPC   H9Y 5016   5.741   3.101   8.102  0.8053  1.0236  3.1958
   37POPC  C310 5017   5.852   3.276   8.157  0.1422  0.2903 -1.0001
   37POPC  H10X 5018   5.762   3.341   8.155 -0.1821 -0.0734  0.5245
   37POPC  H10Y 5019   5.940   3.335   8.122 -0.4487  0.1607 -2.7596
   37POPC  C311 5020   5.880   3.233   8.304 -0.6256  0.2188 -0.1323
   37POPC  H11X 5021   5.923   3.327   8.345  1.5877 -0.3429 -1.0543
   37POPC  H11Y 5022   5.961   3.157   8.298 -0.7494  0.0239  0.6385
   37POPC  C312 5023   5.764   3.170   8.383  0.5264  0.3307 -0.4567
   37POPC  H12X 5024   5.704   3.094   8.328  0.4101  1.1812 -1.5292
   37POPC  H12Y 5025   5.692   3.250   8.412  1.1817  0.7928 -0.0679
   37POPC  C313 5026   5.819   3.093   8.506 -0.4403 -0.7719 -0.2916
   37POPC  H13X 5027   5.883   3.166   8.561 -0.1945 -0.4777 -0.9621
   37POPC  H13Y 5028   5.891   3.013   8.479 -1.2009 -2.6860  3.0174
   37POPC  C314 5029   5.716   3.051   8.609  0.3677 -0.2292  0.0901
   37POPC  H14X 5030   5.646   2.980   8.561 -0.7080  0.1073  1.1478
   37POPC  H14Y 5031   5.653   3.138   8.639 -2.0794 -1.3693 -1.5725
   37POPC  C315 5032   5.783   2.992   8.734  0.7072 -0.1500  0.5996
   37POPC  H15X 5033   5.806   3.089   8.782 -0.5651  0.7118 -0.5111
   37POPC  H15Y 5034   5.884   2.954   8.708  1.6932  2.2511  0.8525
   37POPC  C316 5035   5.708   2.882   8.812  1.0590 -0.0844 -0.0597
   37POPC  H16X 5036   5.599   2.902   8.820  1.2021  1.6334 -2.1484
   37POPC  H16Y 5037   5.744   2.872   8.917  0.0608  2.1550  0.5205
   37POPC  H16Z 5038   5.712   2.781   8.766  3.6035  1.0476 -2.4697
   38POPC     N 5039   1.100   6.319   6.296  0.6875  0.6697 -0.8656
   38POPC   C12 5040   0.967   6.379   6.337 -0.3286  0.1784 -0.4137
   38POPC  H12A 5041   0.893   6.358   6.261  0.5753 -1.1705 -0.9434
   38POPC  H12B 5042   0.980   6.485   6.347 -0.4099 -0.1297  4.1058
   38POPC   C13 5043   1.205   6.345   6.394 -0.0362  0.1175  0.4453
   38POPC  H13A 5044   1.208   6.451   6.415 -0.4502  0.6147 -1.8885
   38POPC  H13B 5045   1.178   6.298   6.487 -0.1322  1.0794  0.9182
   38POPC  H13C 5046   1.295   6.311   6.345 -0.9160  0.9830 -1.8203
   38POPC   C14 5047   1.086   6.175   6.264  0.4996  0.4822  0.2350
   38POPC  H14A 5048   1.007   6.125   6.318  1.1892 -0.8532  0.0387
   38POPC  H14B 5049   1.049   6.166   6.163 -1.9135  0.7616  1.0731
   38POPC  H14C 5050   1.176   6.115   6.272  0.0243 -0.0925  1.3667
   38POPC   C15 5051   1.144   6.397   6.171  0.1484 -0.7117  0.4147
   38POPC  H15A 5052   1.133   6.504   6.181  2.2038 -0.3134 -1.1346
   38POPC  H15B 5053   1.081   6.363   6.090  1.2575  1.1500 -1.2759
   38POPC  H15C 5054   1.249   6.387   6.149  1.0896  0.4518  4.0894
   38POPC   C11 5055   0.897   6.333   6.471 -0.5738 -0.3835  0.1540
   38POPC  H11A 5056   0.807   6.398   6.477 -1.0498 -1.1015  0.9631
   38POPC  H11B 5057   0.960   6.364   6.558  0.2835  3.6083 -1.7837
   38POPC     P 5058   0.732   6.133   6.434 -0.3024 -0.5874  0.1232
   38POPC   O13 5059   0.768   6.026   6.333  0.2892  0.0617  0.0496
   38POPC   O14 5060   0.646   6.242   6.382  0.0386  0.0363  0.3424
   38POPC   O12 5061   0.867   6.197   6.482  0.3394 -0.5926 -0.2505
   38POPC   O11 5062   0.682   6.072   6.571  0.0716 -0.4010 -0.0873
   38POPC    C1 5063   0.540   6.082   6.613 -0.0056 -0.3014 -0.3188
   38POPC    HA 5064   0.477   6.049   6.528 -0.4301 -0.4509  0.0545
   38POPC    HB 5065   0.526   6.183   6.659  1.2219 -0.4498  0.4135
   38POPC    C2 5066   0.501   5.976   6.714 -0.0099  0.0508 -0.3373
   38POPC    HS 5067   0.392   5.964   6.700  0.3572 -3.4136 -0.6942
   38POPC   O21 5068   0.536   6.015   6.851  0.9217 -0.5159  0.0144
   38POPC   C21 5069   0.443   6.074   6.919 -0.3301  0.5226  0.2973
   38POPC   O22 5070   0.324   6.076   6.899 -0.3205  0.7106  0.4535
   38POPC   C22 5071   0.499   6.141   7.041  0.2122 -0.5005  0.2597
   38POPC   H2R 5072   0.406   6.175   7.092  0.2220 -1.2058  0.7514
   38POPC   H2S 5073   0.562   6.219   6.993 -0.0255 -1.7908 -2.2329
   38POPC    C3 5074   0.575   5.836   6.688  0.1603 -0.2930  0.2410
   38POPC    HX 5075   0.674   5.832   6.737 -0.4155  0.4296  1.4687
   38POPC    HY 5076   0.583   5.818   6.578  0.3066  1.7969 -0.1039
   38POPC   O31 5077   0.492   5.729   6.740  0.2029 -0.5307 -0.6532
   38POPC   C31 5078   0.418   5.661   6.666  0.2036  0.2222 -0.2363
   38POPC   O32 5079   0.410   5.662   6.545 -0.3594  0.2677 -0.4885
   38POPC   C32 5080   0.351   5.559   6.762 -0.3671  0.3487 -0.5659
   38POPC   H2X 5081   0.275   5.512   6.696 -0.9046  0.8813 -0.3391
   38POPC   H2Y 5082   0.298   5.622   6.837 -1.7496 -2.1882  0.6662
   38POPC   C23 5083   0.583   6.053   7.127 -0.8957  0.1745  0.6905
   38POPC   H3R 5084   0.662   6.017   7.057  0.1057  0.5709  1.6035
   38POPC   H3S 5085   0.526   5.965   7.164  1.6768 -0.8192  2.4222
   38POPC   C24 5086   0.661   6.133   7.226 -0.4810  0.2752  0.4030
   38POPC   H4R 5087   0.578   6.195   7.267  0.1335  0.4324  1.4353
   38POPC   H4S 5088   0.739   6.200   7.184  1.6662 -2.2204  0.2538
   38POPC   C25 5089   0.716   6.056   7.338 -0.0961  0.6882  0.1213
   38POPC   H5R 5090   0.815   6.012   7.314  0.7596  2.3511  0.4932
   38POPC   H5S 5091   0.651   5.970   7.365  1.6181 -0.3504  1.0545
   38POPC   C26 5092   0.747   6.136   7.466 -1.3546 -0.0612 -0.2182
   38POPC   H6R 5093   0.652   6.190   7.486 -1.5891 -1.5955  3.0875
   38POPC   H6S 5094   0.830   6.207   7.443  1.5954 -2.8542  1.4722
   38POPC   C27 5095   0.792   6.040   7.580  0.4717  0.1826  0.6195
   38POPC   H7R 5096   0.859   5.954   7.557 -1.0517 -1.1303  1.0290
   38POPC   H7S 5097   0.694   5.993   7.606 -0.6568  1.6949 -0.8589
   38POPC   C28 5098   0.857   6.121   7.694 -0.0502 -0.8716  0.2238
   38POPC   H8R 5099   0.803   6.216   7.714  1.4185 -0.4646  2.3960
   38POPC   H8S 5100   0.959   6.153   7.665 -1.1502  0.4519 -2.4029
   38POPC   C29 5101   0.869   6.047   7.828 -0.2614 -0.4665 -0.6738
   38POPC   H91 5102   0.918   5.949   7.822  1.9421  0.6227 -1.0276
   38POPC  C210 5103   0.827   6.089   7.951  1.1980  0.2247  0.1424
   38POPC  H101 5104   0.868   6.031   8.035  0.9935  1.7736  1.3547
   38POPC  C211 5105   0.751   6.214   7.987 -0.2713 -0.5683 -0.0324
   38POPC  H11R 5106   0.663   6.191   8.051 -1.2746  2.2901 -0.3425
   38POPC  H11S 5107   0.705   6.263   7.899  1.4124  1.6268  0.2711
   38POPC  C212 5108   0.848   6.319   8.038  0.7949 -0.3604  0.3310
   38POPC  H12R 5109   0.791   6.415   8.037  0.0632 -0.8027 -0.2456
   38POPC  H12S 5110   0.938   6.329   7.974 -0.4946  2.0053 -1.1967
   38POPC  C213 5111   0.898   6.300   8.184 -0.0717  0.1055 -0.2746
   38POPC  H13R 5112   0.963   6.385   8.214 -0.1348  0.2566 -0.5608
   38POPC  H13S 5113   0.971   6.217   8.175  0.3168  0.2751  1.2375
   38POPC  C214 5114   0.787   6.284   8.291 -0.5578 -0.0641 -0.2243
   38POPC  H14R 5115   0.730   6.204   8.240 -0.0361 -0.0724 -0.8031
   38POPC  H14S 5116   0.731   6.380   8.300 -0.1833  0.2008 -0.6440
   38POPC  C215 5117   0.840   6.258   8.427  0.2998  0.7723 -0.8360
   38POPC  H15R 5118   0.749   6.264   8.490  0.4834 -1.6923 -0.2721
   38POPC  H15S 5119   0.910   6.339   8.455 -0.1314  1.2942 -1.2689
   38POPC  C216 5120   0.909   6.125   8.453 -0.1762  0.8282 -0.2173
   38POPC  H16R 5121   1.004   6.131   8.395 -1.1844  0.3014 -1.9440
   38POPC  H16S 5122   0.849   6.054   8.394 -0.6474  0.1699  1.0406
   38POPC  C217 5123   0.928   6.084   8.596  0.2580 -0.4116 -0.1145
   38POPC  H17R 5124   0.826   6.063   8.635  0.5542  1.1794  1.6182
   38POPC  H17S 5125   0.975   6.174   8.642  2.5208 -1.1301 -0.9476
   38POPC  C218 5126   1.020   5.968   8.625  0.3681 -0.0652  0.2547
   38POPC  H18R 5127   1.036   5.957   8.734 -0.1817 -0.0807  0.3341
   38POPC  H18S 5128   1.115   5.987   8.570 -0.6093  2.1429 -0.7489
   38POPC  H18T 5129   0.980   5.876   8.579 -0.7542 -0.3585  1.7772
   38POPC   C33 5130   0.452   5.460   6.818  0.4206 -1.3592  0.3282
   38POPC   H3X 5131   0.548   5.454   6.763  1.3404  0.3339  1.6930
   38POPC   H3Y 5132   0.404   5.361   6.802 -0.8004 -0.8199  0.5880
   38POPC   C34 5133   0.469   5.467   6.974 -0.5650 -0.0286 -0.8319
   38POPC   H4X 5134   0.525   5.383   7.021  1.6390  1.1696 -1.2422
   38POPC   H4Y 5135   0.367   5.475   7.017  0.1396 -1.1533  1.1537
   38POPC   C35 5136   0.559   5.593   7.022  0.6333 -0.2301 -0.2562
   38POPC   H5X 5137   0.514   5.687   6.986  1.6213  1.5894  3.0385
   38POPC   H5Y 5138   0.662   5.568   6.987  0.3700 -1.8239  0.0477
   38POPC   C36 5139   0.570   5.591   7.174  0.3353 -1.0065  0.1335
   38POPC   H6X 5140   0.661   5.648   7.202  1.7040 -2.8985 -0.3040
   38POPC   H6Y 5141   0.589   5.484   7.197 -0.5886 -1.1079  0.4640
   38POPC   C37 5142   0.441   5.639   7.239 -0.0190  0.3811  0.1312
   38POPC   H7X 5143   0.357   5.583   7.193  1.2975 -1.0169 -0.5780
   38POPC   H7Y 5144   0.420   5.742   7.204  1.9312  0.6369 -0.3240
   38POPC   C38 5145   0.431   5.607   7.386 -0.1315  0.4422 -0.3961
   38POPC   H8X 5146   0.437   5.497   7.406  1.1254  0.3595 -1.1557
   38POPC   H8Y 5147   0.331   5.639   7.422  0.3884  0.6786  0.8748
   38POPC   C39 5148   0.525   5.676   7.479  0.1229  0.3129  0.0543
   38POPC   H9X 5149   0.517   5.787   7.479 -0.0806  0.3112  1.5949
   38POPC   H9Y 5150   0.630   5.664   7.444  0.3283  2.2154 -0.0783
   38POPC  C310 5151   0.518   5.635   7.631  0.1427 -0.1842 -0.4081
   38POPC  H10X 5152   0.560   5.533   7.650 -0.6445 -0.1486  1.5959
   38POPC  H10Y 5153   0.410   5.624   7.649  0.1302 -0.4831 -0.6476
   38POPC  C311 5154   0.575   5.737   7.725 -0.9054 -0.4576  0.1297
   38POPC  H11X 5155   0.526   5.836   7.713 -2.7910 -1.4089 -0.1741
   38POPC  H11Y 5156   0.684   5.748   7.707 -0.8380  1.0559  1.3283
   38POPC  C312 5157   0.559   5.698   7.880 -0.0114  1.2372 -0.2148
   38POPC  H12X 5158   0.603   5.597   7.896 -0.0559  0.9014 -2.0545
   38POPC  H12Y 5159   0.449   5.685   7.888  0.3515 -2.1064  0.2969
   38POPC  C313 5160   0.621   5.800   7.974  0.5149  0.4853  0.5087
   38POPC  H13X 5161   0.585   5.902   7.950 -1.1005 -0.1488  0.1455
   38POPC  H13Y 5162   0.729   5.798   7.947 -0.1917 -1.2070 -2.3980
   38POPC  C314 5163   0.587   5.773   8.122  0.2355  0.7660 -0.2307
   38POPC  H14X 5164   0.634   5.676   8.149 -1.1811 -0.0416 -0.6578
   38POPC  H14Y 5165   0.480   5.753   8.141 -0.8682  1.1911 -5.3093
   38POPC  C315 5166   0.640   5.873   8.222 -0.4032 -1.0486  0.0211
   38POPC  H15X 5167   0.593   5.970   8.195  1.7048  0.4007  1.3942
   38POPC  H15Y 5168   0.747   5.888   8.197 -0.1967  0.4474  1.6466
   38POPC  C316 5169   0.618   5.827   8.366  0.2350  0.1582 -0.8485
   38POPC  H16X 5170   0.509   5.827   8.389 -0.1052 -0.7385 -2.3961
   38POPC  H16Y 5171   0.668   5.904   8.428  1.3504 -0.8755 -0.4480
   38POPC  H16Z 5172   0.656   5.727   8.399  1.3642  0.3168 -1.6371
   39POPC     N 5173   3.752   2.549   5.906 -0.3329 -0.8896  0.4551
   39POPC   C12 5174   3.875   2.632   5.913  0.2926  0.3679 -0.3288
   39POPC  H12A 5175   3.851   2.734   5.939 -0.9145 -0.2816  1.2546
   39POPC  H12B 5176   3.912   2.645   5.813 -1.0529 -1.5295 -1.1225
   39POPC   C13 5177   3.651   2.625   5.818  0.2419 -0.1744 -0.1805
   39POPC  H13A 5178   3.560   2.569   5.801  0.9720 -0.5982 -3.0524
   39POPC  H13B 5179   3.622   2.715   5.869  2.4093 -0.0261  0.8550
   39POPC  H13C 5180   3.690   2.647   5.719  1.5147  2.9326  0.9433
   39POPC   C14 5181   3.795   2.415   5.845  0.2643  0.0479 -0.2684
   39POPC  H14A 5182   3.803   2.416   5.737 -1.7775 -0.3723 -0.4450
   39POPC  H14B 5183   3.895   2.392   5.877  0.2547  0.9384  0.4121
   39POPC  H14C 5184   3.728   2.334   5.871  0.4124 -0.1000 -0.3436
   39POPC   C15 5185   3.697   2.516   6.048  0.7751  0.2473 -0.2746
   39POPC  H15A 5186   3.667   2.609   6.094 -0.6107  0.4020 -1.4767
   39POPC  H15B 5187   3.780   2.483   6.109 -0.3556 -1.3515  0.4330
   39POPC  H15C 5188   3.625   2.436   6.043  1.1528  0.0278 -2.9076
   39POPC   C11 5189   3.988   2.585   6.013 -0.3789  0.0463 -0.3182
   39POPC  H11A 5190   4.082   2.637   5.987  0.5972 -1.9806 -0.9430
   39POPC  H11B 5191   4.000   2.475   6.005 -1.0267 -0.0929  0.4829
   39POPC     P 5192   3.913   2.754   6.206  0.3805  0.2409 -0.3182
   39POPC   O13 5193   3.793   2.746   6.292  0.2414 -0.3762 -0.3238
   39POPC   O14 5194   3.912   2.852   6.097  0.7105  0.2173 -0.2519
   39POPC   O12 5195   3.957   2.610   6.153  0.0241 -0.4701 -0.0513
   39POPC   O11 5196   4.044   2.780   6.301  0.6619 -0.0083  0.0562
   39POPC    C1 5197   4.105   2.669   6.368  0.0209 -0.4613 -0.0948
   39POPC    HA 5198   4.166   2.603   6.302  2.7562  0.8368  1.0339
   39POPC    HB 5199   4.033   2.599   6.415 -0.0974  0.1490  0.6395
   39POPC    C2 5200   4.198   2.724   6.480  0.3951 -0.2526 -0.7455
   39POPC    HS 5201   4.242   2.641   6.538 -0.8337 -0.2827  0.1587
   39POPC   O21 5202   4.120   2.800   6.572  0.0561  0.1683 -0.0082
   39POPC   C21 5203   4.049   2.739   6.667 -0.0064 -0.1178 -0.7849
   39POPC   O22 5204   4.067   2.625   6.711 -0.4444  0.5232  0.0545
   39POPC   C22 5205   3.956   2.845   6.722  0.4068  0.7201 -0.1225
   39POPC   H2R 5206   3.903   2.885   6.632  1.0682  0.5738 -0.5790
   39POPC   H2S 5207   4.010   2.930   6.768 -2.7026  2.3153  0.7642
   39POPC    C3 5208   4.326   2.804   6.430 -0.3435  0.1484 -0.7522
   39POPC    HX 5209   4.296   2.909   6.410 -1.4875 -0.0599 -0.1806
   39POPC    HY 5210   4.367   2.777   6.331  0.5894 -0.2786 -0.2603
   39POPC   O31 5211   4.427   2.803   6.538 -0.1701 -0.2255  0.7025
   39POPC   C31 5212   4.513   2.698   6.535  0.1435  0.2496  0.0666
   39POPC   O32 5213   4.515   2.615   6.448 -0.1702  0.0254 -0.0430
   39POPC   C32 5214   4.598   2.695   6.663  0.8143  0.4622 -1.0483
   39POPC   H2X 5215   4.692   2.640   6.642  0.9891  0.9034 -1.4354
   39POPC   H2Y 5216   4.620   2.801   6.684 -2.3260  1.0157 -0.2421
   39POPC   C23 5217   3.862   2.792   6.834  0.1834  0.4400 -0.0644
   39POPC   H3R 5218   3.925   2.751   6.915 -1.7539 -1.4554  0.5386
   39POPC   H3S 5219   3.791   2.714   6.798  2.8585 -2.7751  1.3308
   39POPC   C24 5220   3.785   2.907   6.901  0.5015  0.1996 -0.2196
   39POPC   H4R 5221   3.727   2.962   6.823  2.3444  0.6303 -1.3253
   39POPC   H4S 5222   3.858   2.983   6.935 -0.4656  0.7486  0.6302
   39POPC   C25 5223   3.705   2.857   7.024  0.4024  0.1190  0.6075
   39POPC   H5R 5224   3.776   2.792   7.080 -0.6642 -0.6105  1.1122
   39POPC   H5S 5225   3.620   2.795   6.987  0.2765  0.6785 -0.0431
   39POPC   C26 5226   3.654   2.973   7.104 -0.0839  0.9197 -0.0416
   39POPC   H6R 5227   3.599   3.043   7.038  0.5988  0.5405 -1.0210
   39POPC   H6S 5228   3.736   3.029   7.152  1.5181 -1.4169  0.0451
   39POPC   C27 5229   3.569   2.924   7.219 -0.0200 -0.4905 -0.0616
   39POPC   H7R 5230   3.607   2.833   7.269  0.8305  2.1310  4.3123
   39POPC   H7S 5231   3.465   2.896   7.189 -0.5909  0.3972  1.0220
   39POPC   C28 5232   3.568   3.029   7.342 -0.2808  0.8129  0.1854
   39POPC   H8R 5233   3.482   2.987   7.398 -1.0790  1.7069 -0.3540
   39POPC   H8S 5234   3.534   3.120   7.290  1.6138  0.4649 -1.7384
   39POPC   C29 5235   3.694   3.052   7.418 -0.2705  0.1673  0.0941
   39POPC   H91 5236   3.769   3.095   7.351 -1.9081  2.0342 -0.6076
   39POPC  C210 5237   3.711   3.039   7.550 -0.1024  0.0539  0.0317
   39POPC  H101 5238   3.814   3.024   7.583  0.6171 -3.3426 -3.3668
   39POPC  C211 5239   3.605   2.997   7.651 -0.3021  0.1443  0.0339
   39POPC  H11R 5240   3.592   2.888   7.668  2.4667 -0.5701 -2.1391
   39POPC  H11S 5241   3.512   3.053   7.624  0.2542  0.6672 -0.8293
   39POPC  C212 5242   3.626   3.065   7.791 -0.1664  0.1831 -0.0003
   39POPC  H12R 5243   3.626   3.175   7.772  1.1874 -0.3519 -3.4920
   39POPC  H12S 5244   3.721   3.032   7.838  0.3785  1.2861 -0.3055
   39POPC  C213 5245   3.524   3.014   7.897  0.6491 -0.2528  0.5258
   39POPC  H13R 5246   3.535   2.907   7.925  1.1323 -0.1887  0.5857
   39POPC  H13S 5247   3.424   3.033   7.852  0.6339 -0.9622  0.2463
   39POPC  C214 5248   3.534   3.100   8.024 -0.4766  0.8839  0.7078
   39POPC  H14R 5249   3.523   3.206   7.993 -0.0340  0.7600  0.1221
   39POPC  H14S 5250   3.630   3.085   8.078  0.4380 -0.4614 -1.2426
   39POPC  C215 5251   3.430   3.064   8.128 -0.0113 -0.7244 -0.0395
   39POPC  H15R 5252   3.438   2.955   8.149 -0.0808 -0.5619  0.8548
   39POPC  H15S 5253   3.329   3.085   8.087 -0.7573  0.2015  2.1655
   39POPC  C216 5254   3.451   3.143   8.262  0.0609  0.1246  0.0596
   39POPC  H16R 5255   3.440   3.249   8.232 -2.5083 -0.6445 -2.0342
   39POPC  H16S 5256   3.557   3.124   8.287 -0.1979 -0.9231  0.4067
   39POPC  C217 5257   3.355   3.098   8.372 -0.4775 -0.2663  0.5913
   39POPC  H17R 5258   3.390   3.146   8.466  0.9195 -0.4462  0.1863
   39POPC  H17S 5259   3.364   2.990   8.397  3.9178  0.4011  2.3074
   39POPC  C218 5260   3.204   3.132   8.340 -0.3013 -0.3736  0.4412
   39POPC  H18R 5261   3.184   3.231   8.294  0.8459 -0.6862 -0.7475
   39POPC  H18S 5262   3.142   3.111   8.431 -1.3580  1.0996  0.0818
   39POPC  H18T 5263   3.161   3.073   8.256 -1.6103  3.0187 -1.3647
   39POPC   C33 5264   4.530   2.618   6.784 -0.0346 -0.2938  0.0127
   39POPC   H3X 5265   4.526   2.508   6.771  3.4690 -0.4955  0.1828
   39POPC   H3Y 5266   4.436   2.657   6.827 -1.6517 -2.8755 -1.0899
   39POPC   C34 5267   4.618   2.626   6.911 -0.3629  0.1025 -0.4825
   39POPC   H4X 5268   4.619   2.735   6.931 -1.1407  0.2426 -1.1634
   39POPC   H4Y 5269   4.720   2.590   6.889 -0.9284 -1.1657 -1.0984
   39POPC   C35 5270   4.548   2.547   7.026 -0.2128 -0.1867  0.4300
   39POPC   H5X 5271   4.542   2.439   7.001 -0.4064 -0.5906  2.1522
   39POPC   H5Y 5272   4.445   2.587   7.039  0.5479  1.2508  2.1698
   39POPC   C36 5273   4.617   2.555   7.158 -0.0420  0.1045  1.2551
   39POPC   H6X 5274   4.722   2.553   7.121 -0.3068  1.1498  0.4584
   39POPC   H6Y 5275   4.601   2.469   7.227 -1.0092 -0.3101  0.5263
   39POPC   C37 5276   4.591   2.684   7.238  0.2835 -1.4913  0.4503
   39POPC   H7X 5277   4.482   2.681   7.259 -0.1024 -0.2064 -1.2972
   39POPC   H7Y 5278   4.598   2.776   7.177  0.4616 -0.3720  2.1237
   39POPC   C38 5279   4.679   2.690   7.366  0.8480 -0.0583 -0.4090
   39POPC   H8X 5280   4.786   2.684   7.337  1.1674 -1.9137  1.0660
   39POPC   H8Y 5281   4.658   2.596   7.421  1.8215 -0.3839 -0.5813
   39POPC   C39 5282   4.643   2.816   7.437  0.2562 -0.6971 -0.4121
   39POPC   H9X 5283   4.532   2.807   7.441  0.3211 -1.0168  1.0828
   39POPC   H9Y 5284   4.684   2.905   7.385 -0.4882 -0.5356 -0.7247
   39POPC  C310 5285   4.692   2.814   7.589  0.2219 -0.0685 -0.7330
   39POPC  H10X 5286   4.683   2.709   7.623 -0.8114  0.4131  0.5026
   39POPC  H10Y 5287   4.629   2.875   7.657  1.1406 -2.7607  2.6635
   39POPC  C311 5288   4.839   2.857   7.600 -0.9198  0.5841  0.3887
   39POPC  H11X 5289   4.864   2.934   7.525  0.7381 -0.2691  0.0568
   39POPC  H11Y 5290   4.902   2.769   7.575 -2.0912  0.1366 -1.0525
   39POPC  C312 5291   4.881   2.917   7.736 -0.6992 -0.5149 -0.2937
   39POPC  H12X 5292   4.806   2.996   7.758  0.1786  0.2036  0.1254
   39POPC  H12Y 5293   4.981   2.964   7.724 -1.8571  1.9483 -0.4632
   39POPC  C313 5294   4.890   2.821   7.859  1.0918 -0.0503 -0.0033
   39POPC  H13X 5295   4.964   2.738   7.853  0.7557 -0.2721 -1.3570
   39POPC  H13Y 5296   4.788   2.776   7.862 -0.2002  2.6129 -1.9001
   39POPC  C314 5297   4.904   2.894   7.987 -0.0132 -0.1783 -0.3661
   39POPC  H14X 5298   4.813   2.956   8.001  0.0754 -0.6362  2.7751
   39POPC  H14Y 5299   4.987   2.967   7.975 -0.0387 -0.0958 -0.0554
   39POPC  C315 5300   4.920   2.797   8.114  0.2412 -0.3966  0.2846
   39POPC  H15X 5301   5.023   2.758   8.101 -0.2882 -1.9839  0.7056
   39POPC  H15Y 5302   4.849   2.712   8.102 -0.6200  0.3968 -0.2693
   39POPC  C316 5303   4.895   2.850   8.258 -0.1982  0.1402  0.1940
   39POPC  H16X 5304   4.934   2.953   8.269  1.1193 -0.3708  0.4751
   39POPC  H16Y 5305   4.940   2.787   8.338 -0.4732  0.3703  0.5302
   39POPC  H16Z 5306   4.788   2.855   8.287 -0.4889 -1.2457 -0.6096
   40POPC     N 5307   3.585   0.050   6.000  0.0622  0.9284  0.0068
   40POPC   C12 5308   3.537   0.107   6.126  0.4943  0.0206 -0.6053
   40POPC  H12A 5309   3.452   0.169   6.105 -1.5640 -1.1352  3.6914
   40POPC  H12B 5310   3.606   0.181   6.165  0.5637 -0.3675  0.0078
   40POPC   C13 5311   3.512  -0.072   5.953 -0.5710  0.1200  0.0989
   40POPC  H13A 5312   3.512  -0.146   6.032  1.9825  1.2441  1.2209
   40POPC  H13B 5313   3.412  -0.045   5.924 -0.9587  1.1536  2.2616
   40POPC  H13C 5314   3.559  -0.121   5.869  3.3132  0.5465  1.9032
   40POPC   C14 5315   3.598   0.155   5.886 -0.2009 -0.1006 -0.6757
   40POPC  H14A 5316   3.651   0.243   5.919 -1.2522 -0.1202  1.0886
   40POPC  H14B 5317   3.648   0.105   5.804  1.5215 -2.3199  1.6616
   40POPC  H14C 5318   3.498   0.176   5.851  0.3780  2.5921 -0.7872
   40POPC   C15 5319   3.731   0.018   6.013 -0.5496  0.2254  0.1922
   40POPC  H15A 5320   3.743  -0.029   6.110  2.0277  0.6106  0.0981
   40POPC  H15B 5321   3.784   0.112   6.014  0.0818 -0.1222 -0.4631
   40POPC  H15C 5322   3.782  -0.030   5.931 -0.0808  1.8076 -0.4685
   40POPC   C11 5323   3.502   0.013   6.248  0.6541  0.1298 -0.2841
   40POPC  H11A 5324   3.403  -0.036   6.235  0.0874  0.7800  1.3839
   40POPC  H11B 5325   3.498   0.081   6.336 -1.0469  1.2508 -1.2036
   40POPC     P 5326   3.712  -0.081   6.378 -0.1890 -0.2796 -0.0246
   40POPC   O13 5327   3.795   0.038   6.358 -0.0145 -0.5587 -0.0330
   40POPC   O14 5328   3.784  -0.207   6.381  1.0691 -0.2416 -0.1652
   40POPC   O12 5329   3.607  -0.080   6.266 -0.3304  0.4020 -0.1421
   40POPC   O11 5330   3.629  -0.074   6.514  0.1259 -0.0993 -0.0877
   40POPC    C1 5331   3.631   0.051   6.583 -0.1055 -1.0409  0.0459
   40POPC    HA 5332   3.588   0.135   6.523  0.3490 -0.1189  0.9906
   40POPC    HB 5333   3.735   0.079   6.610 -0.5053 -0.7108  1.2520
   40POPC    C2 5334   3.559   0.040   6.716 -0.0466 -0.7086 -0.5203
   40POPC    HS 5335   3.448   0.038   6.702  0.1611 -0.4685 -2.2437
   40POPC   O21 5336   3.590   0.155   6.793 -0.2628  0.1880  0.0014
   40POPC   C21 5337   3.516   0.259   6.763 -0.4926 -0.3677 -0.4491
   40POPC   O22 5338   3.432   0.263   6.674  0.2321 -0.2864  0.5408
   40POPC   C22 5339   3.559   0.375   6.848  0.7334 -0.0264  0.2076
   40POPC   H2R 5340   3.634   0.415   6.777  1.3600 -1.6539 -0.0722
   40POPC   H2S 5341   3.614   0.346   6.940  0.6738  0.6370  0.4577
   40POPC    C3 5342   3.611  -0.085   6.783 -0.0518 -0.7263 -0.3226
   40POPC    HX 5343   3.722  -0.088   6.790 -0.1819 -3.1975  1.1886
   40POPC    HY 5344   3.579  -0.169   6.717  0.5636 -0.3355 -1.1359
   40POPC   O31 5345   3.545  -0.106   6.909 -0.1872 -0.1460  0.1084
   40POPC   C31 5346   3.605  -0.043   7.006 -0.4023  0.4336 -0.4321
   40POPC   O32 5347   3.717   0.006   7.003  0.1579 -0.3265  0.5563
   40POPC   C32 5348   3.508  -0.032   7.122 -0.4196 -0.6491  0.1739
   40POPC   H2X 5349   3.501  -0.137   7.160  1.4778 -0.6207  0.6220
   40POPC   H2Y 5350   3.407  -0.002   7.087  0.9809  1.7737 -1.9014
   40POPC   C23 5351   3.445   0.482   6.878  0.0872 -0.4029 -0.0617
   40POPC   H3R 5352   3.362   0.435   6.935  0.8758 -0.7073  0.8477
   40POPC   H3S 5353   3.400   0.511   6.781 -0.0910 -0.4689  0.0015
   40POPC   C24 5354   3.503   0.594   6.957 -0.3484  0.8606 -1.1407
   40POPC   H4R 5355   3.596   0.630   6.908  1.2564  0.3869  1.5009
   40POPC   H4S 5356   3.549   0.556   7.051 -1.3856  1.6871 -0.2885
   40POPC   C25 5357   3.404   0.705   6.988  0.0477 -0.1413  0.2776
   40POPC   H5R 5358   3.308   0.665   7.028  0.1970  0.3800  1.1849
   40POPC   H5S 5359   3.383   0.757   6.892  0.0786 -3.2061 -1.4231
   40POPC   C26 5360   3.468   0.813   7.083 -0.1259 -0.5921  0.8274
   40POPC   H6R 5361   3.386   0.885   7.103 -0.8700 -1.8155  2.3706
   40POPC   H6S 5362   3.549   0.866   7.029 -1.1811 -1.1346 -1.3683
   40POPC   C27 5363   3.510   0.755   7.220 -0.6709 -0.2350  0.1991
   40POPC   H7R 5364   3.597   0.687   7.209 -0.9421 -0.2926 -1.8130
   40POPC   H7S 5365   3.419   0.703   7.255 -0.6483  0.2972  1.0636
   40POPC   C28 5366   3.563   0.872   7.312 -0.4974  0.0520 -0.0578
   40POPC   H8R 5367   3.479   0.943   7.327 -1.7483 -1.3916 -0.0599
   40POPC   H8S 5368   3.643   0.926   7.258 -0.9583  1.8097  0.9913
   40POPC   C29 5369   3.611   0.813   7.441 -0.0949  0.3855 -0.1861
   40POPC   H91 5370   3.654   0.713   7.426 -0.3439 -0.0050  1.5847
   40POPC  C210 5371   3.637   0.881   7.556 -0.4844  0.3387 -0.4553
   40POPC  H101 5372   3.672   0.830   7.647  1.8782 -0.0183 -1.5304
   40POPC  C211 5373   3.622   1.035   7.580  0.8187  0.1615  0.0395
   40POPC  H11R 5374   3.590   1.087   7.488 -0.6856 -0.2562  0.3247
   40POPC  H11S 5375   3.722   1.080   7.601  0.6431  0.8763 -0.6654
   40POPC  C212 5376   3.525   1.062   7.695 -0.5015 -0.1394  0.4185
   40POPC  H12R 5377   3.553   1.159   7.742  1.6060 -0.4194 -0.2474
   40POPC  H12S 5378   3.527   0.985   7.775 -0.6117  1.6745  2.2146
   40POPC  C213 5379   3.374   1.062   7.653 -0.0406 -0.2091 -0.2209
   40POPC  H13R 5380   3.342   0.963   7.615 -3.3803  1.6510 -2.6317
   40POPC  H13S 5381   3.359   1.124   7.562 -1.0453 -2.4015 -1.5910
   40POPC  C214 5382   3.277   1.101   7.767  0.3264  0.5927 -0.2025
   40POPC  H14R 5383   3.299   1.060   7.867 -1.8327 -0.0976  0.0226
   40POPC  H14S 5384   3.176   1.061   7.745  0.7184 -0.0446 -0.8774
   40POPC  C215 5385   3.268   1.250   7.770  0.3316 -0.1600  0.3063
   40POPC  H15R 5386   3.213   1.286   7.680 -0.8680 -0.6315  0.8414
   40POPC  H15S 5387   3.362   1.309   7.777  1.8780 -2.8442  2.6754
   40POPC  C216 5388   3.182   1.288   7.899 -0.1061  0.4096  0.3155
   40POPC  H16R 5389   3.245   1.265   7.988 -0.1302  0.9493  0.4783
   40POPC  H16S 5390   3.084   1.238   7.911 -1.6253  3.7228  2.6884
   40POPC  C217 5391   3.148   1.430   7.915 -0.3890 -0.1805 -0.1666
   40POPC  H17R 5392   3.107   1.459   7.817  0.6517  1.7676 -0.0549
   40POPC  H17S 5393   3.233   1.497   7.939  2.0256 -2.2197 -2.7031
   40POPC  C218 5394   3.048   1.453   8.030 -0.3307 -0.1209 -0.0911
   40POPC  H18R 5395   3.004   1.554   8.045  1.6281  0.9784 -1.3985
   40POPC  H18S 5396   3.090   1.436   8.131 -1.7822  2.1214  0.9074
   40POPC  H18T 5397   2.970   1.375   8.024  1.8654 -2.4510  0.6749
   40POPC   C33 5398   3.557   0.054   7.234 -0.2311 -0.3329  0.4044
   40POPC   H3X 5399   3.580   0.157   7.200  2.6054 -1.7394 -2.1423
   40POPC   H3Y 5400   3.637  -0.003   7.285 -0.0949  0.4544  1.0736
   40POPC   C34 5401   3.444   0.073   7.333  0.1336  0.6523 -0.6634
   40POPC   H4X 5402   3.393  -0.025   7.350 -0.8487  1.7110  3.0265
   40POPC   H4Y 5403   3.366   0.139   7.289 -1.3138 -0.3817  0.2767
   40POPC   C35 5404   3.491   0.151   7.458 -0.8474 -0.1770 -0.6241
   40POPC   H5X 5405   3.600   0.145   7.475 -0.7504  2.5014  0.0460
   40POPC   H5Y 5406   3.439   0.106   7.545 -0.1653  1.1651  0.5052
   40POPC   C36 5407   3.459   0.306   7.454 -0.3013 -0.3683  0.0989
   40POPC   H6X 5408   3.372   0.328   7.389  0.2223  0.4079 -0.3476
   40POPC   H6Y 5409   3.547   0.356   7.409 -1.5303  0.7156 -1.1783
   40POPC   C37 5410   3.443   0.373   7.597 -0.3518  0.0774  0.3201
   40POPC   H7X 5411   3.349   0.330   7.639  1.0302 -2.1410  1.2690
   40POPC   H7Y 5412   3.425   0.482   7.587 -1.4787 -0.2027 -0.9210
   40POPC   C38 5413   3.566   0.349   7.690  0.0598  0.5883 -0.0694
   40POPC   H8X 5414   3.652   0.414   7.661  0.5312  1.4654  3.0815
   40POPC   H8Y 5415   3.587   0.242   7.671  1.6324  0.4358  2.2940
   40POPC   C39 5416   3.525   0.369   7.835 -0.2725  0.0392  0.0406
   40POPC   H9X 5417   3.601   0.320   7.900  0.5011  2.1114  0.7336
   40POPC   H9Y 5418   3.426   0.322   7.856 -1.9681  3.0302 -1.0013
   40POPC  C310 5419   3.508   0.520   7.875  0.8876  0.0523 -0.6289
   40POPC  H10X 5420   3.478   0.569   7.780 -0.3816  1.6934  0.5839
   40POPC  H10Y 5421   3.604   0.564   7.908 -0.1732  1.9628  0.0293
   40POPC  C311 5422   3.419   0.522   8.001  0.3711 -0.1228  0.2956
   40POPC  H11X 5423   3.473   0.459   8.075 -0.2007 -0.0002  0.8108
   40POPC  H11Y 5424   3.316   0.494   7.971  0.0769 -0.6237  1.7549
   40POPC  C312 5425   3.416   0.668   8.061 -0.0628 -0.4999  0.0106
   40POPC  H12X 5426   3.386   0.730   7.974 -0.1838 -1.3824 -0.5890
   40POPC  H12Y 5427   3.524   0.685   8.082  0.1925 -2.1121  0.0958
   40POPC  C313 5428   3.331   0.692   8.181 -0.4878 -0.4605  0.0756
   40POPC  H13X 5429   3.358   0.626   8.266  0.7293  1.5199  1.2548
   40POPC  H13Y 5430   3.225   0.671   8.155 -0.6516  0.7426 -0.2746
   40POPC  C314 5431   3.350   0.823   8.254 -0.4962  0.0841  0.3894
   40POPC  H14X 5432   3.458   0.837   8.277  0.0706 -1.6212 -1.0599
   40POPC  H14Y 5433   3.301   0.817   8.354 -1.4756 -1.2578 -0.1562
   40POPC  C315 5434   3.322   0.942   8.165 -0.4085  0.2493  0.9947
   40POPC  H15X 5435   3.234   0.908   8.107  0.5827 -0.6996  0.0299
   40POPC  H15Y 5436   3.404   0.958   8.092 -1.8399  0.9607 -0.4683
   40POPC  C316 5437   3.298   1.066   8.245 -0.6857  0.5848  0.1469
   40POPC  H16X 5438   3.225   1.032   8.321 -0.6191  1.8538  0.7779
   40POPC  H16Y 5439   3.267   1.145   8.175  1.7646  1.8115  0.3880
   40POPC  H16Z 5440   3.394   1.092   8.294 -2.1778  0.8083  3.0803
   41CHL1    C3 5441   2.510   4.776  10.148 -0.3091 -0.5101 -0.4019
   41CHL1    H3 5442   2.545   4.881  10.141  1.3541 -1.0705 -0.8369
   41CHL1    O3 5443   2.498   4.738  10.284 -0.3807 -0.0381 -0.6090
   41CHL1   H3' 5444   2.472   4.646  10.289 -0.1668 -0.1476 -1.3388
   41CHL1    C4 5445   2.368   4.784  10.081  0.4288 -0.3726 -0.2391
   41CHL1   H4A 5446   2.315   4.691  10.111 -0.8234  0.8116  1.3711
   41CHL1   H4B 5447   2.309   4.867  10.126  1.1827 -0.7332  1.4678
   41CHL1    C5 5448   2.374   4.796   9.925 -0.5084  0.1465 -0.0995
   41CHL1    C6 5449   2.303   4.892   9.863 -0.4591 -0.8310 -0.2280
   41CHL1    H6 5450   2.244   4.961   9.925  1.1677  0.0790  0.3428
   41CHL1    C7 5451   2.301   4.915   9.712  0.4865 -0.6907 -0.3921
   41CHL1   H7A 5452   2.198   4.919   9.670  0.6896 -0.4451 -0.8776
   41CHL1   H7B 5453   2.359   5.007   9.687 -3.2993  1.8657 -0.3185
   41CHL1    C8 5454   2.359   4.794   9.637  0.1862 -0.2238  0.4514
   41CHL1    H8 5455   2.290   4.707   9.648 -3.7273  2.4371 -1.8412
   41CHL1   C14 5456   2.386   4.835   9.490  0.3411 -0.4247 -0.0493
   41CHL1   H14 5457   2.463   4.914   9.488 -0.2109  0.0921 -1.4556
   41CHL1   C15 5458   2.269   4.882   9.415  0.3942 -0.2480 -0.1648
   41CHL1  H15A 5459   2.187   4.811   9.441 -1.3062  2.1323  1.2422
   41CHL1  H15B 5460   2.242   4.985   9.447  0.5042  0.3832 -2.0488
   41CHL1   C16 5461   2.312   4.878   9.266  0.0289  0.4904 -0.1530
   41CHL1  H16A 5462   2.237   4.815   9.213 -0.3603 -0.3560  1.3605
   41CHL1  H16B 5463   2.338   4.975   9.219  1.4941 -0.2953 -0.9875
   41CHL1   C17 5464   2.446   4.800   9.264  0.5396 -0.4517 -0.3645
   41CHL1   H17 5465   2.523   4.880   9.271  1.4645 -1.3894  0.4252
   41CHL1   C13 5466   2.444   4.720   9.406  0.3654  0.2414 -0.3568
   41CHL1   C18 5467   2.356   4.598   9.390  0.4876  0.2237 -0.2775
   41CHL1  H18A 5468   2.345   4.547   9.487 -1.7956 -0.9079 -1.0929
   41CHL1  H18B 5469   2.260   4.624   9.340  0.0960  0.4963  0.6086
   41CHL1  H18C 5470   2.415   4.530   9.324  1.8454  1.6961 -0.5966
   41CHL1   C12 5471   2.583   4.683   9.462 -0.4591  0.0375 -0.3817
   41CHL1  H12A 5472   2.640   4.609   9.403  1.5557 -0.8907  2.5966
   41CHL1  H12B 5473   2.637   4.779   9.470 -0.6484 -0.0150  2.1567
   41CHL1   C11 5474   2.575   4.636   9.611  0.0663 -0.2926 -0.3774
   41CHL1  H11A 5475   2.531   4.535   9.602 -1.6780  0.5036 -1.0971
   41CHL1  H11B 5476   2.678   4.637   9.653  0.2167 -0.0343 -0.7414
   41CHL1    C9 5477   2.493   4.749   9.698  0.1786 -0.4569 -0.2626
   41CHL1    H9 5478   2.557   4.840   9.694 -0.2335 -0.1696 -0.3785
   41CHL1   C10 5479   2.472   4.695   9.843  0.6513 -0.3193  0.6840
   41CHL1   C19 5480   2.396   4.559   9.841  1.1590  0.7110  0.2050
   41CHL1  H19A 5481   2.459   4.484   9.789  1.3534  0.7490  0.3843
   41CHL1  H19B 5482   2.362   4.529   9.942 -0.0039  1.3695  0.0223
   41CHL1  H19C 5483   2.297   4.569   9.792  0.4320  2.3543  1.9663
   41CHL1    C1 5484   2.609   4.705   9.917  0.3040  0.0069 -0.0225
   41CHL1   H1A 5485   2.671   4.622   9.878 -0.3401 -1.0158  1.0776
   41CHL1   H1B 5486   2.649   4.807   9.900  0.0952 -0.4844 -3.7166
   41CHL1    C2 5487   2.596   4.677  10.068  0.5509  0.0055 -0.0277
   41CHL1   H2A 5488   2.698   4.672  10.112  0.7587 -1.5347 -0.6531
   41CHL1   H2B 5489   2.541   4.582  10.084  2.3203 -1.0732 -0.1896
   41CHL1   C20 5490   2.470   4.720   9.137 -0.2835  0.2402 -0.3889
   41CHL1   H20 5491   2.417   4.623   9.128  3.7243 -2.1922  0.9896
   41CHL1   C21 5492   2.625   4.688   9.126  0.4955 -0.5160 -0.4638
   41CHL1  H21A 5493   2.663   4.623   9.207 -2.6218 -0.8945  0.7782
   41CHL1  H21B 5494   2.684   4.782   9.127 -1.5808  0.8511  3.5039
   41CHL1  H21C 5495   2.646   4.639   9.029 -2.6271  1.1920 -2.1039
   41CHL1   C22 5496   2.438   4.821   9.019 -0.7810 -0.5341  0.1598
   41CHL1  H22A 5497   2.333   4.855   9.028 -1.1025 -1.6687  0.7991
   41CHL1  H22B 5498   2.501   4.910   9.035  0.3289 -1.0067 -1.4583
   41CHL1   C23 5499   2.455   4.770   8.871 -0.4351 -0.8911 -0.0236
   41CHL1  H23A 5500   2.441   4.863   8.812  1.7447 -0.0188  0.7920
   41CHL1  H23B 5501   2.554   4.724   8.852  1.3421  2.5007  0.7020
   41CHL1   C24 5502   2.352   4.661   8.843 -0.0421 -0.3650  0.8068
   41CHL1  H24A 5503   2.392   4.572   8.896  0.3127 -1.5770 -1.4367
   41CHL1  H24B 5504   2.260   4.707   8.886 -0.5795 -2.2658  1.7483
   41CHL1   C25 5505   2.325   4.631   8.689 -0.5835 -0.5810  0.3937
   41CHL1   H25 5506   2.248   4.552   8.695 -1.6104  0.2654 -1.2998
   41CHL1   C26 5507   2.272   4.760   8.622 -0.2079 -0.0791  0.5497
   41CHL1  H26A 5508   2.331   4.854   8.633 -0.3138  0.1881 -0.9675
   41CHL1  H26B 5509   2.270   4.748   8.511  3.6692  1.0244  0.3077
   41CHL1  H26C 5510   2.167   4.778   8.652 -1.2256  1.5193 -3.5288
   41CHL1   C27 5511   2.451   4.584   8.610  0.2739  0.0406 -0.0158
   41CHL1  H27A 5512   2.421   4.514   8.530 -0.9024  0.4219  0.0780
   41CHL1  H27B 5513   2.506   4.669   8.564  2.3187 -1.7164 -0.8454
   41CHL1  H27C 5514   2.519   4.533   8.681 -2.7424 -1.4211  1.9424
   42CHL1    C3 5515   2.199   4.173   9.766  0.1682  0.0510 -1.3621
   42CHL1    H3 5516   2.128   4.258   9.757  0.3550  0.2896 -0.6577
   42CHL1    O3 5517   2.207   4.145   9.903  0.2269  0.4473  0.1126
   42CHL1   H3' 5518   2.239   4.054   9.900 -1.1346 -0.0560  0.3346
   42CHL1    C4 5519   2.131   4.053   9.688  0.7959  0.0145  0.1351
   42CHL1   H4A 5520   2.176   3.953   9.705  1.4559  0.2870  0.0027
   42CHL1   H4B 5521   2.028   4.046   9.729 -0.0632 -0.3970 -2.0287
   42CHL1    C5 5522   2.126   4.086   9.542  0.0690  0.2932  0.4055
   42CHL1    C6 5523   2.006   4.084   9.473 -0.0827  0.8785 -0.6474
   42CHL1    H6 5524   1.913   4.055   9.525  0.8777  0.1211  0.6936
   42CHL1    C7 5525   2.004   4.076   9.319  0.0057 -0.1386  0.8082
   42CHL1   H7A 5526   1.954   3.984   9.283 -0.1813  0.9021 -1.7000
   42CHL1   H7B 5527   1.950   4.165   9.280 -1.3706 -1.0055  0.7145
   42CHL1    C8 5528   2.145   4.071   9.253  0.7977  0.7752  0.2603
   42CHL1    H8 5529   2.182   3.967   9.262  0.1060  0.2936 -2.1022
   42CHL1   C14 5530   2.136   4.113   9.117 -0.3199 -0.2513  0.3239
   42CHL1   H14 5531   2.098   4.218   9.118 -0.5297 -0.3102 -0.6556
   42CHL1   C15 5532   2.044   4.046   9.016  0.5051 -0.1203 -0.3589
   42CHL1  H15A 5533   2.053   3.935   9.020  0.9766 -0.0837 -0.4313
   42CHL1  H15B 5534   1.943   4.088   9.035  0.2684  0.2760 -2.3723
   42CHL1   C16 5535   2.095   4.077   8.879 -0.3854  0.1479  0.1698
   42CHL1  H16A 5536   2.121   3.987   8.818  1.0801 -0.7546  2.0694
   42CHL1  H16B 5537   2.018   4.125   8.815 -0.8045 -1.2497 -0.3889
   42CHL1   C17 5538   2.224   4.166   8.894  0.0965 -0.4607 -0.2955
   42CHL1   H17 5539   2.197   4.273   8.889 -0.7747 -0.7165 -1.1106
   42CHL1   C13 5540   2.270   4.142   9.042  0.1559 -0.2355  0.1147
   42CHL1   C18 5541   2.354   4.006   9.036  0.1271 -0.7278 -0.3491
   42CHL1  H18A 5542   2.303   3.929   8.974 -0.8830 -2.3835  2.4046
   42CHL1  H18B 5543   2.457   4.015   8.995  0.6880 -0.3312  1.0836
   42CHL1  H18C 5544   2.361   3.957   9.136 -0.8208 -0.8695 -0.3459
   42CHL1   C12 5545   2.340   4.261   9.116  0.4864  0.7391  0.1285
   42CHL1  H12A 5546   2.445   4.271   9.082  0.6144 -0.3700  0.1649
   42CHL1  H12B 5547   2.293   4.361   9.104 -2.2449 -0.5604 -0.6232
   42CHL1   C11 5548   2.366   4.208   9.260 -0.0764  0.5775 -1.4072
   42CHL1  H11A 5549   2.450   4.135   9.267 -0.9330 -0.3311 -0.3299
   42CHL1  H11B 5550   2.406   4.296   9.315  1.2726 -0.1453 -1.1955
   42CHL1    C9 5551   2.240   4.159   9.330 -0.1842  0.2561  0.9425
   42CHL1    H9 5552   2.180   4.253   9.335 -0.8380  0.1846 -3.5297
   42CHL1   C10 5553   2.264   4.118   9.477 -0.1725 -0.1366 -0.8944
   42CHL1   C19 5554   2.354   3.987   9.480 -0.0967 -0.2561  0.1518
   42CHL1  H19A 5555   2.312   3.899   9.427  1.3793 -0.9631  0.1305
   42CHL1  H19B 5556   2.451   4.014   9.434 -1.3146  0.3178 -2.1688
   42CHL1  H19C 5557   2.372   3.968   9.588  2.0729 -0.3465 -0.2080
   42CHL1    C1 5558   2.334   4.232   9.562  0.8782 -0.0641 -0.1648
   42CHL1   H1A 5559   2.440   4.241   9.529  0.2677 -2.2142 -2.9901
   42CHL1   H1B 5560   2.275   4.324   9.543 -1.9002 -1.9258 -0.9336
   42CHL1    C2 5561   2.338   4.209   9.712  0.2278  0.0668 -0.1832
   42CHL1   H2A 5562   2.382   4.302   9.754 -0.5879  0.1417  0.5289
   42CHL1   H2B 5563   2.406   4.125   9.737  0.8741  1.0487  1.3985
   42CHL1   C20 5564   2.327   4.151   8.788  0.0045  0.3249 -0.5113
   42CHL1   H20 5565   2.364   4.047   8.780 -0.6072  0.2422 -2.6030
   42CHL1   C21 5566   2.448   4.248   8.810  0.1561 -0.0676  0.2864
   42CHL1  H21A 5567   2.508   4.225   8.899  0.8464  1.2097  0.1693
   42CHL1  H21B 5568   2.420   4.355   8.821 -0.5150 -0.2797  0.6620
   42CHL1  H21C 5569   2.515   4.232   8.723 -0.4393 -1.4304  0.0610
   42CHL1   C22 5570   2.286   4.197   8.643  0.1016 -0.0013  0.7478
   42CHL1  H22A 5571   2.175   4.188   8.647  0.0406  1.0431  1.6739
   42CHL1  H22B 5572   2.309   4.302   8.616  2.0855 -0.9151 -1.2426
   42CHL1   C23 5573   2.352   4.105   8.540 -0.1844 -0.5897  0.7477
   42CHL1  H23A 5574   2.462   4.090   8.545 -0.3276 -1.7859  0.6087
   42CHL1  H23B 5575   2.306   4.007   8.566  1.8517 -1.7290  0.1041
   42CHL1   C24 5576   2.299   4.142   8.398 -0.0643  0.0917 -0.5910
   42CHL1  H24A 5577   2.190   4.160   8.408 -0.2500 -2.0650  1.7253
   42CHL1  H24B 5578   2.352   4.235   8.368 -1.5903  1.2612  0.3068
   42CHL1   C25 5579   2.320   4.043   8.286 -0.3087 -0.0332  0.6170
   42CHL1   H25 5580   2.295   4.091   8.189  0.3761  0.5946  0.7520
   42CHL1   C26 5581   2.460   3.982   8.288 -0.0480 -0.0839 -0.1073
   42CHL1  H26A 5582   2.540   4.059   8.298 -0.0511  0.5875 -4.1265
   42CHL1  H26B 5583   2.470   3.910   8.371  1.0358 -0.2203 -0.3383
   42CHL1  H26C 5584   2.492   3.933   8.194 -3.0267 -1.8397 -0.2566
   42CHL1   C27 5585   2.209   3.935   8.306 -0.1473  0.4440 -0.1621
   42CHL1  H27A 5586   2.231   3.850   8.238 -0.0041  0.4272 -0.0936
   42CHL1  H27B 5587   2.208   3.897   8.410 -0.7315  0.8239 -0.0258
   42CHL1  H27C 5588   2.109   3.974   8.277  0.1530  0.7380 -0.8040
   43CHL1    C3 5589   2.902   4.090  10.023 -0.5472  0.3591  0.3555
   43CHL1    H3 5590   3.012   4.075  10.018 -0.3003  2.4784 -1.9562
   43CHL1    O3 5591   2.872   4.094  10.161 -0.1982  0.3523  0.0448
   43CHL1   H3' 5592   2.776   4.085  10.159 -0.0792 -0.6734 -3.2430
   43CHL1    C4 5593   2.851   4.217   9.968 -0.0073 -1.2361 -0.6404
   43CHL1   H4A 5594   2.743   4.230   9.992 -0.0651 -0.7543 -1.1326
   43CHL1   H4B 5595   2.898   4.304  10.018 -0.5282 -0.7725 -0.9397
   43CHL1    C5 5596   2.880   4.230   9.819  0.3656  0.0699  0.2003
   43CHL1    C6 5597   2.960   4.335   9.766 -0.3653  0.4027 -0.1077
   43CHL1    H6 5598   3.009   4.399   9.840 -1.6904 -2.7252  3.6673
   43CHL1    C7 5599   2.987   4.358   9.622 -0.6435 -0.0710  0.0594
   43CHL1   H7A 5600   2.981   4.466   9.596  1.6800  0.1898  0.5167
   43CHL1   H7B 5601   3.092   4.326   9.608 -0.9984 -0.8541 -0.8346
   43CHL1    C8 5602   2.895   4.272   9.530  0.1004 -0.0354  0.6528
   43CHL1    H8 5603   2.800   4.330   9.531 -0.1735 -0.4702  0.2231
   43CHL1   C14 5604   2.947   4.265   9.389 -0.2805 -0.1638  0.0344
   43CHL1   H14 5605   3.044   4.212   9.403  0.8656  1.2336 -2.4028
   43CHL1   C15 5606   2.981   4.402   9.321  0.4448  0.2292  0.1178
   43CHL1  H15A 5607   2.889   4.462   9.338 -0.6576 -1.8226  1.6581
   43CHL1  H15B 5608   3.074   4.446   9.362  0.0414  1.5965 -0.4219
   43CHL1   C16 5609   2.995   4.367   9.163  0.6756 -0.4618  0.3807
   43CHL1  H16A 5610   2.930   4.438   9.106 -0.3433 -1.0691  0.7810
   43CHL1  H16B 5611   3.104   4.379   9.144  0.4974  1.8152  0.5436
   43CHL1   C17 5612   2.944   4.223   9.156 -0.1549  0.2223  0.1322
   43CHL1   H17 5613   3.035   4.162   9.176  0.9741  1.5539 -0.8641
   43CHL1   C13 5614   2.860   4.194   9.287 -0.5005  0.0657  0.5509
   43CHL1   C18 5615   2.726   4.262   9.281 -0.1179 -0.0509  0.0526
   43CHL1  H18A 5616   2.688   4.290   9.381  0.3527  1.5264 -0.1965
   43CHL1  H18B 5617   2.730   4.354   9.219  0.1675  1.4147  2.2083
   43CHL1  H18C 5618   2.654   4.190   9.236 -0.3528  0.0827  0.2186
   43CHL1   C12 5619   2.859   4.053   9.341 -0.2838 -0.1000 -0.7134
   43CHL1  H12A 5620   2.796   3.992   9.273  0.8813 -1.2034 -0.8228
   43CHL1  H12B 5621   2.958   4.005   9.325  1.5953  3.8573 -1.5547
   43CHL1   C11 5622   2.799   4.041   9.481 -0.1945 -0.7945  0.1847
   43CHL1  H11A 5623   2.693   4.073   9.475 -0.2480 -1.4232 -3.0222
   43CHL1  H11B 5624   2.805   3.934   9.511 -2.9950 -1.1075 -0.2939
   43CHL1    C9 5625   2.874   4.129   9.584 -0.8454 -0.0656 -0.4352
   43CHL1    H9 5626   2.978   4.089   9.590 -0.5471  0.6757 -0.6276
   43CHL1   C10 5627   2.826   4.123   9.735 -0.3329  0.1470 -0.0554
   43CHL1   C19 5628   2.671   4.147   9.727 -0.0108  0.4613  0.2624
   43CHL1  H19A 5629   2.625   4.162   9.827  0.8635 -1.4380  0.9616
   43CHL1  H19B 5630   2.645   4.235   9.664  2.1885  1.3820  0.5849
   43CHL1  H19C 5631   2.624   4.060   9.676  0.7832  0.2143 -0.0612
   43CHL1    C1 5632   2.850   3.981   9.797 -0.3874  0.5665  0.2000
   43CHL1   H1A 5633   2.801   3.905   9.734  2.0322 -0.5858 -0.3482
   43CHL1   H1B 5634   2.960   3.972   9.788 -0.2397 -0.8279  3.0308
   43CHL1    C2 5635   2.824   3.973   9.951  0.9164 -0.2813 -0.1625
   43CHL1   H2A 5636   2.868   3.876   9.983 -1.4997 -2.3300 -2.7732
   43CHL1   H2B 5637   2.713   3.976   9.958  0.9022  0.7323 -0.7757
   43CHL1   C20 5638   2.885   4.198   9.022 -0.8527  0.7397  0.0849
   43CHL1   H20 5639   2.806   4.275   9.009 -1.2702  0.4018  0.6106
   43CHL1   C21 5640   2.813   4.066   9.014 -0.1178  0.4164 -0.0937
   43CHL1  H21A 5641   2.887   3.997   9.060 -0.0498  1.0168  0.7150
   43CHL1  H21B 5642   2.768   4.028   8.920  0.3120 -2.8850  0.9534
   43CHL1  H21C 5643   2.729   4.076   9.086 -0.6650 -0.0899 -0.6544
   43CHL1   C22 5644   2.982   4.209   8.909  0.3971 -0.1815  0.7371
   43CHL1  H22A 5645   3.019   4.313   8.903  0.1302 -0.0161  1.8586
   43CHL1  H22B 5646   3.071   4.144   8.924  0.5601 -0.5543 -1.5828
   43CHL1   C23 5647   2.922   4.188   8.764 -0.1508 -0.2957 -0.9068
   43CHL1  H23A 5648   2.879   4.085   8.757 -0.9766 -0.0883  0.8205
   43CHL1  H23B 5649   2.827   4.244   8.753 -0.1149 -0.2171 -0.8143
   43CHL1   C24 5650   3.023   4.209   8.652 -0.2547  0.9100 -0.1478
   43CHL1  H24A 5651   3.063   4.311   8.665  1.1079  0.3531  0.0890
   43CHL1  H24B 5652   3.112   4.144   8.666  0.0282  1.4069  0.3424
   43CHL1   C25 5653   2.963   4.199   8.508 -1.0698 -0.0068  0.4931
   43CHL1   H25 5654   2.868   4.256   8.503  0.4449  2.5971  0.1632
   43CHL1   C26 5655   3.064   4.253   8.408 -0.0172  0.1988 -0.5076
   43CHL1  H26A 5656   3.155   4.190   8.397  0.1187  0.3643 -0.3278
   43CHL1  H26B 5657   3.017   4.263   8.308 -0.6334 -1.4162 -0.3993
   43CHL1  H26C 5658   3.080   4.361   8.430 -1.7734  0.9153 -2.5097
   43CHL1   C27 5659   2.943   4.054   8.473 -0.8510  0.1866 -0.0345
   43CHL1  H27A 5660   2.906   4.035   8.370  1.3490 -1.3184 -0.5818
   43CHL1  H27B 5661   3.040   4.000   8.478  0.0263  1.7569  0.4797
   43CHL1  H27C 5662   2.874   4.015   8.551 -1.1495 -1.4980 -1.1215
   44CHL1    C3 5663   3.124   4.680  10.161  0.0563 -0.2465 -0.1916
   44CHL1    H3 5664   3.196   4.596  10.151  0.1252  0.1532 -3.6470
   44CHL1    O3 5665   3.082   4.694  10.298  0.3358 -0.5365  0.3926
   44CHL1   H3' 5666   3.025   4.771  10.302 -0.5621 -0.9519 -2.7070
   44CHL1    C4 5667   3.181   4.808  10.104 -0.1737  0.0538 -1.0072
   44CHL1   H4A 5668   3.116   4.890  10.143  0.6105  0.2321 -0.0407
   44CHL1   H4B 5669   3.279   4.824  10.155 -0.1077  0.4361 -1.2546
   44CHL1    C5 5670   3.197   4.816   9.956 -0.1455  0.2160 -0.0920
   44CHL1    C6 5671   3.314   4.846   9.900 -1.4407 -0.1694 -0.4628
   44CHL1    H6 5672   3.406   4.864   9.957 -1.8440  1.1524 -0.2118
   44CHL1    C7 5673   3.339   4.848   9.752  0.2738 -0.0708 -0.0599
   44CHL1   H7A 5674   3.400   4.934   9.717 -0.7618  0.1176 -1.4639
   44CHL1   H7B 5675   3.405   4.768   9.714 -1.3791 -1.0072 -1.0325
   44CHL1    C8 5676   3.209   4.854   9.667  0.0405 -0.2923  0.1769
   44CHL1    H8 5677   3.172   4.958   9.675 -1.2321 -0.6086 -1.2678
   44CHL1   C14 5678   3.231   4.819   9.516  0.4604  0.1359 -0.4235
   44CHL1   H14 5679   3.261   4.712   9.511 -0.7841 -0.2137 -0.4388
   44CHL1   C15 5680   3.338   4.893   9.445 -0.0085  0.3386 -0.3188
   44CHL1  H15A 5681   3.327   4.995   9.486  0.5337 -0.4945  1.9617
   44CHL1  H15B 5682   3.439   4.856   9.473  0.3567  1.6778  0.1586
   44CHL1   C16 5683   3.306   4.881   9.294 -0.3103 -0.5151 -0.2808
   44CHL1  H16A 5684   3.322   4.975   9.237 -0.2114 -0.9101 -0.9073
   44CHL1  H16B 5685   3.375   4.805   9.253 -0.6417 -1.4453  0.8743
   44CHL1   C17 5686   3.164   4.819   9.285  0.3910 -0.0162  0.6026
   44CHL1   H17 5687   3.186   4.710   9.283  0.1079 -0.0683  0.0193
   44CHL1   C13 5688   3.107   4.847   9.425  0.4917  0.6943 -0.2439
   44CHL1   C18 5689   3.058   4.993   9.436  0.5769  0.4585  0.5530
   44CHL1  H18A 5690   3.127   5.060   9.379  0.2237 -0.4410 -0.9658
   44CHL1  H18B 5691   2.960   5.001   9.385  0.4287  4.6525  1.3526
   44CHL1  H18C 5692   3.036   5.028   9.539 -0.9773 -0.5672  0.5853
   44CHL1   C12 5693   3.005   4.744   9.484  0.4594  0.4026 -0.1429
   44CHL1  H12A 5694   2.901   4.756   9.448 -1.0194  1.5724  4.1563
   44CHL1  H12B 5695   3.047   4.642   9.474 -0.7298 -0.0934 -0.1370
   44CHL1   C11 5696   2.978   4.762   9.639  0.5570 -0.4363  0.2661
   44CHL1  H11A 5697   2.928   4.860   9.656 -0.3398 -1.4927  4.2645
   44CHL1  H11B 5698   2.913   4.679   9.673  0.5755  1.0056  4.0926
   44CHL1    C9 5699   3.104   4.760   9.724 -0.1763 -0.0800 -0.4111
   44CHL1    H9 5700   3.147   4.659   9.705 -0.5656 -0.7486  2.1630
   44CHL1   C10 5701   3.070   4.781   9.876 -0.8606  0.1625  0.4557
   44CHL1   C19 5702   2.968   4.900   9.892  0.0432  0.1445 -0.5173
   44CHL1  H19A 5703   2.863   4.880   9.863 -0.4317  1.2661  0.3718
   44CHL1  H19B 5704   2.961   4.938   9.996  3.5304 -0.3251 -0.0422
   44CHL1  H19C 5705   2.992   4.984   9.822  0.9055 -0.7435 -1.3004
   44CHL1    C1 5706   3.024   4.645   9.927 -0.4480 -0.0305  0.3656
   44CHL1   H1A 5707   2.939   4.602   9.870  1.4487  1.8025 -4.1022
   44CHL1   H1B 5708   3.110   4.575   9.928  1.2421  1.9572 -0.1225
   44CHL1    C2 5709   2.994   4.647  10.078  0.1625 -0.2836 -0.1476
   44CHL1   H2A 5710   2.950   4.549  10.108 -0.2940  0.4694  1.7342
   44CHL1   H2B 5711   2.923   4.732  10.086 -0.4682 -0.9212  1.4007
   44CHL1   C20 5712   3.100   4.859   9.154 -0.7724  0.4082  0.3652
   44CHL1   H20 5713   3.066   4.965   9.149  0.2263  0.7427  0.5660
   44CHL1   C21 5714   2.970   4.774   9.141  0.3230 -0.4929 -0.5095
   44CHL1  H21A 5715   2.913   4.809   9.053  0.2219 -1.4633 -0.8309
   44CHL1  H21B 5716   2.909   4.785   9.233  1.5665 -0.8974  0.3882
   44CHL1  H21C 5717   2.990   4.665   9.142  1.8123 -0.2764  3.1015
   44CHL1   C22 5718   3.202   4.825   9.035 -0.0818  0.7501 -0.0834
   44CHL1  H22A 5719   3.295   4.882   9.053  0.9624 -1.7030  2.7177
   44CHL1  H22B 5720   3.233   4.719   9.047 -0.6375  0.5578 -0.3283
   44CHL1   C23 5721   3.148   4.849   8.895 -0.6065 -0.6665 -0.1442
   44CHL1  H23A 5722   3.091   4.944   8.895  2.6603  1.3955  0.9132
   44CHL1  H23B 5723   3.244   4.867   8.842 -0.8962  0.9377 -0.1469
   44CHL1   C24 5724   3.074   4.737   8.823 -0.2423  0.1146 -0.1366
   44CHL1  H24A 5725   3.141   4.648   8.826 -1.9543 -1.2205 -0.3027
   44CHL1  H24B 5726   2.992   4.710   8.893 -0.5905  2.0610  0.2266
   44CHL1   C25 5727   3.015   4.761   8.690 -0.0241  0.2515 -0.2852
   44CHL1   H25 5728   2.967   4.861   8.695 -0.2323  0.2328 -1.6551
   44CHL1   C26 5729   3.114   4.753   8.578 -0.0311 -0.8476 -0.9090
   44CHL1  H26A 5730   3.083   4.801   8.483  0.5186  1.1987 -0.0673
   44CHL1  H26B 5731   3.209   4.799   8.611 -0.4506 -0.8979  0.3845
   44CHL1  H26C 5732   3.138   4.649   8.548  0.5323 -1.2670  0.9330
   44CHL1   C27 5733   2.895   4.665   8.658  0.6409  0.5892 -0.9018
   44CHL1  H27A 5734   2.832   4.712   8.579  0.2537  1.6833  0.0416
   44CHL1  H27B 5735   2.953   4.573   8.635  0.9487  0.0955  1.6825
   44CHL1  H27C 5736   2.842   4.639   8.752 -0.1934  0.5438 -1.3768
   45CHL1    C3 5737   6.671   3.447  10.262  0.0730 -0.0194  0.1488
   45CHL1    H3 5738   6.760   3.494  10.215 -0.1419  1.0372  0.8013
   45CHL1    O3 5739   6.666   3.488  10.396  0.3941  0.5319 -0.0316
   45CHL1   H3' 5740   6.646   3.582  10.399 -0.8314  0.3424 -1.5657
   45CHL1    C4 5741   6.540   3.489  10.196  0.2024  0.4072  0.1062
   45CHL1   H4A 5742   6.455   3.441  10.249 -0.7456  2.0746  0.1158
   45CHL1   H4B 5743   6.523   3.597  10.212 -1.3235  0.6086 -2.5689
   45CHL1    C5 5744   6.544   3.435  10.053 -0.1287  0.5129 -0.6036
   45CHL1    C6 5745   6.514   3.517   9.956  0.3595 -0.8052  0.9382
   45CHL1    H6 5746   6.508   3.625   9.979 -1.7308 -0.8263  0.5803
   45CHL1    C7 5747   6.482   3.469   9.820  0.3961  0.1248 -0.6949
   45CHL1   H7A 5748   6.377   3.489   9.791  0.3891  1.2589  0.0783
   45CHL1   H7B 5749   6.537   3.524   9.740 -0.2318 -0.1414 -1.3189
   45CHL1    C8 5750   6.495   3.310   9.791 -0.4608 -0.5079 -0.9346
   45CHL1    H8 5751   6.544   3.311   9.691  0.9651  0.9915 -0.2517
   45CHL1   C14 5752   6.372   3.234   9.757  0.9213  0.7365  0.7548
   45CHL1   H14 5753   6.316   3.240   9.852 -1.1514  4.4673 -0.6283
   45CHL1   C15 5754   6.287   3.285   9.645  0.4187 -0.1208  0.8724
   45CHL1  H15A 5755   6.205   3.350   9.683  0.4666  0.6364 -0.2689
   45CHL1  H15B 5756   6.351   3.331   9.566  0.5989  1.4010  1.8933
   45CHL1   C16 5757   6.228   3.160   9.574  0.2521 -0.1520 -0.0184
   45CHL1  H16A 5758   6.139   3.110   9.620  0.4627  0.6529  1.2844
   45CHL1  H16B 5759   6.200   3.174   9.467 -2.4790 -0.5471  0.5876
   45CHL1   C17 5760   6.351   3.059   9.586 -0.3435  0.4340 -0.2412
   45CHL1   H17 5761   6.431   3.101   9.521 -0.9769  1.4963 -0.3384
   45CHL1   C13 5762   6.406   3.088   9.727 -0.4086 -0.3434  0.3511
   45CHL1   C18 5763   6.315   2.998   9.816 -0.7191  0.0557 -0.6063
   45CHL1  H18A 5764   6.211   2.987   9.779 -1.0391 -3.6037  1.0975
   45CHL1  H18B 5765   6.365   2.899   9.807  0.8728  0.8423 -0.6732
   45CHL1  H18C 5766   6.328   3.038   9.919  0.9269 -3.3672  0.6052
   45CHL1   C12 5767   6.552   3.052   9.743 -0.1212 -0.2380 -0.8833
   45CHL1  H12A 5768   6.564   2.941   9.740  2.3990 -0.0923  1.7542
   45CHL1  H12B 5769   6.620   3.087   9.663 -1.2821  0.1508 -1.7066
   45CHL1   C11 5770   6.617   3.099   9.868 -0.0556  0.0633  0.1928
   45CHL1  H11A 5771   6.591   3.042   9.959  0.5271  0.3125  0.5198
   45CHL1  H11B 5772   6.728   3.096   9.857 -0.0610 -0.2052  0.2166
   45CHL1    C9 5773   6.590   3.248   9.898  0.2387  0.2987 -0.0761
   45CHL1    H9 5774   6.688   3.297   9.882 -0.6912  2.0312 -0.5495
   45CHL1   C10 5775   6.558   3.283  10.041  0.5944  0.4835 -0.3310
   45CHL1   C19 5776   6.433   3.206  10.093  0.0026  0.0316  0.4814
   45CHL1  H19A 5777   6.431   3.096  10.082 -1.7074  0.2146 -1.3825
   45CHL1  H19B 5778   6.434   3.214  10.204 -0.1501 -0.2581  0.5037
   45CHL1  H19C 5779   6.346   3.258  10.047  0.9969  0.0613 -1.4204
   45CHL1    C1 5780   6.678   3.231  10.128 -0.3365 -0.4557  0.4208
   45CHL1   H1A 5781   6.664   3.123  10.147 -0.5872 -0.1722  1.9152
   45CHL1   H1B 5782   6.777   3.250  10.080 -0.3064 -0.9672  0.2764
   45CHL1    C2 5783   6.693   3.295  10.265 -0.1379 -0.3653  0.4478
   45CHL1   H2A 5784   6.792   3.264  10.306  0.0235  1.3350  1.3982
   45CHL1   H2B 5785   6.607   3.249  10.318 -1.7705 -0.7895 -2.4514
   45CHL1   C20 5786   6.323   2.919   9.527 -0.0825 -0.0126 -0.4854
   45CHL1   H20 5787   6.251   2.873   9.598 -0.9417  2.1075  0.0513
   45CHL1   C21 5788   6.454   2.842   9.532 -0.3393  0.1699  0.1998
   45CHL1  H21A 5789   6.466   2.803   9.636 -0.2721 -0.1744  0.0632
   45CHL1  H21B 5790   6.543   2.903   9.506 -0.9349  3.3295  4.9551
   45CHL1  H21C 5791   6.449   2.753   9.466 -0.7380 -0.3343  0.8927
   45CHL1   C22 5792   6.260   2.907   9.385  0.0748  0.2076  0.1294
   45CHL1  H22A 5793   6.247   2.802   9.352 -1.8486  0.4257  0.1246
   45CHL1  H22B 5794   6.158   2.953   9.385  0.3704  0.8886 -1.4363
   45CHL1   C23 5795   6.344   2.978   9.270  0.4177  0.6740  0.1688
   45CHL1  H23A 5796   6.381   3.074   9.311  2.9969  0.2404 -1.0076
   45CHL1  H23B 5797   6.428   2.914   9.235 -0.7231  1.7323 -4.8473
   45CHL1   C24 5798   6.254   3.013   9.149 -0.6782 -0.0319  0.4014
   45CHL1  H24A 5799   6.197   2.921   9.125 -1.8330  0.7621  0.0779
   45CHL1  H24B 5800   6.179   3.087   9.183 -2.2683 -1.7317  0.6919
   45CHL1   C25 5801   6.330   3.074   9.027  0.1306  0.4369  0.2113
   45CHL1   H25 5802   6.367   3.172   9.064 -0.4424  0.9158 -0.4597
   45CHL1   C26 5803   6.448   2.999   8.967  0.8863  0.5773  0.8315
   45CHL1  H26A 5804   6.501   3.066   8.896 -0.5950  0.0136 -0.8425
   45CHL1  H26B 5805   6.508   2.947   9.045 -1.9355  0.3013  2.9000
   45CHL1  H26C 5806   6.406   2.912   8.912  2.2643 -0.3372  1.1964
   45CHL1   C27 5807   6.227   3.120   8.924  0.1532 -0.0299  0.1316
   45CHL1  H27A 5808   6.266   3.205   8.865 -0.0738 -0.7144 -1.0360
   45CHL1  H27B 5809   6.195   3.033   8.862  0.0391  0.2826 -0.2524
   45CHL1  H27C 5810   6.131   3.157   8.966 -1.8384 -3.5358 -1.1287
   46CHL1    C3 5811   2.640   1.278  10.125  0.4541  0.7085 -0.1615
   46CHL1    H3 5812   2.737   1.312  10.084  1.1878  1.6919  2.3143
   46CHL1    O3 5813   2.647   1.305  10.262  0.2418 -0.0884 -0.1764
   46CHL1   H3' 5814   2.607   1.231  10.308 -0.4557 -0.0483 -0.7066
   46CHL1    C4 5815   2.526   1.362  10.067 -0.0114 -0.0822 -0.5089
   46CHL1   H4A 5816   2.433   1.327  10.116  1.3123 -0.5649  1.7504
   46CHL1   H4B 5817   2.536   1.468  10.099  0.5400 -0.7351  1.5660
   46CHL1    C5 5818   2.512   1.344   9.919  0.3008  0.7469 -0.3758
   46CHL1    C6 5819   2.515   1.445   9.829  0.4631  0.2514 -0.2682
   46CHL1    H6 5820   2.536   1.545   9.869 -1.3043  0.2706  0.6522
   46CHL1    C7 5821   2.495   1.451   9.685  0.4141  0.0212 -0.3555
   46CHL1   H7A 5822   2.437   1.537   9.645  1.7959  0.3455 -1.7368
   46CHL1   H7B 5823   2.594   1.461   9.635 -0.2829  0.6398 -1.6309
   46CHL1    C8 5824   2.436   1.314   9.636  0.2113  0.3042 -0.0464
   46CHL1    H8 5825   2.327   1.308   9.656  0.3006  1.8617  1.0110
   46CHL1   C14 5826   2.456   1.301   9.486 -1.2172  0.0024  0.2993
   46CHL1   H14 5827   2.564   1.315   9.464 -1.3083  0.4198  0.1193
   46CHL1   C15 5828   2.404   1.414   9.396  0.3283 -0.7337  0.1232
   46CHL1  H15A 5829   2.311   1.443   9.450  1.6980  0.2284  2.0601
   46CHL1  H15B 5830   2.462   1.508   9.385 -1.0416  0.0229 -0.8116
   46CHL1   C16 5831   2.386   1.339   9.260 -0.8539 -0.6660 -0.5519
   46CHL1  H16A 5832   2.278   1.344   9.237 -1.1924  0.3831  1.1559
   46CHL1  H16B 5833   2.445   1.388   9.180  1.0923 -0.7587  0.7789
   46CHL1   C17 5834   2.442   1.195   9.276  0.2391 -0.3235 -0.3745
   46CHL1   H17 5835   2.551   1.206   9.259  0.3969 -0.8264  0.2955
   46CHL1   C13 5836   2.418   1.167   9.426  0.6349 -0.0058  0.6878
   46CHL1   C18 5837   2.278   1.127   9.465 -0.2148 -0.1855  0.3168
   46CHL1  H18A 5838   2.209   1.199   9.416  2.1189  2.5221  0.8427
   46CHL1  H18B 5839   2.246   1.031   9.419  0.3466 -0.9575  1.5070
   46CHL1  H18C 5840   2.246   1.123   9.571 -2.4047  0.5050 -0.3025
   46CHL1   C12 5841   2.518   1.068   9.489 -0.0265 -0.6601  0.1531
   46CHL1  H12A 5842   2.494   0.965   9.456 -0.3050 -0.6937  0.4551
   46CHL1  H12B 5843   2.623   1.096   9.465 -0.8241 -0.0899 -2.8984
   46CHL1   C11 5844   2.503   1.064   9.645  0.2007  0.1518  0.3478
   46CHL1  H11A 5845   2.406   1.015   9.670  1.4731 -2.3488  0.6278
   46CHL1  H11B 5846   2.582   0.991   9.674 -1.2491 -0.8950  1.7245
   46CHL1    C9 5847   2.516   1.203   9.709 -0.6124  0.7375 -0.5278
   46CHL1    H9 5848   2.622   1.227   9.689  0.3786 -2.6513  0.4470
   46CHL1   C10 5849   2.500   1.203   9.863  0.4961  1.1952 -0.5057
   46CHL1   C19 5850   2.359   1.148   9.903 -0.7038 -0.3285 -0.2164
   46CHL1  H19A 5851   2.275   1.196   9.848 -1.3948 -1.0165  0.2270
   46CHL1  H19B 5852   2.348   1.039   9.881  0.0596 -0.2192 -1.1623
   46CHL1  H19C 5853   2.327   1.164  10.008 -0.5071 -1.3185  0.0031
   46CHL1    C1 5854   2.600   1.107   9.936  0.1285  1.2492 -0.4304
   46CHL1   H1A 5855   2.561   1.003   9.937  0.4809  1.1177 -0.3023
   46CHL1   H1B 5856   2.702   1.104   9.894  0.8009 -2.9795  1.2605
   46CHL1    C2 5857   2.608   1.134  10.092 -0.7073 -0.4621  0.9010
   46CHL1   H2A 5858   2.682   1.066  10.139  0.1219  0.1619  0.4915
   46CHL1   H2B 5859   2.506   1.118  10.133 -1.5741  1.6574 -0.3703
   46CHL1   C20 5860   2.370   1.118   9.172 -0.1292 -0.3548  0.4644
   46CHL1   H20 5861   2.261   1.107   9.190 -0.2167 -0.7978 -0.2692
   46CHL1   C21 5862   2.423   0.970   9.180 -0.2714 -0.4258  0.5059
   46CHL1  H21A 5863   2.381   0.919   9.091 -0.0797 -0.1367  0.2509
   46CHL1  H21B 5864   2.388   0.916   9.271  0.6303 -2.5887 -0.4059
   46CHL1  H21C 5865   2.533   0.975   9.173 -0.3092 -2.8635 -3.1000
   46CHL1   C22 5866   2.379   1.177   9.026  0.1508 -1.1120 -0.0662
   46CHL1  H22A 5867   2.332   1.099   8.961  0.0293 -0.8917 -0.2463
   46CHL1  H22B 5868   2.334   1.278   9.027  1.7852 -0.3785  2.4606
   46CHL1   C23 5869   2.519   1.182   8.970 -0.3137  0.9242  0.3321
   46CHL1  H23A 5870   2.565   1.275   9.009  0.5454  0.4931  0.3566
   46CHL1  H23B 5871   2.585   1.097   8.998 -0.8519 -0.3706 -2.1677
   46CHL1   C24 5872   2.525   1.183   8.813  0.4981  0.8407 -0.4133
   46CHL1  H24A 5873   2.488   1.079   8.797  1.2700  0.5617 -0.4178
   46CHL1  H24B 5874   2.446   1.251   8.775 -0.5474 -0.4678 -0.6252
   46CHL1   C25 5875   2.666   1.205   8.750  0.5053  0.8162 -0.0341
   46CHL1   H25 5876   2.697   1.305   8.784  0.9544  1.3429 -1.9217
   46CHL1   C26 5877   2.778   1.112   8.808  0.4338  0.0377 -0.0238
   46CHL1  H26A 5878   2.754   1.004   8.800  1.3794 -0.4942  3.4324
   46CHL1  H26B 5879   2.872   1.135   8.755  1.5085 -2.5443  0.6652
   46CHL1  H26C 5880   2.803   1.123   8.916  0.2474 -1.2530  0.1572
   46CHL1   C27 5881   2.671   1.208   8.597 -0.2694  0.3686  0.4550
   46CHL1  H27A 5882   2.623   1.121   8.549 -0.7220  0.0074  1.5378
   46CHL1  H27B 5883   2.603   1.293   8.575 -1.9203 -0.9262  0.4758
   46CHL1  H27C 5884   2.774   1.218   8.556 -0.1770  0.9568  0.8052
   47CHL1    C3 5885   3.431   4.165   9.977 -0.4387  0.2955 -0.0675
   47CHL1    H3 5886   3.522   4.229   9.977 -0.3123  0.1899 -3.2341
   47CHL1    O3 5887   3.394   4.139  10.106  0.4627 -0.6430  0.3236
   47CHL1   H3' 5888   3.360   4.225  10.131  2.3371  0.5168 -1.0587
   47CHL1    C4 5889   3.316   4.241   9.897 -0.2519 -0.3684  0.0353
   47CHL1   H4A 5890   3.230   4.172   9.889 -1.2115  0.3643  3.3727
   47CHL1   H4B 5891   3.279   4.328   9.955 -1.8439 -1.2866  0.4226
   47CHL1    C5 5892   3.349   4.276   9.754  0.1796  0.1742  0.1800
   47CHL1    C6 5893   3.326   4.403   9.705 -0.3998  0.4070 -0.1053
   47CHL1    H6 5894   3.266   4.464   9.775 -0.9812  1.2572 -1.3410
   47CHL1    C7 5895   3.335   4.435   9.559  0.0507 -0.0533  0.1955
   47CHL1   H7A 5896   3.240   4.478   9.521 -0.3103 -1.9657 -1.1708
   47CHL1   H7B 5897   3.405   4.519   9.541  0.6892 -0.2714  1.5548
   47CHL1    C8 5898   3.381   4.311   9.476 -0.3810  0.0946 -0.6447
   47CHL1    H8 5899   3.296   4.249   9.442 -0.9362  0.5853 -0.1415
   47CHL1   C14 5900   3.456   4.367   9.357  0.6851  0.0788 -0.4492
   47CHL1   H14 5901   3.551   4.402   9.403 -0.9306  2.2225  1.3650
   47CHL1   C15 5902   3.383   4.475   9.267 -0.2456 -0.5221  0.3653
   47CHL1  H15A 5903   3.275   4.449   9.267 -0.1296 -1.0106 -1.0100
   47CHL1  H15B 5904   3.395   4.574   9.317  0.3866 -1.4011  1.9986
   47CHL1   C16 5905   3.454   4.477   9.136  0.4605  0.1782  0.4151
   47CHL1  H16A 5906   3.380   4.479   9.053 -0.1665 -1.0459  0.9315
   47CHL1  H16B 5907   3.518   4.568   9.127  1.9646 -1.1067 -2.4220
   47CHL1   C17 5908   3.559   4.363   9.145  0.3067 -0.0944 -0.2765
   47CHL1   H17 5909   3.645   4.411   9.198 -1.8272  1.9398  1.4558
   47CHL1   C13 5910   3.506   4.264   9.255  0.5049 -0.3938  0.8798
   47CHL1   C18 5911   3.394   4.179   9.195  0.0020 -0.0134 -0.0744
   47CHL1  H18A 5912   3.337   4.244   9.124  0.3764 -0.1486 -0.4972
   47CHL1  H18B 5913   3.448   4.097   9.143 -1.9120 -1.0393 -0.4981
   47CHL1  H18C 5914   3.322   4.134   9.267  0.6123  0.7022  0.9897
   47CHL1   C12 5915   3.601   4.163   9.323  0.6005  0.0433  0.3175
   47CHL1  H12A 5916   3.643   4.087   9.254 -0.1714  0.0464 -0.1665
   47CHL1  H12B 5917   3.689   4.222   9.357  1.7658  0.3935 -3.1102
   47CHL1   C11 5918   3.534   4.106   9.452 -0.5231 -0.2063 -0.2758
   47CHL1  H11A 5919   3.451   4.042   9.418 -0.6288 -0.5319  0.5808
   47CHL1  H11B 5920   3.608   4.038   9.499  0.9320  2.4047  1.4099
   47CHL1    C9 5921   3.476   4.213   9.550  0.3593  0.4423 -0.4145
   47CHL1    H9 5922   3.563   4.275   9.582 -0.1307  0.8172  0.1897
   47CHL1   C10 5923   3.407   4.162   9.678  0.6412  0.3075  0.1556
   47CHL1   C19 5924   3.284   4.071   9.638  0.2359 -0.8098  0.2509
   47CHL1  H19A 5925   3.248   4.010   9.723 -1.1246  1.0618  1.0797
   47CHL1  H19B 5926   3.200   4.133   9.599  2.3194  1.0135 -1.4277
   47CHL1  H19C 5927   3.314   4.011   9.550  0.2623  1.2204 -1.1661
   47CHL1    C1 5928   3.512   4.073   9.755 -0.4544 -1.0733  0.6719
   47CHL1   H1A 5929   3.536   3.983   9.696  0.9458  0.1926 -0.7387
   47CHL1   H1B 5930   3.612   4.121   9.752 -0.8712 -0.0457  2.1484
   47CHL1    C2 5931   3.475   4.034   9.899 -0.0962  0.1765  0.8094
   47CHL1   H2A 5932   3.562   3.977   9.938  0.3509  0.4139  0.1781
   47CHL1   H2B 5933   3.388   3.966   9.887 -0.9912  0.8056  3.4290
   47CHL1   C20 5934   3.620   4.310   9.010 -0.2697  0.2815  0.0474
   47CHL1   H20 5935   3.694   4.236   9.046  0.7391 -0.2179 -2.9754
   47CHL1   C21 5936   3.709   4.432   8.956 -0.5874  0.2172  0.3397
   47CHL1  H21A 5937   3.667   4.534   8.972 -0.0581  0.2899  1.3028
   47CHL1  H21B 5938   3.731   4.411   8.849 -1.8950 -2.1512  0.4930
   47CHL1  H21C 5939   3.804   4.420   9.011 -0.0772  0.8406 -0.4003
   47CHL1   C22 5940   3.518   4.243   8.908  0.6062 -0.1792 -0.5755
   47CHL1  H22A 5941   3.461   4.166   8.964  0.4076  0.2776 -0.1559
   47CHL1  H22B 5942   3.435   4.312   8.879 -0.1723 -0.6066  0.5998
   47CHL1   C23 5943   3.580   4.199   8.779  0.8803  0.5577  1.1043
   47CHL1  H23A 5944   3.633   4.288   8.741  2.1532 -0.2771  0.8881
   47CHL1  H23B 5945   3.668   4.134   8.797  0.2986 -0.4063  0.5188
   47CHL1   C24 5946   3.477   4.129   8.685  0.0202  0.0585  0.5585
   47CHL1  H24A 5947   3.431   4.045   8.741 -2.2284  1.1078  0.3467
   47CHL1  H24B 5948   3.389   4.196   8.671 -1.9125 -2.3952  0.6112
   47CHL1   C25 5949   3.527   4.083   8.552  0.5114  0.3446  0.2472
   47CHL1   H25 5950   3.595   4.001   8.581  1.2578  0.7313 -0.3908
   47CHL1   C26 5951   3.415   4.029   8.459  0.1959 -0.6163  0.6691
   47CHL1  H26A 5952   3.443   3.960   8.376 -2.7224  1.1090 -1.8776
   47CHL1  H26B 5953   3.375   4.116   8.402  0.3869 -1.7049 -1.1520
   47CHL1  H26C 5954   3.324   3.986   8.505 -0.7753  1.9485  1.2741
   47CHL1   C27 5955   3.609   4.188   8.486  0.8789  0.1118  0.1430
   47CHL1  H27A 5956   3.637   4.151   8.386 -1.8126 -0.7464 -0.3264
   47CHL1  H27B 5957   3.554   4.285   8.481 -1.0136 -0.9085  0.4327
   47CHL1  H27C 5958   3.704   4.210   8.538  0.5234 -0.3556  1.0019
   48CHL1    C3 5959   4.292   5.024  10.051  0.4506 -0.2694  0.6515
   48CHL1    H3 5960   4.323   5.121  10.007  1.6800 -1.7038 -1.7596
   48CHL1    O3 5961   4.225   5.063  10.167  0.6922  0.7100  0.1965
   48CHL1   H3' 5962   4.200   4.979  10.208  1.6889  1.1786  1.8323
   48CHL1    C4 5963   4.208   4.941   9.957  0.5356  0.7105  0.1696
   48CHL1   H4A 5964   4.175   4.847  10.006  3.3422  0.9229  2.6010
   48CHL1   H4B 5965   4.120   5.007   9.941 -1.3393 -1.1870  2.3215
   48CHL1    C5 5966   4.286   4.907   9.828 -0.3861 -0.2919  0.0789
   48CHL1    C6 5967   4.242   4.937   9.708 -0.0405  0.0490  0.4046
   48CHL1    H6 5968   4.139   4.975   9.697 -0.0125 -0.4926 -1.9400
   48CHL1    C7 5969   4.303   4.904   9.577 -0.1545 -0.6932  0.3588
   48CHL1   H7A 5970   4.231   4.845   9.515  0.6386 -0.2201 -1.0462
   48CHL1   H7B 5971   4.309   5.001   9.523 -1.2986 -0.8169 -0.0232
   48CHL1    C8 5972   4.432   4.816   9.587  0.4242  0.2108 -0.3550
   48CHL1    H8 5973   4.397   4.711   9.589  0.4099  0.2019 -0.9084
   48CHL1   C14 5974   4.520   4.829   9.464  0.2849  0.2361 -0.3838
   48CHL1   H14 5975   4.558   4.933   9.458 -0.1240  0.3517 -1.0990
   48CHL1   C15 5976   4.463   4.816   9.324  0.3265  0.1045  1.1153
   48CHL1  H15A 5977   4.415   4.715   9.321  0.0914  0.1754  2.2141
   48CHL1  H15B 5978   4.392   4.898   9.301  0.3410  0.3060  1.7718
   48CHL1   C16 5979   4.587   4.809   9.234 -0.8662  0.4152 -0.0270
   48CHL1  H16A 5980   4.581   4.711   9.181  1.4562 -0.2474  0.8864
   48CHL1  H16B 5981   4.611   4.898   9.172  0.1205 -0.0048 -0.2499
   48CHL1   C17 5982   4.706   4.799   9.328 -0.2014 -0.0463 -0.1712
   48CHL1   H17 5983   4.742   4.903   9.343  0.5373  0.0186 -2.2480
   48CHL1   C13 5984   4.658   4.751   9.470  0.4274  0.1380 -0.8141
   48CHL1   C18 5985   4.619   4.599   9.468  0.4102  0.1031  0.8682
   48CHL1  H18A 5986   4.711   4.538   9.457 -1.6781 -2.7608 -1.2442
   48CHL1  H18B 5987   4.561   4.567   9.557  0.7074 -0.6782  0.7839
   48CHL1  H18C 5988   4.564   4.577   9.374 -0.3376 -0.1031  1.3464
   48CHL1   C12 5989   4.730   4.793   9.597 -0.1276  0.1703  0.4169
   48CHL1  H12A 5990   4.826   4.745   9.624  0.4133  0.2438 -1.3256
   48CHL1  H12B 5991   4.755   4.901   9.598  1.7422 -0.1509 -2.9954
   48CHL1   C11 5992   4.644   4.781   9.722  0.2589 -0.5411  0.1423
   48CHL1  H11A 5993   4.627   4.672   9.734 -2.8370 -0.0891  0.3596
   48CHL1  H11B 5994   4.693   4.816   9.816  0.2857  1.0612 -0.4508
   48CHL1    C9 5995   4.508   4.849   9.719 -0.3088  0.0751  0.4519
   48CHL1    H9 5996   4.544   4.953   9.700 -1.6241  0.7417  1.5416
   48CHL1   C10 5997   4.423   4.846   9.849  0.0757  0.0941  0.9172
   48CHL1   C19 5998   4.416   4.700   9.897  0.2991  0.6850 -0.2609
   48CHL1  H19A 5999   4.379   4.685  10.001  0.3310  0.5840 -0.2624
   48CHL1  H19B 6000   4.367   4.642   9.816  1.4985 -0.8313  0.0733
   48CHL1  H19C 6001   4.514   4.648   9.899 -0.2864 -0.4136  0.9402
   48CHL1    C1 6002   4.503   4.927   9.958 -0.6074  0.9711  0.5091
   48CHL1   H1A 6003   4.592   4.873   9.995 -0.8011 -0.4143 -1.0061
   48CHL1   H1B 6004   4.533   5.027   9.918 -0.7303  0.1932 -1.5882
   48CHL1    C2 6005   4.419   4.953  10.086  0.2668 -0.1431  0.2434
   48CHL1   H2A 6006   4.489   5.017  10.145  1.5207 -1.0319 -0.2782
   48CHL1   H2B 6007   4.402   4.854  10.134  0.0266 -0.7610 -1.1148
   48CHL1   C20 6008   4.827   4.729   9.261 -0.3683 -0.2312 -0.0869
   48CHL1   H20 6009   4.801   4.636   9.205 -1.1562 -0.3806  0.5146
   48CHL1   C21 6010   4.942   4.691   9.359 -0.4505  0.0414 -0.3320
   48CHL1  H21A 6011   5.033   4.664   9.301  0.5349  0.3593  1.0434
   48CHL1  H21B 6012   4.909   4.611   9.428  0.0734 -0.0048 -0.1398
   48CHL1  H21C 6013   4.966   4.778   9.424 -1.0014  0.9166 -1.2764
   48CHL1   C22 6014   4.868   4.819   9.141  0.1685 -0.1213  0.4742
   48CHL1  H22A 6015   4.793   4.834   9.061  0.4313  1.1789  0.4472
   48CHL1  H22B 6016   4.882   4.923   9.178  2.1585 -0.1026 -0.2566
   48CHL1   C23 6017   4.993   4.777   9.050  0.4071 -0.0352  0.0436
   48CHL1  H23A 6018   5.034   4.689   9.104  0.5119  0.0133  0.0418
   48CHL1  H23B 6019   4.952   4.741   8.953 -2.9469 -0.2451  1.4561
   48CHL1   C24 6020   5.081   4.902   9.034  0.0449  0.2191  0.3176
   48CHL1  H24A 6021   5.009   4.977   8.996  0.2118 -0.0488 -0.5351
   48CHL1  H24B 6022   5.126   4.934   9.131  1.0075 -0.0602 -0.0275
   48CHL1   C25 6023   5.196   4.875   8.929 -0.0908  1.1467 -0.1627
   48CHL1   H25 6024   5.146   4.827   8.843  2.2007  0.5652 -1.2060
   48CHL1   C26 6025   5.261   5.013   8.896 -0.1724  0.3140 -0.5521
   48CHL1  H26A 6026   5.324   5.058   8.976 -0.1423 -3.1518  1.5102
   48CHL1  H26B 6027   5.322   4.982   8.808 -0.9476 -1.1868 -0.5886
   48CHL1  H26C 6028   5.180   5.078   8.857  1.0909  2.1256 -0.2190
   48CHL1   C27 6029   5.299   4.771   8.980  0.2629  0.3971  0.3975
   48CHL1  H27A 6030   5.386   4.758   8.912 -0.0575 -0.9675  0.2328
   48CHL1  H27B 6031   5.347   4.802   9.076  0.7576 -0.7173  0.5170
   48CHL1  H27C 6032   5.246   4.675   9.001  0.3736 -0.1734 -1.7920
   49CHL1    C3 6033   2.245   0.948  10.214  0.7664  0.1767 -0.3778
   49CHL1    H3 6034   2.309   1.014  10.152  0.2037  1.2921  0.2260
   49CHL1    O3 6035   2.224   0.998  10.346  0.2709  0.1306 -0.0071
   49CHL1   H3' 6036   2.144   0.951  10.373 -0.2144  0.6185 -0.5718
   49CHL1    C4 6037   2.111   0.946  10.146 -0.6510 -0.6350 -0.2301
   49CHL1   H4A 6038   2.051   0.877  10.209 -0.3927 -0.2778  0.4152
   49CHL1   H4B 6039   2.064   1.046  10.152  1.9138  0.5063  2.2621
   49CHL1    C5 6040   2.115   0.888  10.003 -0.2316  0.4690 -0.0666
   49CHL1    C6 6041   2.075   0.954   9.896  0.4052  0.1090  0.5837
   49CHL1    H6 6042   2.024   1.050   9.912 -1.4450 -0.6137 -0.6578
   49CHL1    C7 6043   2.072   0.909   9.758  0.3293  0.2126 -0.5280
   49CHL1   H7A 6044   1.973   0.924   9.711  0.9451  1.1486 -1.5666
   49CHL1   H7B 6045   2.143   0.971   9.698  0.8088  0.7663  0.6005
   49CHL1    C8 6046   2.119   0.767   9.737  0.2078 -0.4905  0.1049
   49CHL1    H8 6047   2.030   0.700   9.741  0.4944 -0.9001 -0.3000
   49CHL1   C14 6048   2.176   0.748   9.597  0.1994 -0.1743  0.1106
   49CHL1   H14 6049   2.267   0.809   9.581 -1.2071  1.9467  0.0336
   49CHL1   C15 6050   2.081   0.796   9.482  0.2284 -0.2009  0.1452
   49CHL1  H15A 6051   1.990   0.742   9.517  0.9032  0.4590  3.0892
   49CHL1  H15B 6052   2.053   0.904   9.484 -1.4252 -0.6197  1.8703
   49CHL1   C16 6053   2.145   0.731   9.359 -0.3553  0.3673 -0.3479
   49CHL1  H16A 6054   2.063   0.679   9.306 -0.4707  0.5021 -0.3026
   49CHL1  H16B 6055   2.204   0.802   9.296 -1.4874  1.8059  0.1887
   49CHL1   C17 6056   2.248   0.619   9.406  0.0871  0.2540 -0.0949
   49CHL1   H17 6057   2.342   0.676   9.392  0.3152 -0.7137 -2.8063
   49CHL1   C13 6058   2.216   0.605   9.552  0.1512 -0.0541 -0.1076
   49CHL1   C18 6059   2.105   0.503   9.570 -0.7432 -0.1364 -0.0580
   49CHL1  H18A 6060   2.140   0.400   9.547 -1.1694  0.0869 -1.8032
   49CHL1  H18B 6061   2.081   0.500   9.678  2.4073  1.3656  0.7479
   49CHL1  H18C 6062   2.016   0.507   9.504 -1.1434  0.0872  0.4965
   49CHL1   C12 6063   2.334   0.573   9.651  0.1447 -0.3617  0.1725
   49CHL1  H12A 6064   2.376   0.470   9.643  1.3821  0.1545 -0.1443
   49CHL1  H12B 6065   2.414   0.647   9.630  0.3127 -0.8062 -0.8340
   49CHL1   C11 6066   2.293   0.590   9.796  0.0184 -0.0006  0.3071
   49CHL1  H11A 6067   2.221   0.511   9.827 -1.2716  0.7022 -0.8122
   49CHL1  H11B 6068   2.379   0.577   9.865 -1.5188 -0.9249  2.1159
   49CHL1    C9 6069   2.233   0.728   9.830 -0.2935 -0.3237 -0.7456
   49CHL1    H9 6070   2.306   0.808   9.810  0.2122 -0.7682 -0.6933
   49CHL1   C10 6071   2.197   0.748   9.983 -0.2946 -0.5822  0.3037
   49CHL1   C19 6072   2.104   0.633  10.027  0.7497 -0.1119 -0.2482
   49CHL1  H19A 6073   2.134   0.527  10.013 -1.3877 -0.9869  1.5296
   49CHL1  H19B 6074   2.095   0.640  10.137 -1.4055  2.3277 -0.5208
   49CHL1  H19C 6075   2.007   0.650   9.975  0.8598  2.8382  0.4123
   49CHL1    C1 6076   2.326   0.761  10.061 -0.5050  0.5180  0.3224
   49CHL1   H1A 6077   2.377   0.663  10.073  0.4146  0.6714 -2.0037
   49CHL1   H1B 6078   2.396   0.835  10.014  1.6777 -1.0146  1.0885
   49CHL1    C2 6079   2.308   0.806  10.210  0.5043  0.5406 -0.0604
   49CHL1   H2A 6080   2.409   0.804  10.255 -0.2518  1.4078  1.6966
   49CHL1   H2B 6081   2.238   0.735  10.260 -1.1109  1.6341 -0.7157
   49CHL1   C20 6082   2.238   0.497   9.317  0.4318  0.4420  0.3767
   49CHL1   H20 6083   2.136   0.453   9.324  1.2517 -1.2272  2.4267
   49CHL1   C21 6084   2.337   0.384   9.362  0.0584  0.4778  0.6662
   49CHL1  H21A 6085   2.310   0.295   9.302 -0.3111 -0.2641  1.9093
   49CHL1  H21B 6086   2.331   0.372   9.473  0.3357 -1.3555  0.5086
   49CHL1  H21C 6087   2.442   0.419   9.346 -0.3965  2.1261  1.2004
   49CHL1   C22 6088   2.258   0.542   9.167  0.4450 -0.2497 -0.6057
   49CHL1  H22A 6089   2.232   0.442   9.126  0.8464 -0.1508 -1.1074
   49CHL1  H22B 6090   2.190   0.626   9.142  0.7437  0.5535  1.1904
   49CHL1   C23 6091   2.409   0.573   9.132 -0.0186  0.4573  0.2183
   49CHL1  H23A 6092   2.427   0.663   9.194  2.8455  0.0136  0.1055
   49CHL1  H23B 6093   2.470   0.487   9.167  1.0948  1.3205  0.4139
   49CHL1   C24 6094   2.432   0.606   8.981  0.0588 -0.2223 -0.0330
   49CHL1  H24A 6095   2.383   0.516   8.938  1.2889  0.0465 -2.1114
   49CHL1  H24B 6096   2.382   0.704   8.970 -0.5961 -0.5073  0.3599
   49CHL1   C25 6097   2.572   0.616   8.935 -0.0598 -0.2828  0.4497
   49CHL1   H25 6098   2.568   0.644   8.828 -0.9966  2.8279  1.2669
   49CHL1   C26 6099   2.654   0.726   9.013 -0.5937 -0.0694  0.7772
   49CHL1  H26A 6100   2.645   0.695   9.120 -1.1469  1.4709  1.1847
   49CHL1  H26B 6101   2.758   0.724   8.974 -0.6136 -0.5587  0.7428
   49CHL1  H26C 6102   2.601   0.822   8.995 -1.1822 -0.6243 -0.4846
   49CHL1   C27 6103   2.651   0.483   8.931  0.4843 -0.2645  0.2079
   49CHL1  H27A 6104   2.589   0.391   8.929  1.2638 -0.7650 -1.0416
   49CHL1  H27B 6105   2.733   0.490   8.856  1.1191 -0.7889  0.8468
   49CHL1  H27C 6106   2.707   0.473   9.026 -0.3360 -0.8200  0.6357
   50CHL1    C3 6107   5.573   2.113  10.053 -0.4299 -0.0761 -0.2206
   50CHL1    H3 6108   5.673   2.066  10.043  0.0071  0.7952 -0.0222
   50CHL1    O3 6109   5.521   2.104  10.185  0.8525  0.3035  0.6876
   50CHL1   H3' 6110   5.515   2.009  10.196  2.1698 -0.0424 -1.3572
   50CHL1    C4 6111   5.576   2.258  10.000 -0.0505  0.5456  0.5731
   50CHL1   H4A 6112   5.494   2.313  10.050 -2.1363  1.0770 -3.2793
   50CHL1   H4B 6113   5.671   2.300  10.042 -1.4158  1.2876  3.0695
   50CHL1    C5 6114   5.583   2.278   9.852 -0.2203 -0.4109  0.4810
   50CHL1    C6 6115   5.664   2.361   9.790  0.1642  0.9059  0.3105
   50CHL1    H6 6116   5.731   2.428   9.846 -0.2853  1.2359  0.4626
   50CHL1    C7 6117   5.665   2.395   9.643  0.0761 -0.3509  0.1235
   50CHL1   H7A 6118   5.665   2.506   9.635 -0.6732 -0.5972 -4.5475
   50CHL1   H7B 6119   5.763   2.359   9.604  1.0730  1.4199  0.9050
   50CHL1    C8 6120   5.549   2.341   9.563 -0.3915  0.3489 -0.4129
   50CHL1    H8 6121   5.462   2.406   9.585  0.0107  0.3642  1.2515
   50CHL1   C14 6122   5.581   2.342   9.413  0.6545 -0.1054 -0.2593
   50CHL1   H14 6123   5.663   2.269   9.397 -0.1782 -0.9766 -0.5379
   50CHL1   C15 6124   5.637   2.468   9.351 -0.4294  0.1320  0.0109
   50CHL1  H15A 6125   5.568   2.552   9.373 -0.1262  0.1518  0.8926
   50CHL1  H15B 6126   5.739   2.480   9.393  0.3610 -1.0024 -1.5318
   50CHL1   C16 6127   5.627   2.430   9.198  0.7265 -0.0571  0.4689
   50CHL1  H16A 6128   5.576   2.520   9.159  0.2642 -0.1109  0.9316
   50CHL1  H16B 6129   5.722   2.410   9.145 -0.5719 -1.7550 -1.2917
   50CHL1   C17 6130   5.542   2.307   9.183  0.3662  0.0240 -0.0831
   50CHL1   H17 6131   5.616   2.226   9.163 -0.8869 -1.2367  0.2741
   50CHL1   C13 6132   5.475   2.280   9.320  0.6674 -0.2260  1.2905
   50CHL1   C18 6133   5.342   2.352   9.327  0.0749 -0.2480 -0.3105
   50CHL1  H18A 6134   5.354   2.461   9.308  1.4344 -0.8186 -2.9877
   50CHL1  H18B 6135   5.258   2.318   9.263  0.5888 -0.8660 -0.6616
   50CHL1  H18C 6136   5.298   2.342   9.428 -2.6572  0.6452 -1.3630
   50CHL1   C12 6137   5.452   2.132   9.371 -0.0281  0.2744  0.1510
   50CHL1  H12A 6138   5.365   2.079   9.325 -0.0465  0.6601 -0.2620
   50CHL1  H12B 6139   5.540   2.066   9.356 -2.6246 -3.5067  0.7390
   50CHL1   C11 6140   5.421   2.123   9.519  0.1257  0.1482 -0.3840
   50CHL1  H11A 6141   5.316   2.158   9.524 -0.3270 -1.0559 -1.1850
   50CHL1  H11B 6142   5.410   2.015   9.545 -0.5606  0.6591  1.5410
   50CHL1    C9 6143   5.517   2.201   9.616  0.1760 -0.1304  0.6327
   50CHL1    H9 6144   5.612   2.145   9.602  0.7950  0.9919  0.2248
   50CHL1   C10 6145   5.493   2.185   9.773  0.5340  0.1082  0.8842
   50CHL1   C19 6146   5.348   2.245   9.800  0.0454 -0.1097 -0.3727
   50CHL1  H19A 6147   5.270   2.189   9.745 -0.5886  0.5651 -0.1715
   50CHL1  H19B 6148   5.330   2.244   9.910 -0.3757  1.1396 -0.4156
   50CHL1  H19C 6149   5.340   2.350   9.765 -0.8649  0.7986  2.4023
   50CHL1    C1 6150   5.516   2.033   9.820  0.2462 -0.3066 -0.4232
   50CHL1   H1A 6151   5.460   1.960   9.757 -0.1427 -1.7266  1.5450
   50CHL1   H1B 6152   5.624   2.008   9.812 -0.3710 -2.7241 -1.8038
   50CHL1    C2 6153   5.483   2.017   9.967 -0.7004 -0.1390 -0.4068
   50CHL1   H2A 6154   5.519   1.914   9.988  3.2782  1.2569 -0.0063
   50CHL1   H2B 6155   5.374   2.037   9.975 -1.1366 -1.0977 -3.2270
   50CHL1   C20 6156   5.454   2.314   9.057 -0.1097 -0.0545  0.5428
   50CHL1   H20 6157   5.373   2.389   9.063 -1.6792 -1.7678  0.9734
   50CHL1   C21 6158   5.378   2.179   9.044 -0.9529 -0.1306  0.1314
   50CHL1  H21A 6159   5.310   2.179   8.956 -0.8280 -0.8037  0.0287
   50CHL1  H21B 6160   5.308   2.165   9.129 -1.9784  4.5849  0.1806
   50CHL1  H21C 6161   5.449   2.093   9.045 -1.3571 -0.4659  2.3814
   50CHL1   C22 6162   5.545   2.349   8.938  0.1830 -0.1496  0.1196
   50CHL1  H22A 6163   5.577   2.455   8.945  0.5596 -0.0352 -2.7047
   50CHL1  H22B 6164   5.630   2.280   8.922 -1.7314 -2.1568 -1.7848
   50CHL1   C23 6165   5.466   2.311   8.808  0.2660 -0.3452 -0.7038
   50CHL1  H23A 6166   5.457   2.202   8.793  1.3422 -0.3297 -1.5662
   50CHL1  H23B 6167   5.361   2.345   8.823  0.8325  0.7611  0.9570
   50CHL1   C24 6168   5.526   2.379   8.682 -0.3256 -0.4457 -0.3059
   50CHL1  H24A 6169   5.527   2.490   8.686 -2.0180 -0.4094 -0.7505
   50CHL1  H24B 6170   5.633   2.349   8.675  0.0853  0.6484  1.0700
   50CHL1   C25 6171   5.458   2.331   8.550  0.0133 -0.5215  0.0810
   50CHL1   H25 6172   5.463   2.221   8.562 -1.8435 -0.2805  3.5990
   50CHL1   C26 6173   5.313   2.368   8.536 -0.0083  0.5153 -0.0178
   50CHL1  H26A 6174   5.263   2.316   8.621  0.4718 -0.6177 -0.4143
   50CHL1  H26B 6175   5.300   2.477   8.550 -0.6691  0.3324  0.8122
   50CHL1  H26C 6176   5.261   2.339   8.441  0.0514  2.8294 -0.7907
   50CHL1   C27 6177   5.541   2.369   8.433  0.3134 -0.3061 -0.2268
   50CHL1  H27A 6178   5.487   2.328   8.346  0.6565 -1.2840  0.0112
   50CHL1  H27B 6179   5.547   2.479   8.417  0.5015 -0.2358  0.2935
   50CHL1  H27C 6180   5.641   2.322   8.432  0.7746  0.7003 -1.5583
   51CHL1    C3 6181   6.800   5.164  10.474  0.5385 -0.2969  0.5559
   51CHL1    H3 6182   6.858   5.108  10.398 -2.3063 -1.7660 -0.6328
   51CHL1    O3 6183   6.827   5.144  10.610  0.4051  0.1827  0.0049
   51CHL1   H3' 6184   6.909   5.186  10.638  1.3616 -0.8123 -1.2681
   51CHL1    C4 6185   6.824   5.316  10.445 -0.0816 -0.4735  0.1083
   51CHL1   H4A 6186   6.764   5.372  10.520  1.0230 -0.3682  0.9210
   51CHL1   H4B 6187   6.929   5.341  10.469 -0.4076 -0.5381  1.6427
   51CHL1    C5 6188   6.772   5.361  10.308 -0.0151 -0.6734 -0.9053
   51CHL1    C6 6189   6.849   5.439  10.226 -0.1241 -0.6450  0.7813
   51CHL1    H6 6190   6.938   5.482  10.275 -1.0162 -0.1475  1.9772
   51CHL1    C7 6191   6.832   5.477  10.082  0.6517  0.8772 -0.2754
   51CHL1   H7A 6192   6.862   5.583  10.068 -0.3847  1.2148  0.0180
   51CHL1   H7B 6193   6.907   5.418  10.023  0.0992  0.7528 -0.8616
   51CHL1    C8 6194   6.690   5.435  10.040  0.7430 -0.7170 -0.1463
   51CHL1    H8 6195   6.612   5.504  10.080  1.2183 -0.8424  1.0091
   51CHL1   C14 6196   6.688   5.432   9.889  0.1166 -0.3933 -0.2145
   51CHL1   H14 6197   6.755   5.348   9.864  2.4102  0.5263  2.5492
   51CHL1   C15 6198   6.737   5.558   9.816  0.1270  0.8792  0.0440
   51CHL1  H15A 6199   6.699   5.641   9.880 -0.8800 -0.0783  0.6934
   51CHL1  H15B 6200   6.846   5.580   9.816  0.3369  0.1457  3.2580
   51CHL1   C16 6201   6.671   5.554   9.674 -0.6492 -1.2113  0.8496
   51CHL1  H16A 6202   6.607   5.642   9.653  2.2644  0.2901 -2.1658
   51CHL1  H16B 6203   6.752   5.547   9.598 -1.8194  0.2362 -0.5619
   51CHL1   C17 6204   6.572   5.427   9.676  0.1163  0.1477  0.3619
   51CHL1   H17 6205   6.619   5.335   9.636 -0.4008 -0.3457  0.8731
   51CHL1   C13 6206   6.552   5.402   9.830  0.2970 -0.4926  0.3141
   51CHL1   C18 6207   6.438   5.497   9.874  0.1102  0.1817 -0.1650
   51CHL1  H18A 6208   6.341   5.462   9.835  0.4819  0.9691 -1.8222
   51CHL1  H18B 6209   6.426   5.486   9.984 -0.1122 -1.7592 -0.3573
   51CHL1  H18C 6210   6.468   5.600   9.847  1.6826 -0.0187  0.7224
   51CHL1   C12 6211   6.520   5.253   9.875  0.1802 -0.5813  0.6851
   51CHL1  H12A 6212   6.415   5.233   9.843  0.6988  0.2318 -1.5399
   51CHL1  H12B 6213   6.593   5.199   9.812  1.5249  1.4389  0.4739
   51CHL1   C11 6214   6.524   5.236  10.028  0.7634 -0.1464  0.0633
   51CHL1  H11A 6215   6.425   5.276  10.060  0.2694 -1.6706  0.5090
   51CHL1  H11B 6216   6.524   5.128  10.056  2.9067  0.1141  1.1023
   51CHL1    C9 6217   6.645   5.294  10.099  0.2141 -0.0197  0.0863
   51CHL1    H9 6218   6.730   5.228  10.074 -0.2501 -0.7676  0.4454
   51CHL1   C10 6219   6.641   5.298  10.253 -0.1580 -0.1308 -0.0297
   51CHL1   C19 6220   6.517   5.375  10.314  0.4373  0.3792  0.4147
   51CHL1  H19A 6221   6.423   5.333  10.273  0.4106  2.3561 -1.6718
   51CHL1  H19B 6222   6.523   5.370  10.424  1.2759 -0.5474  0.3321
   51CHL1  H19C 6223   6.513   5.483  10.285  1.0984  0.9365  2.3337
   51CHL1    C1 6224   6.640   5.148  10.300 -0.7198  0.9131  0.1529
   51CHL1   H1A 6225   6.539   5.112  10.272 -0.4151  0.1920 -0.0396
   51CHL1   H1B 6226   6.717   5.089  10.247 -0.1192  1.3577  0.5270
   51CHL1    C2 6227   6.658   5.117  10.450  0.2188 -0.1968 -0.0284
   51CHL1   H2A 6228   6.657   5.007  10.462  1.3898 -0.0847  1.1896
   51CHL1   H2B 6229   6.580   5.162  10.516  0.4168  0.5101 -0.2788
   51CHL1   C20 6230   6.437   5.454   9.593 -1.0472  0.3039  0.3027
   51CHL1   H20 6231   6.372   5.535   9.634  0.9948  1.6914  0.9407
   51CHL1   C21 6232   6.360   5.324   9.582 -0.3052  0.3528  0.4043
   51CHL1  H21A 6233   6.417   5.238   9.544 -1.0399 -0.1578  0.4461
   51CHL1  H21B 6234   6.291   5.345   9.497  1.9744  0.7869 -1.3696
   51CHL1  H21C 6235   6.299   5.309   9.674 -1.4076  2.0154 -0.0174
   51CHL1   C22 6236   6.468   5.503   9.452  0.3066  0.0278 -0.0862
   51CHL1  H22A 6237   6.370   5.520   9.404 -0.7139 -0.3953  1.8030
   51CHL1  H22B 6238   6.515   5.602   9.471 -0.0019 -0.0219  0.9723
   51CHL1   C23 6239   6.561   5.427   9.360 -0.0346 -0.9553  0.3433
   51CHL1  H23A 6240   6.656   5.414   9.416  0.7045 -1.2514 -0.9631
   51CHL1  H23B 6241   6.523   5.326   9.333 -1.9425  0.0082 -0.6848
   51CHL1   C24 6242   6.591   5.498   9.231 -0.0438  0.2780  0.2754
   51CHL1  H24A 6243   6.490   5.503   9.185 -0.1641  2.2806  0.6972
   51CHL1  H24B 6244   6.627   5.601   9.255 -2.0784  1.2699 -0.7686
   51CHL1   C25 6245   6.683   5.436   9.118 -0.2677 -0.5968 -0.0012
   51CHL1   H25 6246   6.658   5.508   9.037 -3.5674 -0.1305  1.3660
   51CHL1   C26 6247   6.832   5.446   9.167 -0.3379 -0.6987 -0.4161
   51CHL1  H26A 6248   6.899   5.438   9.079  1.1639 -0.1230  0.6396
   51CHL1  H26B 6249   6.849   5.546   9.212 -2.0835 -0.0407 -1.1900
   51CHL1  H26C 6250   6.860   5.361   9.234 -1.2669 -1.6068 -1.1734
   51CHL1   C27 6251   6.649   5.293   9.081  0.1894  0.2258  0.3947
   51CHL1  H27A 6252   6.707   5.254   8.994 -2.2518  0.6055 -1.4527
   51CHL1  H27B 6253   6.682   5.229   9.165  2.3374  0.2010 -0.4313
   51CHL1  H27C 6254   6.541   5.287   9.056 -0.5728 -1.5558  3.8494
   52CHL1    C3 6255   3.064   3.497  10.024  0.2782 -0.5785 -0.3360
   52CHL1    H3 6256   3.003   3.411   9.989 -0.4997 -0.4626  0.6819
   52CHL1    O3 6257   3.067   3.502  10.171 -0.2926  0.5430  0.1917
   52CHL1   H3' 6258   3.130   3.568  10.203 -0.8736  1.5117 -0.6278
   52CHL1    C4 6259   3.213   3.484   9.974 -0.1672  0.3940 -0.0345
   52CHL1   H4A 6260   3.280   3.565  10.009  1.0774 -0.2870 -0.7850
   52CHL1   H4B 6261   3.239   3.386  10.019 -1.0408 -0.4166 -1.2541
   52CHL1    C5 6262   3.218   3.491   9.824 -0.2211 -0.1139  0.5429
   52CHL1    C6 6263   3.279   3.396   9.754  0.3920 -0.4854  0.4151
   52CHL1    H6 6264   3.305   3.304   9.808 -2.4682 -0.6499  1.6008
   52CHL1    C7 6265   3.305   3.400   9.611  0.1290 -0.0645 -0.2498
   52CHL1   H7A 6266   3.410   3.366   9.596  1.0612  1.4071  2.6038
   52CHL1   H7B 6267   3.237   3.327   9.563 -0.7728 -0.3201  1.4152
   52CHL1    C8 6268   3.272   3.535   9.547  0.3944 -0.0542 -0.8076
   52CHL1    H8 6269   3.346   3.613   9.577 -1.5488  1.4295  0.1915
   52CHL1   C14 6270   3.274   3.535   9.390 -0.3918  0.4296  0.6139
   52CHL1   H14 6271   3.190   3.461   9.384 -0.6817  0.8567 -0.7942
   52CHL1   C15 6272   3.397   3.481   9.322 -0.1502 -0.1302 -0.7488
   52CHL1  H15A 6273   3.488   3.531   9.361 -0.2554  0.3998 -1.1739
   52CHL1  H15B 6274   3.406   3.371   9.316 -1.1555 -0.2766  0.3236
   52CHL1   C16 6275   3.380   3.536   9.178  0.2493 -0.4652 -0.0287
   52CHL1  H16A 6276   3.479   3.576   9.147 -0.0685  1.1649  1.0115
   52CHL1  H16B 6277   3.354   3.455   9.107 -2.7811  0.4144  0.0206
   52CHL1   C17 6278   3.259   3.637   9.181  0.5197 -0.6372  0.3293
   52CHL1   H17 6279   3.175   3.576   9.142  1.2051  0.2356 -2.6566
   52CHL1   C13 6280   3.233   3.668   9.328 -0.4827 -0.6987  0.1263
   52CHL1   C18 6281   3.321   3.785   9.376 -0.0667  0.0097 -0.6153
   52CHL1  H18A 6282   3.279   3.878   9.333  0.2719 -0.0372 -1.0454
   52CHL1  H18B 6283   3.314   3.797   9.486  2.8233 -0.5705 -0.3107
   52CHL1  H18C 6284   3.430   3.765   9.365  0.1905 -0.0417  1.7041
   52CHL1   C12 6285   3.088   3.699   9.370 -0.1321  0.5768  0.6945
   52CHL1  H12A 6286   3.053   3.794   9.324  0.8822  0.5726 -0.0856
   52CHL1  H12B 6287   3.022   3.614   9.342 -0.1805  1.5890 -2.5058
   52CHL1   C11 6288   3.082   3.712   9.523  0.0022  0.3655  0.9456
   52CHL1  H11A 6289   3.131   3.805   9.558  1.1216 -0.2006  0.9169
   52CHL1  H11B 6290   2.974   3.728   9.542 -0.4209 -1.7665  0.5120
   52CHL1    C9 6291   3.138   3.585   9.604  0.1210  0.3579  0.0919
   52CHL1    H9 6292   3.062   3.505   9.597  1.5071 -0.7572 -2.3650
   52CHL1   C10 6293   3.152   3.611   9.759  0.0412 -0.1289 -0.1759
   52CHL1   C19 6294   3.230   3.741   9.783  0.2354  0.5233 -0.5725
   52CHL1  H19A 6295   3.177   3.833   9.754  1.9060  1.4515 -0.7609
   52CHL1  H19B 6296   3.246   3.748   9.892 -0.8942 -2.7447 -0.1514
   52CHL1  H19C 6297   3.331   3.735   9.736  0.2965 -0.4368 -0.3350
   52CHL1    C1 6298   3.013   3.635   9.819  0.1897 -0.2880 -0.0816
   52CHL1   H1A 6299   2.967   3.730   9.786 -3.0338 -1.1811  1.5945
   52CHL1   H1B 6300   2.943   3.558   9.779 -1.3509  0.0283  1.9236
   52CHL1    C2 6301   3.003   3.621   9.971  0.6174 -0.3226  0.0138
   52CHL1   H2A 6302   2.896   3.618   9.998  0.8054  0.6167  0.8919
   52CHL1   H2B 6303   3.053   3.711  10.014  0.3018  0.6467 -1.5773
   52CHL1   C20 6304   3.280   3.752   9.072  0.0657  0.1303  0.3322
   52CHL1   H20 6305   3.370   3.807   9.108  0.4263 -0.3716  0.2136
   52CHL1   C21 6306   3.166   3.846   9.061  0.5838 -0.0507 -0.1545
   52CHL1  H21A 6307   3.146   3.897   9.158 -0.3903 -2.9782  1.2774
   52CHL1  H21B 6308   3.076   3.795   9.020  0.4367  1.3103 -1.5436
   52CHL1  H21C 6309   3.188   3.930   8.993  3.6476 -0.3847  0.3544
   52CHL1   C22 6310   3.307   3.700   8.928  0.8063 -0.2357 -0.7467
   52CHL1  H22A 6311   3.311   3.789   8.861 -0.0792  1.7539  1.7348
   52CHL1  H22B 6312   3.408   3.655   8.917  0.9652 -0.0540 -0.0485
   52CHL1   C23 6313   3.199   3.605   8.871 -0.7106  0.8645 -0.4999
   52CHL1  H23A 6314   3.186   3.513   8.931  0.2218 -0.4773 -2.2990
   52CHL1  H23B 6315   3.106   3.666   8.864 -0.8360  0.8950  1.1920
   52CHL1   C24 6316   3.229   3.547   8.730  0.4543  0.0579 -0.3761
   52CHL1  H24A 6317   3.235   3.642   8.672 -2.5645 -0.6302 -1.9022
   52CHL1  H24B 6318   3.328   3.498   8.722 -0.0174 -0.6351 -2.0943
   52CHL1   C25 6319   3.129   3.444   8.681 -0.1941 -0.3314  0.3446
   52CHL1   H25 6320   3.030   3.479   8.718  0.5941  0.7773  1.4364
   52CHL1   C26 6321   3.136   3.449   8.522  0.2867  0.9333 -0.7427
   52CHL1  H26A 6322   3.136   3.552   8.480  0.5512  1.7267  1.1445
   52CHL1  H26B 6323   3.234   3.410   8.489  0.8394  1.5415  0.1521
   52CHL1  H26C 6324   3.059   3.389   8.469 -0.8990  2.0404 -0.3103
   52CHL1   C27 6325   3.143   3.296   8.724 -0.5518 -0.0173 -0.3027
   52CHL1  H27A 6326   3.071   3.221   8.685 -0.5103 -0.8212  1.1376
   52CHL1  H27B 6327   3.243   3.249   8.710 -0.3896  0.5639 -1.1237
   52CHL1  H27C 6328   3.127   3.286   8.834 -2.5281  1.1960 -0.4579
   53CHL1    C3 6329   4.665   3.118  10.084  0.0363 -0.0142  0.9222
   53CHL1    H3 6330   4.554   3.120  10.079 -0.0182 -1.6185  1.1230
   53CHL1    O3 6331   4.709   3.138  10.214 -0.2385  0.3024  0.2763
   53CHL1   H3' 6332   4.801   3.111  10.206 -0.4352 -0.4848  0.6639
   53CHL1    C4 6333   4.714   2.969  10.046  0.2140 -0.0463 -1.1143
   53CHL1   H4A 6334   4.825   2.977  10.040  0.3757 -1.6182 -0.6894
   53CHL1   H4B 6335   4.688   2.897  10.127 -0.8497 -0.0845 -1.4772
   53CHL1    C5 6336   4.665   2.928   9.907  0.2246 -0.1616  0.4923
   53CHL1    C6 6337   4.591   2.816   9.895 -0.8600  0.5706  0.3677
   53CHL1    H6 6338   4.574   2.749   9.980  2.0795 -2.0189 -0.9735
   53CHL1    C7 6339   4.526   2.772   9.764 -0.0790 -0.2017 -0.1098
   53CHL1   H7A 6340   4.551   2.665   9.749 -3.6919 -1.2813  1.0636
   53CHL1   H7B 6341   4.415   2.780   9.768 -0.1941 -2.2573  1.3126
   53CHL1    C8 6342   4.571   2.850   9.640 -0.1930 -0.0195  0.0941
   53CHL1    H8 6343   4.668   2.811   9.602 -0.2908 -0.1627 -0.0079
   53CHL1   C14 6344   4.483   2.834   9.517 -0.3028  0.0615 -0.5825
   53CHL1   H14 6345   4.378   2.860   9.542 -0.5805 -1.7366  0.1823
   53CHL1   C15 6346   4.470   2.692   9.465  0.2443 -1.1944 -0.1860
   53CHL1  H15A 6347   4.572   2.648   9.479  0.8018  0.0587 -0.2746
   53CHL1  H15B 6348   4.405   2.623   9.524  0.1742 -0.1295  0.9861
   53CHL1   C16 6349   4.431   2.700   9.321  0.0736 -1.4434 -0.4047
   53CHL1  H16A 6350   4.508   2.641   9.267 -0.0175 -2.5035  0.6025
   53CHL1  H16B 6351   4.326   2.666   9.305 -0.6341  0.5338 -0.1046
   53CHL1   C17 6352   4.443   2.852   9.280 -0.6573  0.9129  0.2783
   53CHL1   H17 6353   4.340   2.890   9.296 -2.0407 -2.7237  0.5417
   53CHL1   C13 6354   4.530   2.913   9.395 -0.3670  0.3541  0.2312
   53CHL1   C18 6355   4.682   2.879   9.356  0.2782  0.2573  0.1475
   53CHL1  H18A 6356   4.716   2.958   9.286  0.3696 -2.8754 -3.4723
   53CHL1  H18B 6357   4.745   2.882   9.447 -1.3895 -3.2741  1.5402
   53CHL1  H18C 6358   4.694   2.777   9.313  0.2814 -0.1845  1.1780
   53CHL1   C12 6359   4.508   3.058   9.428 -0.0188 -0.6329 -0.0539
   53CHL1  H12A 6360   4.540   3.130   9.350 -1.9101 -0.0612 -0.3223
   53CHL1  H12B 6361   4.402   3.076   9.458 -0.2086  1.5172 -1.9099
   53CHL1   C11 6362   4.580   3.104   9.562  0.2331  0.3633 -0.7217
   53CHL1  H11A 6363   4.683   3.129   9.527  0.0393  1.3331 -0.6170
   53CHL1  H11B 6364   4.541   3.198   9.605 -0.2096 -0.6923  1.2351
   53CHL1    C9 6365   4.570   3.000   9.675 -0.2404  0.7136  0.4032
   53CHL1    H9 6366   4.475   3.019   9.729 -0.9388 -1.3202 -0.0686
   53CHL1   C10 6367   4.676   3.034   9.785 -0.0103 -0.0361 -0.7935
   53CHL1   C19 6368   4.815   3.024   9.725 -0.4202 -0.4653  1.3629
   53CHL1  H19A 6369   4.896   3.028   9.802 -0.2547 -0.9960  1.2161
   53CHL1  H19B 6370   4.823   2.931   9.666 -0.6863  0.2196  0.2395
   53CHL1  H19C 6371   4.834   3.112   9.660  2.6602 -0.1474  2.5971
   53CHL1    C1 6372   4.656   3.181   9.842 -0.3129  0.3060 -1.0919
   53CHL1   H1A 6373   4.704   3.247   9.767  0.7172 -1.4790 -2.0393
   53CHL1   H1B 6374   4.549   3.212   9.843 -0.0671  1.1662  0.8521
   53CHL1    C2 6375   4.713   3.219   9.977  0.1379  0.2340 -1.1615
   53CHL1   H2A 6376   4.675   3.320  10.004  1.2737  0.8494 -1.7949
   53CHL1   H2B 6377   4.824   3.213   9.971  0.2968 -0.4726  1.5762
   53CHL1   C20 6378   4.473   2.881   9.131 -0.7918 -0.1571  0.2053
   53CHL1   H20 6379   4.582   2.897   9.116 -0.8038 -0.9097 -0.7090
   53CHL1   C21 6380   4.402   3.013   9.103 -0.3711 -1.1704  0.5990
   53CHL1  H21A 6381   4.415   3.088   9.184  0.8150 -1.7262  0.9305
   53CHL1  H21B 6382   4.297   2.992   9.071 -0.2570  0.2029 -0.7806
   53CHL1  H21C 6383   4.451   3.055   9.012 -0.1792 -0.8016  0.8713
   53CHL1   C22 6384   4.425   2.780   9.029 -0.2494 -0.0567  0.0878
   53CHL1  H22A 6385   4.460   2.678   9.057  0.9772 -0.1799 -1.7754
   53CHL1  H22B 6386   4.314   2.779   9.035 -0.4237  2.3268 -1.8569
   53CHL1   C23 6387   4.479   2.789   8.883  0.2244  0.2699 -0.7051
   53CHL1  H23A 6388   4.410   2.747   8.806  0.5101 -1.0114 -0.2572
   53CHL1  H23B 6389   4.477   2.900   8.872  1.1496  0.5574  1.7626
   53CHL1   C24 6390   4.619   2.743   8.864 -0.4175  0.1221  0.1372
   53CHL1  H24A 6391   4.692   2.792   8.933 -0.8731  2.1209 -0.7616
   53CHL1  H24B 6392   4.634   2.633   8.872  2.9696  0.5473  0.5029
   53CHL1   C25 6393   4.678   2.770   8.716 -0.7079  0.4330 -0.0876
   53CHL1   H25 6394   4.596   2.726   8.655 -1.4549 -0.7309  1.7235
   53CHL1   C26 6395   4.686   2.925   8.695 -0.1219 -0.1893 -0.0015
   53CHL1  H26A 6396   4.721   2.933   8.590 -2.2790 -0.5760 -0.7748
   53CHL1  H26B 6397   4.588   2.976   8.703 -0.6146 -1.0021 -0.8030
   53CHL1  H26C 6398   4.771   2.961   8.757 -0.8567 -0.6376  1.2720
   53CHL1   C27 6399   4.806   2.691   8.672  0.7487 -0.1399  0.0791
   53CHL1  H27A 6400   4.894   2.712   8.736  1.1701 -1.6123 -0.0180
   53CHL1  H27B 6401   4.789   2.581   8.672  1.7043 -0.3095  2.7707
   53CHL1  H27C 6402   4.826   2.726   8.568  1.2977  0.7913  0.4898
   54CHL1    C3 6403   3.938   4.276  10.197  0.2428  0.3540  0.5110
   54CHL1    H3 6404   4.035   4.223  10.205  0.9721  1.3528 -1.5341
   54CHL1    O3 6405   3.886   4.299  10.328 -0.0054 -0.2930 -0.4978
   54CHL1   H3' 6406   3.829   4.224  10.349 -0.7242  0.1328 -0.8885
   54CHL1    C4 6407   3.941   4.409  10.132  0.0752  0.2755  0.1726
   54CHL1   H4A 6408   3.841   4.458  10.132  0.1997  0.5907 -2.1844
   54CHL1   H4B 6409   3.996   4.485  10.191 -0.2241  0.3960  0.2953
   54CHL1    C5 6410   3.976   4.402   9.983  0.0713  0.1528  0.1118
   54CHL1    C6 6411   4.083   4.463   9.939 -0.3926 -0.0297  0.2922
   54CHL1    H6 6412   4.128   4.528  10.016 -0.3831 -1.6239  1.6724
   54CHL1    C7 6413   4.130   4.466   9.799 -0.0179 -0.8691  0.1956
   54CHL1   H7A 6414   4.147   4.567   9.755 -1.1602 -0.8288 -0.1755
   54CHL1   H7B 6415   4.218   4.400   9.788  0.5012 -0.3038  0.8763
   54CHL1    C8 6416   4.032   4.400   9.700  0.3557  0.4485  0.5702
   54CHL1    H8 6417   3.951   4.472   9.675 -2.1019 -1.9462  1.2637
   54CHL1   C14 6418   4.105   4.358   9.574  0.2781 -0.4332  0.0434
   54CHL1   H14 6419   4.177   4.282   9.613  0.9605 -0.2990 -0.9419
   54CHL1   C15 6420   4.189   4.464   9.499 -0.2622 -0.5280 -0.3068
   54CHL1  H15A 6421   4.158   4.570   9.500  0.7705 -0.2305  1.7129
   54CHL1  H15B 6422   4.289   4.448   9.544 -0.5698 -3.4244 -0.5209
   54CHL1   C16 6423   4.184   4.416   9.357 -0.6928 -0.5025 -0.3267
   54CHL1  H16A 6424   4.147   4.495   9.288 -1.3134 -0.2598  0.2736
   54CHL1  H16B 6425   4.290   4.407   9.327 -1.4100 -2.0713 -2.5037
   54CHL1   C17 6426   4.100   4.282   9.350  0.0163  0.1598  0.4468
   54CHL1   H17 6427   4.168   4.199   9.379 -1.1083 -0.6929  0.6416
   54CHL1   C13 6428   4.009   4.302   9.469 -0.0340  0.5459  0.1277
   54CHL1   C18 6429   3.896   4.403   9.430  0.1463  0.7418 -0.2485
   54CHL1  H18A 6430   3.834   4.378   9.341  3.0789  0.8974 -2.4624
   54CHL1  H18B 6431   3.828   4.436   9.511  1.1822 -0.0584  0.9654
   54CHL1  H18C 6432   3.951   4.494   9.396  0.8827 -0.9056 -3.6973
   54CHL1   C12 6433   3.953   4.171   9.530  1.4347 -0.2493  0.4551
   54CHL1  H12A 6434   3.869   4.121   9.476 -1.3245  1.6690  2.7713
   54CHL1  H12B 6435   4.035   4.100   9.553  0.7054 -1.6008 -1.0095
   54CHL1   C11 6436   3.876   4.188   9.668 -0.2656  0.6761  0.0374
   54CHL1  H11A 6437   3.779   4.233   9.638 -1.1897 -1.3342 -0.0954
   54CHL1  H11B 6438   3.861   4.087   9.712  1.0533  0.6277  0.3925
   54CHL1    C9 6439   3.967   4.274   9.765  0.3145 -1.1458  0.2275
   54CHL1    H9 6440   4.056   4.211   9.789  0.5074 -1.9108 -2.2799
   54CHL1   C10 6441   3.892   4.306   9.897 -0.4637  0.1356 -0.3289
   54CHL1   C19 6442   3.757   4.380   9.873  0.5203 -0.4441 -0.0970
   54CHL1  H19A 6443   3.694   4.305   9.821 -1.0678  0.4628  0.5066
   54CHL1  H19B 6444   3.706   4.413   9.965 -0.1419  0.6196 -0.8423
   54CHL1  H19C 6445   3.760   4.471   9.809 -0.5265 -0.9295 -0.8499
   54CHL1    C1 6446   3.871   4.172   9.977 -0.1205  0.3215 -0.1018
   54CHL1   H1A 6447   3.787   4.120   9.926 -0.5658  0.9738 -0.0373
   54CHL1   H1B 6448   3.959   4.106   9.987 -0.7367 -0.4647  0.1393
   54CHL1    C2 6449   3.831   4.192  10.125 -0.2847  0.1985 -0.3404
   54CHL1   H2A 6450   3.814   4.096  10.178 -1.1583  2.1202  2.9839
   54CHL1   H2B 6451   3.732   4.239  10.140  0.5166  1.2835  1.6275
   54CHL1   C20 6452   4.050   4.245   9.211 -0.1192 -0.5824  0.6550
   54CHL1   H20 6453   3.967   4.317   9.189 -0.3120 -0.8780  0.4114
   54CHL1   C21 6454   3.989   4.102   9.210 -0.1170  0.1383  0.3613
   54CHL1  H21A 6455   4.076   4.038   9.237  1.4284  1.8314 -0.3997
   54CHL1  H21B 6456   3.956   4.083   9.106 -0.3560  2.7340 -0.0776
   54CHL1  H21C 6457   3.907   4.095   9.284 -0.6619  1.2944 -0.1219
   54CHL1   C22 6458   4.149   4.265   9.095  0.0501 -0.1375  0.3138
   54CHL1  H22A 6459   4.209   4.358   9.110  0.7092 -0.3543 -0.9276
   54CHL1  H22B 6460   4.214   4.175   9.089 -0.1845 -0.1187 -5.2550
   54CHL1   C23 6461   4.073   4.282   8.959  0.3004 -0.3656 -0.2041
   54CHL1  H23A 6462   4.010   4.191   8.949 -1.0755  0.5943 -0.5757
   54CHL1  H23B 6463   4.016   4.378   8.969 -2.0966 -1.7974  0.2635
   54CHL1   C24 6464   4.165   4.286   8.835 -0.0643 -0.7160  0.1570
   54CHL1  H24A 6465   4.256   4.342   8.864  0.0183  0.1109 -1.6516
   54CHL1  H24B 6466   4.191   4.188   8.789  1.7560 -0.9408  1.6169
   54CHL1   C25 6467   4.096   4.359   8.716  0.4070  0.1127  0.6542
   54CHL1   H25 6468   4.056   4.452   8.763 -1.1222 -0.5409  0.6736
   54CHL1   C26 6469   4.197   4.381   8.601  0.6110  0.1958  0.0393
   54CHL1  H26A 6470   4.291   4.426   8.637  1.1323 -0.0040 -1.0454
   54CHL1  H26B 6471   4.226   4.283   8.557  0.4558  0.3878 -0.4951
   54CHL1  H26C 6472   4.148   4.446   8.525  0.2073  0.5411  0.5919
   54CHL1   C27 6473   3.977   4.275   8.667  0.4978  0.3119 -0.0696
   54CHL1  H27A 6474   4.010   4.173   8.640 -2.8441 -1.0180  0.6586
   54CHL1  H27B 6475   3.896   4.262   8.742 -0.3769 -0.9182 -1.2183
   54CHL1  H27C 6476   3.924   4.325   8.583 -0.9869  0.0697  0.7024
   55CHL1    C3 6477   4.928   1.846  10.104 -0.4967 -0.3476  0.3233
   55CHL1    H3 6478   4.849   1.769  10.097 -0.5815 -0.1961 -0.5088
   55CHL1    O3 6479   4.928   1.875  10.246 -0.2921 -0.0693 -0.2174
   55CHL1   H3' 6480   4.997   1.940  10.260  0.3509 -1.1663  1.9455
   55CHL1    C4 6481   5.066   1.795  10.066  0.7261 -0.1697  0.3797
   55CHL1   H4A 6482   5.142   1.870  10.097 -1.6702  1.4693  2.4852
   55CHL1   H4B 6483   5.089   1.707  10.130  0.5918 -1.6025 -1.4789
   55CHL1    C5 6484   5.062   1.747   9.915 -0.3510 -0.3535 -0.2608
   55CHL1    C6 6485   5.098   1.622   9.880  0.0301  0.0196  0.4709
   55CHL1    H6 6486   5.121   1.549   9.959 -1.6372 -1.1985 -0.1606
   55CHL1    C7 6487   5.115   1.592   9.737  0.1279  0.4537  0.3339
   55CHL1   H7A 6488   5.207   1.533   9.719  0.0877  0.0392  1.4705
   55CHL1   H7B 6489   5.028   1.528   9.712  2.4293 -1.9015 -1.8518
   55CHL1    C8 6490   5.097   1.712   9.629  0.2297  0.9782 -0.7939
   55CHL1    H8 6491   5.202   1.748   9.632  0.8826 -0.8457 -0.9639
   55CHL1   C14 6492   5.057   1.656   9.497 -0.4967 -0.4897 -0.2266
   55CHL1   H14 6493   4.957   1.610   9.512  0.2132 -1.2759  2.4411
   55CHL1   C15 6494   5.132   1.540   9.444 -0.1785 -0.5875  0.7723
   55CHL1  H15A 6495   5.242   1.560   9.446 -0.2393  0.1269 -1.7048
   55CHL1  H15B 6496   5.115   1.444   9.497 -1.4498 -1.5826 -1.3745
   55CHL1   C16 6497   5.101   1.540   9.286 -0.5479 -0.5586  0.3289
   55CHL1  H16A 6498   5.191   1.530   9.223 -1.5091  0.7481 -1.2783
   55CHL1  H16B 6499   5.034   1.455   9.262 -1.3910  0.0019  0.6557
   55CHL1   C17 6500   5.016   1.673   9.260  0.3676 -0.7773  0.5164
   55CHL1   H17 6501   4.912   1.636   9.267  0.5637 -1.4295  0.0429
   55CHL1   C13 6502   5.045   1.755   9.383 -0.5395 -0.0336 -0.4843
   55CHL1   C18 6503   5.187   1.820   9.362  0.0474  0.4129  0.0750
   55CHL1  H18A 6504   5.262   1.742   9.338 -2.0258 -0.7079 -3.1452
   55CHL1  H18B 6505   5.186   1.897   9.282  1.3702  0.0314 -0.3252
   55CHL1  H18C 6506   5.208   1.888   9.447  1.4521  2.3420 -1.7793
   55CHL1   C12 6507   4.948   1.865   9.432 -0.4312  0.1389 -0.3157
   55CHL1  H12A 6508   4.960   1.948   9.359 -0.5330  0.6913  0.2897
   55CHL1  H12B 6509   4.847   1.819   9.442  0.4769 -1.4050  2.4240
   55CHL1   C11 6510   4.966   1.920   9.578 -0.2404 -0.2508  0.1548
   55CHL1  H11A 6511   5.048   1.996   9.577 -1.5719  1.1924 -1.0118
   55CHL1  H11B 6512   4.873   1.976   9.603  0.1040  0.7927 -0.8462
   55CHL1    C9 6513   4.988   1.807   9.678  0.4680 -0.7105 -0.4674
   55CHL1    H9 6514   4.892   1.752   9.689  0.0531 -0.1195 -1.0846
   55CHL1   C10 6515   5.018   1.865   9.820  0.2963  1.4504  0.5688
   55CHL1   C19 6516   5.134   1.971   9.813 -0.4003  0.1012  0.2423
   55CHL1  H19A 6517   5.223   1.928   9.762 -2.7712 -1.5284 -2.7154
   55CHL1  H19B 6518   5.092   2.054   9.752  0.1526  0.5605  0.4820
   55CHL1  H19C 6519   5.158   2.009   9.914  0.9931  0.3291 -0.1598
   55CHL1    C1 6520   4.886   1.934   9.875  0.6317  0.2506  0.5005
   55CHL1   H1A 6521   4.848   2.024   9.823 -3.6649 -1.5778  0.2858
   55CHL1   H1B 6522   4.818   1.846   9.871  1.2199 -0.1234 -4.7050
   55CHL1    C2 6523   4.897   1.976  10.024 -0.3996 -0.0894  0.1552
   55CHL1   H2A 6524   4.800   2.024  10.048  0.1205  1.7700 -1.3368
   55CHL1   H2B 6525   4.982   2.044  10.047  1.4138 -2.0803 -0.4613
   55CHL1   C20 6526   5.037   1.733   9.118 -0.7781 -0.1901  0.2714
   55CHL1   H20 6527   5.145   1.743   9.094 -1.2299 -1.4448 -2.4238
   55CHL1   C21 6528   4.968   1.870   9.096  0.2752 -0.9830 -0.4004
   55CHL1  H21A 6529   5.020   1.951   9.152 -0.3368  0.8738 -2.4256
   55CHL1  H21B 6530   4.864   1.846   9.128  0.0468  2.2840  1.4898
   55CHL1  H21C 6531   4.981   1.911   8.993 -0.7309  1.5563  0.4364
   55CHL1   C22 6532   4.996   1.631   9.008 -0.2993  0.4511  0.0907
   55CHL1  H22A 6533   5.044   1.662   8.913  0.7998  1.0126  0.8327
   55CHL1  H22B 6534   5.048   1.536   9.034  1.6523  1.1527 -1.1728
   55CHL1   C23 6535   4.845   1.609   8.979  0.4768  0.5933 -0.4244
   55CHL1  H23A 6536   4.793   1.565   9.067 -0.8185  1.9328 -0.5164
   55CHL1  H23B 6537   4.803   1.709   8.956 -1.7775 -0.5858 -1.5945
   55CHL1   C24 6538   4.822   1.517   8.852  0.1816  1.0041 -0.2445
   55CHL1  H24A 6539   4.868   1.567   8.764 -0.4711  1.0047 -0.5863
   55CHL1  H24B 6540   4.876   1.423   8.875  0.7904  1.4526  0.1920
   55CHL1   C25 6541   4.684   1.481   8.815 -0.5262  0.4564  0.1107
   55CHL1   H25 6542   4.634   1.450   8.909 -1.3512 -0.6705 -0.6844
   55CHL1   C26 6543   4.601   1.604   8.752 -0.6617 -0.3959 -0.2865
   55CHL1  H26A 6544   4.490   1.598   8.759 -0.7345 -2.2006 -2.3947
   55CHL1  H26B 6545   4.630   1.696   8.808  0.0567  0.4052 -1.9443
   55CHL1  H26C 6546   4.635   1.595   8.647  0.6623 -0.8796  0.1747
   55CHL1   C27 6547   4.684   1.361   8.725  0.2192  0.2079  0.0501
   55CHL1  H27A 6548   4.740   1.382   8.631 -3.2239  1.5802 -1.8180
   55CHL1  H27B 6549   4.731   1.272   8.770 -2.6302 -1.8200 -0.8168
   55CHL1  H27C 6550   4.579   1.342   8.694 -0.1004 -2.6715  2.7186
   56CHL1    C3 6551   2.820   0.654  10.219 -1.4126 -0.1813 -0.3114
   56CHL1    H3 6552   2.924   0.667  10.255  0.5408 -3.0328 -4.4107
   56CHL1    O3 6553   2.750   0.629  10.337  0.2206  0.2020 -0.2852
   56CHL1   H3' 6554   2.663   0.608  10.302 -0.2739  0.7139  0.6343
   56CHL1    C4 6555   2.761   0.779  10.142 -0.2178  1.1324 -0.2757
   56CHL1   H4A 6556   2.651   0.769  10.141 -0.1900  0.8730 -0.5841
   56CHL1   H4B 6557   2.779   0.859  10.217  0.4619 -0.6788  1.5446
   56CHL1    C5 6558   2.825   0.796  10.009 -0.2728  1.1429  0.4646
   56CHL1    C6 6559   2.897   0.906   9.975  0.1779 -0.7549 -0.0159
   56CHL1    H6 6560   2.897   0.986  10.051  0.6322  0.2662 -1.0719
   56CHL1    C7 6561   2.949   0.938   9.836  0.1067  0.1377  0.1085
   56CHL1   H7A 6562   2.904   1.036   9.810 -0.8906  0.1971  1.9638
   56CHL1   H7B 6563   3.060   0.933   9.827 -0.0944 -0.6991 -2.2908
   56CHL1    C8 6564   2.885   0.832   9.743  0.3731 -0.3551 -0.3137
   56CHL1    H8 6565   2.777   0.855   9.736  0.6493  1.0348 -0.2415
   56CHL1   C14 6566   2.964   0.855   9.609 -0.3003  0.1202  0.0612
   56CHL1   H14 6567   3.067   0.828   9.640 -1.1855 -1.3926  1.7726
   56CHL1   C15 6568   2.978   0.999   9.542  0.2090  0.1766  0.0377
   56CHL1  H15A 6569   2.884   1.051   9.572 -0.1665 -1.0287  0.9929
   56CHL1  H15B 6570   3.070   1.046   9.582  1.7786 -1.0436 -2.0525
   56CHL1   C16 6571   2.993   0.967   9.393 -0.0192  0.6063  0.2523
   56CHL1  H16A 6572   2.902   0.998   9.336 -0.5304  0.8854  1.1979
   56CHL1  H16B 6573   3.081   1.022   9.353 -2.2881  2.1783 -2.8318
   56CHL1   C17 6574   2.993   0.803   9.384 -0.7231 -0.2924  0.3483
   56CHL1   H17 6575   3.099   0.768   9.386 -0.2562  1.0943  0.5342
   56CHL1   C13 6576   2.911   0.757   9.504  0.4734 -0.2026  0.1620
   56CHL1   C18 6577   2.766   0.789   9.473  0.1156  0.6911 -0.4023
   56CHL1  H18A 6578   2.725   0.705   9.412 -0.0850  2.3250 -2.5606
   56CHL1  H18B 6579   2.693   0.798   9.557  1.1946  2.1736  0.3995
   56CHL1  H18C 6580   2.755   0.883   9.415 -0.5930  0.5334 -0.5303
   56CHL1   C12 6581   2.946   0.622   9.562  0.1374 -0.4158  0.4913
   56CHL1  H12A 6582   2.907   0.551   9.486 -1.4629  0.7131  0.2370
   56CHL1  H12B 6583   3.054   0.600   9.575 -0.0468 -1.0864  0.8861
   56CHL1   C11 6584   2.879   0.585   9.692 -0.4750 -0.0397 -0.1474
   56CHL1  H11A 6585   2.771   0.577   9.668 -0.8608  1.3309  1.0141
   56CHL1  H11B 6586   2.917   0.487   9.729  1.8403 -0.3720 -3.2759
   56CHL1    C9 6587   2.897   0.693   9.797 -0.1400  0.1701  0.4725
   56CHL1    H9 6588   3.002   0.673   9.828 -0.0691  0.5450  0.4707
   56CHL1   C10 6589   2.810   0.668   9.923 -0.0018  0.0598 -0.6241
   56CHL1   C19 6590   2.656   0.655   9.882  0.2815  0.2306 -0.3626
   56CHL1  H19A 6591   2.637   0.573   9.809 -2.9130 -0.8552  1.5401
   56CHL1  H19B 6592   2.583   0.644   9.965 -0.6804 -1.2713 -1.3900
   56CHL1  H19C 6593   2.632   0.752   9.834 -0.1652 -0.2692 -1.1725
   56CHL1    C1 6594   2.856   0.539   9.991  0.8504 -0.1513 -0.1315
   56CHL1   H1A 6595   2.821   0.451   9.933 -2.7741 -0.0491  1.7088
   56CHL1   H1B 6596   2.966   0.544   9.993  1.0795 -3.1707 -1.8955
   56CHL1    C2 6597   2.807   0.526  10.136  0.8120  0.2688 -0.5932
   56CHL1   H2A 6598   2.840   0.430  10.183 -0.3860 -0.2434 -0.7752
   56CHL1   H2B 6599   2.697   0.520  10.128  0.6668  3.9332 -2.4877
   56CHL1   C20 6600   2.964   0.758   9.236 -0.0050  0.1899 -0.2856
   56CHL1   H20 6601   2.865   0.806   9.218 -0.8102 -1.5811 -0.7895
   56CHL1   C21 6602   2.943   0.605   9.223  0.4053 -0.4076  0.0042
   56CHL1  H21A 6603   3.045   0.565   9.241 -0.1997 -1.0243  2.1875
   56CHL1  H21B 6604   2.915   0.594   9.116 -2.5143  0.3115  0.6508
   56CHL1  H21C 6605   2.869   0.551   9.286  1.4985  0.9628  2.5449
   56CHL1   C22 6606   3.067   0.814   9.139 -0.0942 -0.4553 -0.0382
   56CHL1  H22A 6607   3.082   0.923   9.152  3.1657 -0.7813 -0.5628
   56CHL1  H22B 6608   3.164   0.765   9.163 -0.2384 -1.0151 -0.6019
   56CHL1   C23 6609   3.042   0.790   8.983 -0.7487 -0.9452 -0.5029
   56CHL1  H23A 6610   3.018   0.684   8.963  1.3379 -0.9009 -3.6084
   56CHL1  H23B 6611   2.957   0.856   8.954 -0.2679 -0.0357  0.1341
   56CHL1   C24 6612   3.164   0.814   8.891  0.1634 -0.1376 -0.6771
   56CHL1  H24A 6613   3.196   0.915   8.925 -0.7247  0.1535 -0.6941
   56CHL1  H24B 6614   3.236   0.736   8.923 -0.4341 -0.5572 -0.3319
   56CHL1   C25 6615   3.160   0.802   8.738 -0.2521  0.1391  0.3849
   56CHL1   H25 6616   3.138   0.696   8.712  0.0729 -0.0154  0.7513
   56CHL1   C26 6617   3.064   0.892   8.658  0.5340 -0.5748  0.3187
   56CHL1  H26A 6618   3.107   0.994   8.649  3.2229 -1.9041 -2.8370
   56CHL1  H26B 6619   3.055   0.867   8.550 -1.5481  0.4249  0.2365
   56CHL1  H26C 6620   2.963   0.893   8.705 -0.1111 -0.7008 -1.0246
   56CHL1   C27 6621   3.309   0.823   8.687 -0.0551  0.5656 -0.0005
   56CHL1  H27A 6622   3.376   0.774   8.762 -0.2581  1.0025  0.4696
   56CHL1  H27B 6623   3.325   0.786   8.584  1.3553  0.4960  0.2365
   56CHL1  H27C 6624   3.334   0.931   8.686  3.9829 -0.2747  0.7463
   57CHL1    C3 6625   5.445   2.989  10.430 -0.0206 -0.4328  0.4433
   57CHL1    H3 6626   5.356   2.925  10.451 -1.3692  1.7524  1.5888
   57CHL1    O3 6627   5.517   3.026  10.542 -0.1163  0.1858 -0.5621
   57CHL1   H3' 6628   5.574   3.094  10.504 -0.4178  1.5326  1.3291
   57CHL1    C4 6629   5.537   2.912  10.332  0.7733 -0.3843  0.2009
   57CHL1   H4A 6630   5.612   2.991  10.309  0.9810 -1.4037 -2.8188
   57CHL1   H4B 6631   5.588   2.837  10.396 -0.4868 -0.6976  0.8527
   57CHL1    C5 6632   5.485   2.859  10.197  0.4621 -0.0195 -1.0963
   57CHL1    C6 6633   5.473   2.733  10.161  0.2000 -0.5874  0.3594
   57CHL1    H6 6634   5.512   2.654  10.227 -1.3402  0.8275  3.0589
   57CHL1    C7 6635   5.423   2.692  10.027  0.1893 -0.5555  0.2134
   57CHL1   H7A 6636   5.492   2.613   9.989 -1.6521 -2.5423  0.9125
   57CHL1   H7B 6637   5.319   2.652  10.029 -0.4802  1.0719 -0.7214
   57CHL1    C8 6638   5.409   2.809   9.924  0.4436  1.0874  0.0188
   57CHL1    H8 6639   5.509   2.839   9.886  1.0959 -0.6368  0.3509
   57CHL1   C14 6640   5.322   2.766   9.808 -0.1278 -0.0776  0.1929
   57CHL1   H14 6641   5.221   2.739   9.847 -1.3025  1.7180 -1.5089
   57CHL1   C15 6642   5.376   2.649   9.728 -0.3502 -0.3918  0.0573
   57CHL1  H15A 6643   5.486   2.663   9.719 -0.2839  0.1728  1.4731
   57CHL1  H15B 6644   5.356   2.560   9.792  2.5854 -0.9596  0.2790
   57CHL1   C16 6645   5.307   2.649   9.594  0.2663 -0.4311 -0.2120
   57CHL1  H16A 6646   5.386   2.667   9.518  1.3047  2.6763  1.4989
   57CHL1  H16B 6647   5.242   2.561   9.579  1.1481 -1.1527  0.1693
   57CHL1   C17 6648   5.226   2.786   9.586  0.7910  0.0480  0.1296
   57CHL1   H17 6649   5.123   2.766   9.624  2.1288 -2.1896  2.7111
   57CHL1   C13 6650   5.294   2.872   9.699 -0.7120  0.8170 -0.3469
   57CHL1   C18 6651   5.433   2.927   9.642  0.5420  0.5657 -0.1729
   57CHL1  H18A 6652   5.509   2.963   9.714 -1.8988  1.9187  1.7788
   57CHL1  H18B 6653   5.483   2.854   9.574  0.4604  0.4826 -0.1420
   57CHL1  H18C 6654   5.415   3.008   9.567  0.2848 -1.7150 -2.6569
   57CHL1   C12 6655   5.215   2.984   9.763  0.2724  0.5837  0.6056
   57CHL1  H12A 6656   5.197   3.065   9.689 -2.0435  0.8945  1.4678
   57CHL1  H12B 6657   5.116   2.953   9.803 -1.4513  1.6277 -2.6355
   57CHL1   C11 6658   5.290   3.041   9.886 -0.0326  0.2201 -0.4531
   57CHL1  H11A 6659   5.385   3.090   9.856 -0.0220  0.7322  0.4114
   57CHL1  H11B 6660   5.225   3.116   9.936 -0.2222 -0.7509  0.7750
   57CHL1    C9 6661   5.338   2.933   9.990  0.4509  0.1630  0.5511
   57CHL1    H9 6662   5.244   2.893  10.034 -0.0561 -0.7344 -1.2871
   57CHL1   C10 6663   5.423   2.974  10.112 -0.5745  0.5907 -0.2796
   57CHL1   C19 6664   5.536   3.069  10.058  0.2176 -0.0371 -0.0087
   57CHL1  H19A 6665   5.604   3.103  10.138  0.2540 -1.0042  0.3855
   57CHL1  H19B 6666   5.590   3.008   9.982 -1.2616  0.7121 -1.6993
   57CHL1  H19C 6667   5.483   3.162  10.029 -1.5323  0.3139  3.9866
   57CHL1    C1 6668   5.333   3.066  10.214  0.2183 -0.0335  0.2475
   57CHL1   H1A 6669   5.307   3.155  10.152  1.5466 -1.0656 -1.8578
   57CHL1   H1B 6670   5.242   3.002  10.227  0.4308 -0.5934 -0.9219
   57CHL1    C2 6671   5.395   3.112  10.348  0.1711 -0.1879  0.0377
   57CHL1   H2A 6672   5.326   3.165  10.417 -0.6596  0.2489 -1.1043
   57CHL1   H2B 6673   5.486   3.174  10.337 -0.0783  0.4740  1.5839
   57CHL1   C20 6674   5.203   2.836   9.439 -0.6207 -1.0428 -0.2964
   57CHL1   H20 6675   5.300   2.882   9.410  0.3699 -2.9096  0.0040
   57CHL1   C21 6676   5.102   2.946   9.440 -0.1587 -0.3064 -0.0837
   57CHL1  H21A 6677   5.015   2.922   9.505 -1.1814  1.6458 -0.6923
   57CHL1  H21B 6678   5.065   2.967   9.338  0.9861  1.3047 -0.1914
   57CHL1  H21C 6679   5.132   3.042   9.487  0.1420  0.0927 -1.0750
   57CHL1   C22 6680   5.171   2.728   9.337 -0.4191  0.0122 -0.2376
   57CHL1  H22A 6681   5.251   2.651   9.339  0.6356  0.9828 -2.3199
   57CHL1  H22B 6682   5.073   2.678   9.348 -1.0497  1.1774 -0.4123
   57CHL1   C23 6683   5.179   2.787   9.194  0.0678  0.2988  0.2977
   57CHL1  H23A 6684   5.086   2.836   9.159  0.6754  1.3193  0.0893
   57CHL1  H23B 6685   5.256   2.866   9.183  1.6400 -1.2441 -0.0777
   57CHL1   C24 6686   5.202   2.680   9.082 -0.4380 -0.1531  0.1974
   57CHL1  H24A 6687   5.306   2.644   9.095 -0.7853 -1.3855 -0.3315
   57CHL1  H24B 6688   5.133   2.594   9.093 -1.1241  0.4397  0.5884
   57CHL1   C25 6689   5.184   2.739   8.937 -0.0419 -0.5637 -0.6718
   57CHL1   H25 6690   5.078   2.772   8.927 -0.0069 -1.1416 -3.1731
   57CHL1   C26 6691   5.286   2.840   8.902 -0.2219  0.3393  0.6412
   57CHL1  H26A 6692   5.272   2.890   8.804  0.9857  1.3636  0.9767
   57CHL1  H26B 6693   5.282   2.920   8.979  1.9765  1.0744  0.0412
   57CHL1  H26C 6694   5.391   2.806   8.914 -0.0943  0.4358 -0.1887
   57CHL1   C27 6695   5.205   2.621   8.839 -0.2075  0.2536 -0.5569
   57CHL1  H27A 6696   5.313   2.595   8.834  0.0876  1.4648 -0.5518
   57CHL1  H27B 6697   5.145   2.534   8.872  1.9929 -1.1222 -0.0339
   57CHL1  H27C 6698   5.158   2.635   8.739  1.5503  2.1124 -1.1722
   58CHL1    C3 6699   1.294   1.862  10.092  0.4877  0.6546  0.0456
   58CHL1    H3 6700   1.217   1.929  10.049 -2.0103 -2.9868 -1.4760
   58CHL1    O3 6701   1.285   1.842  10.232 -0.3155 -0.3102  0.3580
   58CHL1   H3' 6702   1.338   1.909  10.276 -0.6670  0.1490  0.0801
   58CHL1    C4 6703   1.247   1.731  10.018 -0.2137 -0.3759 -0.0642
   58CHL1   H4A 6704   1.306   1.648  10.062 -0.9132 -0.5238  0.6221
   58CHL1   H4B 6705   1.139   1.715  10.040 -0.6592 -1.2514 -2.7137
   58CHL1    C5 6706   1.271   1.731   9.867  0.3658  0.4903 -0.1872
   58CHL1    C6 6707   1.175   1.705   9.777  0.2621 -0.7139  0.2678
   58CHL1    H6 6708   1.081   1.670   9.821 -0.7167 -0.5726 -1.6612
   58CHL1    C7 6709   1.178   1.713   9.626 -0.6158  0.0549 -0.3937
   58CHL1   H7A 6710   1.153   1.613   9.586  0.2456  0.2096 -1.3296
   58CHL1   H7B 6711   1.117   1.793   9.579 -0.3789 -1.6084 -3.6543
   58CHL1    C8 6712   1.329   1.725   9.579  0.2332  0.0291  0.3217
   58CHL1    H8 6713   1.370   1.622   9.579 -0.8830 -0.4299  0.6046
   58CHL1   C14 6714   1.343   1.775   9.437 -0.2210  0.0179  0.5491
   58CHL1   H14 6715   1.295   1.875   9.432  0.6780  0.4499  0.3301
   58CHL1   C15 6716   1.270   1.691   9.333 -0.1241 -0.5449 -0.6781
   58CHL1  H15A 6717   1.255   1.581   9.341  0.0867 -0.5520 -0.3694
   58CHL1  H15B 6718   1.169   1.734   9.319 -0.1731 -0.9384 -1.5158
   58CHL1   C16 6719   1.349   1.728   9.202 -0.5689  0.5346 -0.1525
   58CHL1  H16A 6720   1.384   1.643   9.140  0.5045  0.4307  0.5690
   58CHL1  H16B 6721   1.297   1.790   9.126 -0.5686 -1.8636 -2.1600
   58CHL1   C17 6722   1.471   1.815   9.241  0.3556  0.4142 -0.9244
   58CHL1   H17 6723   1.442   1.921   9.231  0.7969  0.5032 -1.2774
   58CHL1   C13 6724   1.488   1.782   9.392  0.3455  0.2375  1.0043
   58CHL1   C18 6725   1.577   1.653   9.407  0.9129  0.0751  0.3236
   58CHL1  H18A 6726   1.568   1.607   9.508 -0.1781 -1.0555 -0.2605
   58CHL1  H18B 6727   1.540   1.576   9.337 -0.6488  2.9594 -2.1177
   58CHL1  H18C 6728   1.683   1.669   9.381  0.6655 -0.2712 -0.9321
   58CHL1   C12 6729   1.546   1.901   9.469 -0.9328  0.6370  0.3151
   58CHL1  H12A 6730   1.650   1.922   9.438 -1.1212 -1.9148 -2.3394
   58CHL1  H12B 6731   1.488   1.995   9.459 -0.1202  0.9914 -1.1923
   58CHL1   C11 6732   1.547   1.863   9.625 -0.1068 -0.6562 -0.3732
   58CHL1  H11A 6733   1.618   1.779   9.643  0.2776 -0.9304 -3.0298
   58CHL1  H11B 6734   1.597   1.945   9.681 -0.8098  0.7208 -1.7387
   58CHL1    C9 6735   1.404   1.825   9.678 -0.6943 -0.1317 -0.2961
   58CHL1    H9 6736   1.346   1.919   9.680  0.7246  0.7173  2.7326
   58CHL1   C10 6737   1.409   1.781   9.822 -0.1563  0.0492  0.7838
   58CHL1   C19 6738   1.497   1.655   9.832 -0.3977 -0.0829  0.1562
   58CHL1  H19A 6739   1.605   1.678   9.833  0.1807 -2.6344 -1.5268
   58CHL1  H19B 6740   1.484   1.611   9.934 -1.6105  2.0858  0.9692
   58CHL1  H19C 6741   1.472   1.577   9.757 -0.4477  0.3117 -0.2406
   58CHL1    C1 6742   1.463   1.906   9.911  0.1453  0.5575 -0.7279
   58CHL1   H1A 6743   1.573   1.918   9.907  0.3630 -0.5893  1.0993
   58CHL1   H1B 6744   1.414   1.995   9.868 -0.3277  1.3933  1.4973
   58CHL1    C2 6745   1.436   1.903  10.065  0.0286  0.1368 -0.6832
   58CHL1   H2A 6746   1.468   1.989  10.126 -0.6276 -0.0104 -0.1234
   58CHL1   H2B 6747   1.500   1.819  10.099  1.5730  1.9457  0.9215
   58CHL1   C20 6748   1.589   1.800   9.147 -0.6089 -0.0247  0.0878
   58CHL1   H20 6749   1.635   1.700   9.164 -1.7793 -0.5962 -0.0358
   58CHL1   C21 6750   1.706   1.895   9.174  0.2706  0.0748 -0.0271
   58CHL1  H21A 6751   1.777   1.901   9.089 -1.5258  0.6854 -1.5031
   58CHL1  H21B 6752   1.764   1.858   9.262  1.3433  0.8223 -0.4116
   58CHL1  H21C 6753   1.669   1.997   9.194 -1.0734 -0.6795  1.4889
   58CHL1   C22 6754   1.545   1.828   8.998  0.9358 -0.5371 -0.3460
   58CHL1  H22A 6755   1.639   1.828   8.938  1.6327 -2.2686  0.6981
   58CHL1  H22B 6756   1.484   1.745   8.957  2.0634 -0.4979 -2.1372
   58CHL1   C23 6757   1.477   1.963   8.973 -0.7821 -0.1160 -0.1003
   58CHL1  H23A 6758   1.374   1.980   9.010  0.2893  2.3548  1.9166
   58CHL1  H23B 6759   1.539   2.041   9.023 -0.5065 -0.6069  0.3188
   58CHL1   C24 6760   1.459   2.001   8.820 -0.2318 -0.1401  0.3566
   58CHL1  H24A 6761   1.561   1.987   8.776 -0.4672  1.3185 -0.6792
   58CHL1  H24B 6762   1.395   1.923   8.773 -0.9116  0.0914  0.9010
   58CHL1   C25 6763   1.429   2.153   8.793  0.2990 -0.0711 -0.1635
   58CHL1   H25 6764   1.337   2.170   8.853 -1.1379  1.0743 -2.6154
   58CHL1   C26 6765   1.547   2.241   8.833  0.4206 -0.4835 -0.2781
   58CHL1  H26A 6766   1.530   2.346   8.802 -2.1690 -0.3538  1.4027
   58CHL1  H26B 6767   1.548   2.244   8.944  3.5881  1.3207 -0.2909
   58CHL1  H26C 6768   1.640   2.198   8.789  0.2396  0.0262 -1.1697
   58CHL1   C27 6769   1.390   2.185   8.650 -0.2868 -0.4783  0.2029
   58CHL1  H27A 6770   1.307   2.116   8.625 -0.3616 -0.4880  0.4730
   58CHL1  H27B 6771   1.353   2.289   8.645  0.7799  0.1269  3.3116
   58CHL1  H27C 6772   1.478   2.177   8.583 -1.0636 -3.1201 -0.5655
   59CHL1    C3 6773   0.721   0.468  10.173 -0.2208 -0.1239  0.1385
   59CHL1    H3 6774   0.666   0.378  10.206  0.3939 -0.2877  0.7176
   59CHL1    O3 6775   0.771   0.535  10.294 -0.2467 -0.1233  0.0773
   59CHL1   H3' 6776   0.781   0.626  10.265  2.6701 -0.3081  0.3430
   59CHL1    C4 6777   0.833   0.412  10.077  0.6728  0.1299  0.5641
   59CHL1   H4A 6778   0.915   0.482  10.052  1.4342 -0.9282  0.0556
   59CHL1   H4B 6779   0.890   0.330  10.126  0.0544 -0.3584  0.4790
   59CHL1    C5 6780   0.771   0.365   9.945  0.0391  0.0370 -0.5410
   59CHL1    C6 6781   0.796   0.238   9.905 -0.0666 -0.3084 -0.0807
   59CHL1    H6 6782   0.861   0.182   9.974 -0.2720 -0.0566  0.3191
   59CHL1    C7 6783   0.753   0.173   9.777  0.4130  0.8674  0.0815
   59CHL1   H7A 6784   0.843   0.124   9.733 -0.5488  1.4293 -2.6021
   59CHL1   H7B 6785   0.674   0.102   9.810 -0.5702  1.9758  0.1224
   59CHL1    C8 6786   0.711   0.272   9.677  0.6877 -0.3451 -0.0311
   59CHL1    H8 6787   0.802   0.315   9.631  1.3487 -0.4900  1.1292
   59CHL1   C14 6788   0.611   0.214   9.572 -0.4985 -0.7535 -0.4683
   59CHL1   H14 6789   0.518   0.182   9.624  0.7617 -1.1063  1.6318
   59CHL1   C15 6790   0.655   0.084   9.501 -0.5719 -0.3969 -0.0553
   59CHL1  H15A 6791   0.762   0.108   9.483 -0.9363  0.8891 -0.5725
   59CHL1  H15B 6792   0.632  -0.006   9.560 -1.4026 -0.7487 -0.8855
   59CHL1   C16 6793   0.582   0.088   9.369  0.1806  0.1679 -0.0946
   59CHL1  H16A 6794   0.665   0.089   9.295 -0.4601 -1.4252 -0.8728
   59CHL1  H16B 6795   0.529  -0.007   9.348  0.5701  0.0186 -0.4137
   59CHL1   C17 6796   0.494   0.212   9.371 -0.4938  0.4571  0.6584
   59CHL1   H17 6797   0.398   0.188   9.422 -0.5159 -0.4331  0.2123
   59CHL1   C13 6798   0.567   0.311   9.456 -0.2925  0.1218  0.1540
   59CHL1   C18 6799   0.682   0.372   9.377  0.1462 -0.0738  0.3625
   59CHL1  H18A 6800   0.736   0.290   9.324  0.6257 -0.8517  2.0253
   59CHL1  H18B 6801   0.643   0.450   9.309 -1.1345  1.2600  2.5937
   59CHL1  H18C 6802   0.756   0.412   9.450  1.0216 -1.0061  0.0044
   59CHL1   C12 6803   0.487   0.413   9.531  0.3602 -0.2255  0.1952
   59CHL1  H12A 6804   0.455   0.489   9.457 -1.6740 -1.5286 -0.3192
   59CHL1  H12B 6805   0.403   0.362   9.582  0.4610  0.1620  0.7578
   59CHL1   C11 6806   0.580   0.485   9.631  0.2391 -0.3061 -0.3173
   59CHL1  H11A 6807   0.670   0.535   9.589 -1.7583  2.8273 -1.0307
   59CHL1  H11B 6808   0.523   0.566   9.681 -0.8909 -0.9185 -0.6079
   59CHL1    C9 6809   0.626   0.387   9.734  0.3348  0.7566  0.1956
   59CHL1    H9 6810   0.538   0.336   9.778  1.3753 -1.8103 -0.5944
   59CHL1   C10 6811   0.689   0.459   9.855  0.3556  0.0045 -0.2729
   59CHL1   C19 6812   0.788   0.581   9.811  0.2711  0.3122 -0.3156
   59CHL1  H19A 6813   0.848   0.610   9.901 -0.5764  1.7817 -0.2112
   59CHL1  H19B 6814   0.864   0.554   9.735  3.9779 -1.8253  3.8836
   59CHL1  H19C 6815   0.726   0.661   9.766 -0.3824 -0.7925 -1.3881
   59CHL1    C1 6816   0.580   0.513   9.947  1.0966 -0.0702  0.2424
   59CHL1   H1A 6817   0.515   0.593   9.906  0.6181  0.1843  1.4571
   59CHL1   H1B 6818   0.509   0.430   9.969  0.4262  0.2548 -0.6598
   59CHL1    C2 6819   0.629   0.561  10.089  0.4641 -0.2297 -0.0108
   59CHL1   H2A 6820   0.540   0.574  10.155  0.8237 -1.3598  0.7185
   59CHL1   H2B 6821   0.664   0.663  10.062 -0.2100  0.7385  2.5864
   59CHL1   C20 6822   0.448   0.249   9.225 -0.4227  0.3016 -0.8522
   59CHL1   H20 6823   0.547   0.263   9.177 -0.3327 -0.2164 -0.8240
   59CHL1   C21 6824   0.373   0.389   9.218  0.3668  0.1881  0.1217
   59CHL1  H21A 6825   0.284   0.395   9.285  0.4098  1.5473  0.0607
   59CHL1  H21B 6826   0.353   0.415   9.112 -1.1950 -1.9204 -0.1342
   59CHL1  H21C 6827   0.437   0.472   9.255  0.0747  1.1093 -1.4211
   59CHL1   C22 6828   0.368   0.137   9.149 -0.3715 -0.0741 -0.0990
   59CHL1  H22A 6829   0.351   0.171   9.045  0.4573  0.6749  0.0051
   59CHL1  H22B 6830   0.427   0.042   9.149  1.4284  1.0094  1.5731
   59CHL1   C23 6831   0.229   0.094   9.206  0.2798 -0.1609  0.1407
   59CHL1  H23A 6832   0.226   0.058   9.311 -2.1087  2.1470  0.9220
   59CHL1  H23B 6833   0.162   0.181   9.185  2.4439  1.4422 -0.2711
   59CHL1   C24 6834   0.145  -0.014   9.123  0.0573 -0.2910 -0.0717
   59CHL1  H24A 6835   0.047  -0.037   9.172 -0.7345  2.6980 -0.1147
   59CHL1  H24B 6836   0.117   0.039   9.029 -0.3241  0.1495  0.2838
   59CHL1   C25 6837   0.217  -0.143   9.085  0.5839 -0.4906 -0.1180
   59CHL1   H25 6838   0.301  -0.124   9.015  0.6619 -0.9916 -0.1602
   59CHL1   C26 6839   0.272  -0.208   9.212 -0.8015 -0.0827  0.0240
   59CHL1  H26A 6840   0.366  -0.161   9.245 -0.2256 -1.2717  0.0978
   59CHL1  H26B 6841   0.199  -0.194   9.295  0.9453 -2.7491  2.0929
   59CHL1  H26C 6842   0.283  -0.317   9.193  1.7082  0.3158 -1.0040
   59CHL1   C27 6843   0.145  -0.246   9.005  0.9170  0.5028  0.0537
   59CHL1  H27A 6844   0.191  -0.346   8.990  0.6665  0.4693 -0.4719
   59CHL1  H27B 6845   0.041  -0.269   9.038  1.3100 -0.1188  0.9071
   59CHL1  H27C 6846   0.135  -0.194   8.908  2.2355  0.2911 -0.2014
   60CHL1    C3 6847   1.101   6.233  10.249  0.3379 -0.0168 -0.7646
   60CHL1    H3 6848   1.139   6.318  10.188 -0.9299  0.3123 -1.1206
   60CHL1    O3 6849   1.121   6.260  10.386  0.2578 -0.4019 -0.8885
   60CHL1   H3' 6850   1.101   6.353  10.394 -0.1203 -0.5706  0.2742
   60CHL1    C4 6851   0.951   6.230  10.221  0.2019  0.4882 -0.1827
   60CHL1   H4A 6852   0.911   6.142  10.276 -0.9701  0.7332 -0.6212
   60CHL1   H4B 6853   0.907   6.321  10.267  2.1458  2.2540 -1.7218
   60CHL1    C5 6854   0.924   6.199  10.073  0.3983 -0.0273 -0.0897
   60CHL1    C6 6855   0.853   6.284  10.000  0.0731  0.5515  0.4157
   60CHL1    H6 6856   0.800   6.369  10.045 -0.3558 -1.2006  3.3930
   60CHL1    C7 6857   0.819   6.265   9.852  0.0043 -0.1518 -0.3143
   60CHL1   H7A 6858   0.716   6.298   9.824 -0.3886 -0.9534  0.1688
   60CHL1   H7B 6859   0.886   6.336   9.798 -2.4582  2.6447  0.1698
   60CHL1    C8 6860   0.858   6.120   9.805 -0.6304 -0.1414 -0.6409
   60CHL1    H8 6861   0.771   6.061   9.842 -0.1197 -0.4047  0.1656
   60CHL1   C14 6862   0.856   6.117   9.658  0.3071  0.2665  0.4168
   60CHL1   H14 6863   0.940   6.184   9.630 -1.3009  1.9160 -0.6105
   60CHL1   C15 6864   0.726   6.156   9.580 -0.1364  0.1919 -0.1458
   60CHL1  H15A 6865   0.636   6.103   9.620 -1.6560  2.4821 -0.4599
   60CHL1  H15B 6866   0.726   6.267   9.580  1.1619  0.2031  0.0353
   60CHL1   C16 6867   0.759   6.106   9.439  0.0556  0.4711  0.2442
   60CHL1  H16A 6868   0.671   6.046   9.406  0.5956 -0.1451 -0.0787
   60CHL1  H16B 6869   0.777   6.191   9.370 -0.1804  1.1650  1.0286
   60CHL1   C17 6870   0.884   6.022   9.448  0.7167 -0.4462 -0.5024
   60CHL1   H17 6871   0.969   6.092   9.436  3.0035 -2.7891  1.2955
   60CHL1   C13 6872   0.895   5.982   9.598 -0.3484  0.8453  0.3029
   60CHL1   C18 6873   0.805   5.863   9.631  0.2632  0.2808 -0.0842
   60CHL1  H18A 6874   0.830   5.770   9.576  0.1223  0.3291 -0.2303
   60CHL1  H18B 6875   0.824   5.834   9.736  0.7071  1.4016  0.1468
   60CHL1  H18C 6876   0.702   5.899   9.610 -0.3843  0.0489  2.6176
   60CHL1   C12 6877   1.047   5.953   9.647  0.0249  0.3057 -0.7358
   60CHL1  H12A 6878   1.076   5.861   9.591 -1.2203  0.4980 -1.7168
   60CHL1  H12B 6879   1.106   6.035   9.602  1.1693 -0.3987 -0.5462
   60CHL1   C11 6880   1.063   5.954   9.796 -0.1748 -0.0728 -0.1003
   60CHL1  H11A 6881   1.020   5.855   9.820  0.9821 -0.9586 -1.5458
   60CHL1  H11B 6882   1.169   5.945   9.828 -0.8658  1.3987  2.6967
   60CHL1    C9 6883   0.991   6.077   9.870 -0.3519  0.5581  0.2904
   60CHL1    H9 6884   1.055   6.162   9.839 -1.3102  0.4390 -2.1053
   60CHL1   C10 6885   0.999   6.075  10.021 -0.0185  0.7779 -0.0855
   60CHL1   C19 6886   0.920   5.955  10.069 -0.6063  0.1988 -0.0813
   60CHL1  H19A 6887   0.975   5.861  10.045  2.2132  2.3671 -2.3461
   60CHL1  H19B 6888   0.912   5.951  10.180 -0.7882 -1.3241 -0.1336
   60CHL1  H19C 6889   0.817   5.944  10.028 -0.4237 -0.9929 -0.2366
   60CHL1    C1 6890   1.143   6.058  10.067  0.0719  0.1755  0.1352
   60CHL1   H1A 6891   1.169   5.950  10.068  0.7440  0.3327 -0.1150
   60CHL1   H1B 6892   1.218   6.113  10.007  1.0537 -1.6978 -0.4014
   60CHL1    C2 6893   1.166   6.097  10.211 -0.1329  0.0035 -0.4115
   60CHL1   H2A 6894   1.276   6.111  10.215 -0.1318  0.2688 -1.3552
   60CHL1   H2B 6895   1.133   6.012  10.275  0.9623 -1.2835 -1.5106
   60CHL1   C20 6896   0.901   5.907   9.344  0.3453 -0.3482  0.6503
   60CHL1   H20 6897   0.860   5.810   9.380  2.4504 -1.8848 -0.9234
   60CHL1   C21 6898   1.051   5.898   9.312  0.1752 -0.4389  0.6048
   60CHL1  H21A 6899   1.075   5.977   9.238 -0.5538 -1.8183 -1.1529
   60CHL1  H21B 6900   1.084   5.797   9.279  2.5444 -0.6990  3.5673
   60CHL1  H21C 6901   1.109   5.918   9.405  0.5988  1.5747 -0.0802
   60CHL1   C22 6902   0.819   5.922   9.208 -0.3303 -0.2110 -0.3017
   60CHL1  H22A 6903   0.711   5.934   9.230  0.2632  1.8135  1.6712
   60CHL1  H22B 6904   0.861   6.004   9.147  0.9573 -0.1763  0.6008
   60CHL1   C23 6905   0.812   5.791   9.125 -0.3843 -0.6642  0.1816
   60CHL1  H23A 6906   0.916   5.771   9.091 -0.4814  0.8711 -1.0990
   60CHL1  H23B 6907   0.773   5.700   9.176 -0.1831 -0.0966  1.3376
   60CHL1   C24 6908   0.727   5.813   9.003 -0.5454 -0.5963  0.4112
   60CHL1  H24A 6909   0.622   5.837   9.028 -0.5320 -0.4180  0.2929
   60CHL1  H24B 6910   0.765   5.904   8.953 -1.4967  0.4132  1.4881
   60CHL1   C25 6911   0.722   5.695   8.909  0.2677 -0.0539 -0.3501
   60CHL1   H25 6912   0.677   5.606   8.958  0.0518 -0.9473 -2.1301
   60CHL1   C26 6913   0.655   5.740   8.776  0.2570  0.0651 -0.1600
   60CHL1  H26A 6914   0.545   5.755   8.788 -0.1104 -1.8337 -0.9021
   60CHL1  H26B 6915   0.707   5.826   8.730  1.4880 -0.3285  0.4776
   60CHL1  H26C 6916   0.657   5.659   8.699 -2.8592  1.0952 -1.4362
   60CHL1   C27 6917   0.865   5.638   8.869 -0.6686  0.5031  0.1480
   60CHL1  H27A 6918   0.925   5.726   8.836 -0.5930  0.3491 -0.1209
   60CHL1  H27B 6919   0.926   5.602   8.954 -0.0761 -0.7714 -0.8093
   60CHL1  H27C 6920   0.852   5.559   8.792 -1.2915  0.4725  0.2813
   61CHL1    C3 6921   3.986   6.414  10.343  0.1730 -0.3212  0.5008
   61CHL1    H3 6922   3.942   6.515  10.344  1.5073  0.2628  1.0724
   61CHL1    O3 6923   3.982   6.355  10.469  0.0928 -0.3964 -0.2708
   61CHL1   H3' 6924   4.023   6.269  10.466 -1.2662 -1.0821  0.3203
   61CHL1    C4 6925   3.914   6.325  10.236 -0.0027 -0.1618 -0.2610
   61CHL1   H4A 6926   3.956   6.224  10.253 -0.1456 -0.4180 -1.3696
   61CHL1   H4B 6927   3.806   6.328  10.262  0.4527  1.8148  1.5816
   61CHL1    C5 6928   3.954   6.365  10.099  0.4527  0.5331 -0.1101
   61CHL1    C6 6929   3.859   6.392  10.008 -0.2234 -0.1070 -0.4522
   61CHL1    H6 6930   3.754   6.401  10.038 -0.9362 -0.0640 -2.8704
   61CHL1    C7 6931   3.885   6.412   9.863 -0.5051  0.3242  0.2220
   61CHL1   H7A 6932   3.798   6.364   9.813  0.9492 -0.3895 -1.6819
   61CHL1   H7B 6933   3.879   6.518   9.831 -1.0704 -0.5125 -2.5410
   61CHL1    C8 6934   4.028   6.359   9.821 -0.3109  0.0411  0.2895
   61CHL1    H8 6935   4.036   6.248   9.826  1.1617  0.1537  0.6907
   61CHL1   C14 6936   4.044   6.390   9.672 -0.0130 -0.7767  0.5547
   61CHL1   H14 6937   4.016   6.497   9.665 -0.2242 -0.7520  1.6360
   61CHL1   C15 6938   3.957   6.322   9.562 -0.1473 -0.6401  0.0935
   61CHL1  H15A 6939   3.952   6.213   9.586  1.1522 -1.0983 -1.5911
   61CHL1  H15B 6940   3.857   6.367   9.554  0.1844 -0.1361 -1.3468
   61CHL1   C16 6941   4.041   6.345   9.433 -0.2290  0.1459  0.2934
   61CHL1  H16A 6942   4.065   6.251   9.380  2.1144  1.1939 -0.5883
   61CHL1  H16B 6943   3.978   6.401   9.361 -0.3484 -0.9550 -0.4685
   61CHL1   C17 6944   4.167   6.416   9.475 -0.4590 -0.0173  0.1813
   61CHL1   H17 6945   4.137   6.522   9.494 -2.0305 -0.3899 -0.1222
   61CHL1   C13 6946   4.190   6.379   9.622  1.3514  0.1627 -0.4388
   61CHL1   C18 6947   4.236   6.237   9.628 -0.6921 -0.6022  0.1055
   61CHL1  H18A 6948   4.230   6.187   9.727  0.3580  2.2177  1.6500
   61CHL1  H18B 6949   4.174   6.174   9.560 -2.2691  0.5239  0.4575
   61CHL1  H18C 6950   4.341   6.260   9.601 -0.1230 -0.1711  2.5426
   61CHL1   C12 6951   4.278   6.478   9.703  0.1844  0.2374 -0.0633
   61CHL1  H12A 6952   4.379   6.465   9.657  1.3759  1.5769  2.1150
   61CHL1  H12B 6953   4.239   6.581   9.694  2.0536  0.9138 -0.8162
   61CHL1   C11 6954   4.272   6.436   9.858 -1.5366 -0.3025  0.2704
   61CHL1  H11A 6955   4.325   6.339   9.870  0.0099  0.6232  1.0190
   61CHL1  H11B 6956   4.333   6.515   9.907  0.6509 -0.7942 -1.6013
   61CHL1    C9 6957   4.128   6.419   9.912 -0.6679  0.4610 -0.3470
   61CHL1    H9 6958   4.103   6.527   9.905 -0.3385  0.5241 -0.5218
   61CHL1   C10 6959   4.105   6.366  10.059  0.2397  1.4043 -0.0943
   61CHL1   C19 6960   4.170   6.223  10.074  0.0921  0.5753  0.1128
   61CHL1  H19A 6961   4.151   6.187  10.177  3.4602 -1.8903 -0.0435
   61CHL1  H19B 6962   4.132   6.163   9.989  1.6085  1.1905 -1.0374
   61CHL1  H19C 6963   4.279   6.220  10.054  0.6602  1.6610  2.8424
   61CHL1    C1 6964   4.167   6.464  10.159 -0.0753  0.1970  1.0718
   61CHL1   H1A 6965   4.275   6.479  10.143  0.1221 -0.7668  1.5109
   61CHL1   H1B 6966   4.136   6.571  10.149  2.6090  0.9488  0.5019
   61CHL1    C2 6967   4.138   6.424  10.300 -1.0687  0.2916  0.5628
   61CHL1   H2A 6968   4.185   6.501  10.366  2.8135 -1.5053  0.0751
   61CHL1   H2B 6969   4.199   6.333  10.317 -0.7885  0.3467 -0.1035
   61CHL1   C20 6970   4.281   6.420   9.368  0.3459  0.4407  0.0782
   61CHL1   H20 6971   4.376   6.448   9.419  1.6611  1.1658 -2.6596
   61CHL1   C21 6972   4.262   6.537   9.271  1.1349 -0.1261 -0.4037
   61CHL1  H21A 6973   4.201   6.505   9.185  0.4146 -0.5598  0.2586
   61CHL1  H21B 6974   4.361   6.576   9.238  0.6349  0.4321 -1.2423
   61CHL1  H21C 6975   4.209   6.623   9.318  1.5640  0.9864 -1.9440
   61CHL1   C22 6976   4.287   6.282   9.292 -0.3681 -0.3485 -0.9582
   61CHL1  H22A 6977   4.263   6.194   9.357 -0.2566 -0.2042 -0.7247
   61CHL1  H22B 6978   4.204   6.272   9.218 -0.5036 -2.6288 -0.5513
   61CHL1   C23 6979   4.415   6.277   9.210 -0.0560 -0.3900  0.3540
   61CHL1  H23A 6980   4.418   6.366   9.144 -0.3459  0.1207  1.0215
   61CHL1  H23B 6981   4.508   6.286   9.269 -0.6556  4.8671  0.7823
   61CHL1   C24 6982   4.424   6.145   9.122 -0.5143 -0.1190  0.3818
   61CHL1  H24A 6983   4.454   6.069   9.197 -3.1383 -0.4750  1.1123
   61CHL1  H24B 6984   4.331   6.127   9.064  0.2273  0.1930 -0.9248
   61CHL1   C25 6985   4.531   6.152   9.006 -0.6528 -0.1275 -1.0278
   61CHL1   H25 6986   4.487   6.231   8.942 -1.9136  1.6838  1.9191
   61CHL1   C26 6987   4.673   6.197   9.051  0.8692  0.1292 -0.6194
   61CHL1  H26A 6988   4.716   6.132   9.130  0.3939  1.4157  0.7151
   61CHL1  H26B 6989   4.744   6.210   8.966  1.8202 -1.4328 -0.0895
   61CHL1  H26C 6990   4.664   6.305   9.073 -1.0456 -0.0657 -0.3567
   61CHL1   C27 6991   4.544   6.030   8.930 -0.7218  0.5520 -0.0839
   61CHL1  H27A 6992   4.598   5.951   8.986  0.5115  1.0998 -0.4701
   61CHL1  H27B 6993   4.443   5.986   8.914  0.1581 -1.5472 -0.0902
   61CHL1  H27C 6994   4.593   6.051   8.832 -0.1828  0.2234  0.1131
   62CHL1    C3 6995   4.894   2.587  10.213  0.0327 -0.0796 -0.5945
   62CHL1    H3 6996   4.805   2.632  10.164 -2.0770 -3.4619 -0.0549
   62CHL1    O3 6997   4.918   2.640  10.345 -0.0259  0.2733 -0.1190
   62CHL1   H3' 6998   4.880   2.573  10.403 -0.5319  0.8088  0.1847
   62CHL1    C4 6999   4.881   2.432  10.192 -0.5205  0.0074 -0.1632
   62CHL1   H4A 7000   4.974   2.384  10.227 -0.0685  0.7092 -0.3847
   62CHL1   H4B 7001   4.801   2.400  10.263  0.3284  0.5615  1.0751
   62CHL1    C5 7002   4.852   2.403  10.048 -0.6188 -0.5117 -0.3588
   62CHL1    C6 7003   4.747   2.320  10.019  0.5232 -0.6043  0.1551
   62CHL1    H6 7004   4.683   2.278  10.099 -0.5715 -1.5180 -1.1790
   62CHL1    C7 7005   4.706   2.282   9.881  0.0846  0.1394  0.1929
   62CHL1   H7A 7006   4.687   2.172   9.881 -1.9844  0.4551  2.3121
   62CHL1   H7B 7007   4.617   2.339   9.849 -0.3560  0.0496  1.2448
   62CHL1    C8 7008   4.817   2.321   9.774  0.3725 -0.7667  0.1904
   62CHL1    H8 7009   4.905   2.252   9.778  1.1230  0.1585 -0.1087
   62CHL1   C14 7010   4.750   2.328   9.638 -0.5673 -0.4920 -1.0585
   62CHL1   H14 7011   4.667   2.402   9.639  1.0827  1.4465 -2.3158
   62CHL1   C15 7012   4.677   2.205   9.590  0.5581 -0.0030 -0.0197
   62CHL1  H15A 7013   4.722   2.107   9.617  0.9591 -0.0365 -0.7628
   62CHL1  H15B 7014   4.571   2.198   9.621  0.4202  1.2077 -0.1865
   62CHL1   C16 7015   4.693   2.214   9.433  0.4077  0.2809  0.1364
   62CHL1  H16A 7016   4.754   2.129   9.394 -0.5647 -1.7438  2.8805
   62CHL1  H16B 7017   4.597   2.207   9.378  0.3512 -0.3376  0.3124
   62CHL1   C17 7018   4.764   2.348   9.395  0.4352  0.0085 -0.3244
   62CHL1   H17 7019   4.693   2.433   9.386  0.9278  0.7916  2.6240
   62CHL1   C13 7020   4.838   2.383   9.531 -0.3889 -0.5526 -0.4554
   62CHL1   C18 7021   4.973   2.305   9.531 -0.3735 -0.1513  0.4648
   62CHL1  H18A 7022   5.029   2.299   9.627 -0.5200  1.3051  0.6423
   62CHL1  H18B 7023   4.967   2.199   9.497  1.7973 -0.5887  1.3741
   62CHL1  H18C 7024   5.042   2.361   9.465 -1.7201 -0.4434 -1.2291
   62CHL1   C12 7025   4.867   2.529   9.572  0.8804  0.5143  0.6248
   62CHL1  H12A 7026   4.935   2.574   9.496  1.9924 -0.1067  1.2484
   62CHL1  H12B 7027   4.773   2.589   9.571  0.1073 -0.6360  2.3085
   62CHL1   C11 7028   4.938   2.540   9.697  0.0582 -0.2175 -0.4691
   62CHL1  H11A 7029   5.043   2.504   9.683  0.9946  1.8310  1.0926
   62CHL1  H11B 7030   4.957   2.649   9.712  2.3823 -0.8730  1.6592
   62CHL1    C9 7031   4.879   2.459   9.813 -0.2598  0.5605  1.0692
   62CHL1    H9 7032   4.782   2.514   9.820 -1.1954 -0.9440  0.2284
   62CHL1   C10 7033   4.949   2.463   9.947 -0.4010  0.0219 -0.0911
   62CHL1   C19 7034   5.072   2.373   9.938  0.2824 -0.0519 -0.3527
   62CHL1  H19A 7035   5.151   2.393  10.014  1.5322  1.2195 -1.9372
   62CHL1  H19B 7036   5.047   2.265   9.942 -0.3826  0.1716  1.6386
   62CHL1  H19C 7037   5.119   2.390   9.838  1.5710  0.2625  0.2924
   62CHL1    C1 7038   4.996   2.611   9.988  0.2661  0.3010  0.5986
   62CHL1   H1A 7039   5.080   2.649   9.926  0.3328  0.6577  0.9046
   62CHL1   H1B 7040   4.901   2.667   9.974 -0.7493 -1.4028  0.4972
   62CHL1    C2 7041   5.022   2.632  10.134  0.5003  0.2193 -0.1671
   62CHL1   H2A 7042   5.046   2.738  10.160  1.7982 -0.5995  2.1484
   62CHL1   H2B 7043   5.112   2.574  10.166  1.3345  1.2754 -0.5605
   62CHL1   C20 7044   4.842   2.345   9.265 -0.1996 -0.1454 -0.0917
   62CHL1   H20 7045   4.923   2.271   9.279 -0.9781 -1.4208 -2.1255
   62CHL1   C21 7046   4.908   2.483   9.231  0.3127 -0.2169  0.0998
   62CHL1  H21A 7047   4.833   2.564   9.241 -0.0867 -0.0148 -3.6588
   62CHL1  H21B 7048   4.957   2.477   9.131 -0.0708  0.2302 -0.1180
   62CHL1  H21C 7049   4.987   2.517   9.300  0.9218 -0.4447 -0.4784
   62CHL1   C22 7050   4.758   2.303   9.135  0.2163  0.3753  0.3954
   62CHL1  H22A 7051   4.689   2.217   9.150 -0.1958  0.6007 -0.2130
   62CHL1  H22B 7052   4.704   2.395   9.104  1.7680  2.0165  2.3955
   62CHL1   C23 7053   4.851   2.245   9.023  0.3131 -0.4858 -0.0762
   62CHL1  H23A 7054   4.937   2.315   9.023 -0.2982  0.2719  0.1608
   62CHL1  H23B 7055   4.891   2.148   9.060 -1.0030 -1.3094 -0.7861
   62CHL1   C24 7056   4.789   2.240   8.880  1.0864  0.0759 -0.0402
   62CHL1  H24A 7057   4.683   2.207   8.881 -0.4458  4.7183 -0.2137
   62CHL1  H24B 7058   4.773   2.343   8.844  1.6108 -0.7888 -2.8925
   62CHL1   C25 7059   4.864   2.155   8.771  0.8480  0.0402  0.5479
   62CHL1   H25 7060   4.903   2.059   8.812  0.4570 -0.6462 -0.6628
   62CHL1   C26 7061   4.775   2.125   8.653 -0.7575 -0.3231  1.2684
   62CHL1  H26A 7062   4.739   2.213   8.596 -2.1848 -1.1579  0.8354
   62CHL1  H26B 7063   4.840   2.073   8.579 -0.6087  3.1807 -1.2222
   62CHL1  H26C 7064   4.686   2.066   8.684 -1.5476 -0.5306 -1.2439
   62CHL1   C27 7065   4.982   2.235   8.706  0.0306  0.2011 -0.4086
   62CHL1  H27A 7066   5.043   2.262   8.795 -1.5476  2.2457  0.0729
   62CHL1  H27B 7067   5.038   2.162   8.643 -0.7534 -1.5099  0.8260
   62CHL1  H27C 7068   4.963   2.328   8.649  1.6073  0.4333 -0.5958
   63CHL1    C3 7069   6.506   4.142  10.297  0.3139 -0.6051 -0.3547
   63CHL1    H3 7070   6.616   4.149  10.306  0.1540 -0.6533  2.0379
   63CHL1    O3 7071   6.452   4.151  10.429  0.0162 -0.5355  0.2518
   63CHL1   H3' 7072   6.361   4.149  10.399  0.3498  0.5639 -0.8834
   63CHL1    C4 7073   6.457   4.259  10.207 -0.0884 -0.0545 -0.2537
   63CHL1   H4A 7074   6.347   4.244  10.212  0.2421 -3.1780 -1.5023
   63CHL1   H4B 7075   6.492   4.353  10.254  0.1316 -1.2981  2.1130
   63CHL1    C5 7076   6.508   4.234  10.067  0.4336 -0.2534 -0.0740
   63CHL1    C6 7077   6.561   4.332   9.995  0.3143  0.4249 -0.6813
   63CHL1    H6 7078   6.567   4.433  10.039 -1.1472  1.2029 -2.1786
   63CHL1    C7 7079   6.604   4.326   9.851  0.4396  0.2318 -1.2051
   63CHL1   H7A 7080   6.557   4.410   9.797 -1.4920 -0.0420 -0.0219
   63CHL1   H7B 7081   6.714   4.337   9.843  0.6657 -1.2427 -0.4338
   63CHL1    C8 7082   6.560   4.193   9.788 -0.2389  0.1067 -0.1445
   63CHL1    H8 7083   6.453   4.213   9.766 -0.4172  0.7003  1.2503
   63CHL1   C14 7084   6.633   4.171   9.651 -0.1028  0.0267  0.1558
   63CHL1   H14 7085   6.740   4.164   9.679  0.0810 -2.3814 -0.9925
   63CHL1   C15 7086   6.632   4.283   9.552 -0.1404 -0.2426  0.8345
   63CHL1  H15A 7087   6.527   4.312   9.533 -0.5586 -2.1291  0.1459
   63CHL1  H15B 7088   6.690   4.371   9.587 -1.7027  0.6989  1.0884
   63CHL1   C16 7089   6.693   4.218   9.426  0.2407  0.6049 -0.8288
   63CHL1  H16A 7090   6.619   4.234   9.345  0.6342  1.6714 -0.9830
   63CHL1  H16B 7091   6.786   4.270   9.397  1.0227  0.5461  1.4740
   63CHL1   C17 7092   6.694   4.059   9.458 -0.2021 -0.0971  0.0301
   63CHL1   H17 7093   6.799   4.058   9.494  0.7903  1.9307 -2.6214
   63CHL1   C13 7094   6.606   4.039   9.579  0.6006 -0.5115 -0.0035
   63CHL1   C18 7095   6.456   4.034   9.526 -0.5460 -0.2940 -0.2216
   63CHL1  H18A 7096   6.442   3.930   9.489  0.8426 -0.8820  0.8898
   63CHL1  H18B 7097   6.390   4.052   9.613  1.9415 -0.7832  1.8146
   63CHL1  H18C 7098   6.455   4.116   9.451  2.6791  1.0237  1.1131
   63CHL1   C12 7099   6.642   3.931   9.673  0.4683 -0.1904  0.0612
   63CHL1  H12A 7100   6.622   3.826   9.644  0.9535  0.1661 -1.5819
   63CHL1  H12B 7101   6.749   3.931   9.706  0.3693  0.3458  0.3854
   63CHL1   C11 7102   6.556   3.939   9.804  0.6668  0.7517 -0.0562
   63CHL1  H11A 7103   6.446   3.923   9.791  0.3975  1.0958  1.7123
   63CHL1  H11B 7104   6.582   3.852   9.868 -1.1417  0.5265  0.4285
   63CHL1    C9 7105   6.578   4.068   9.876 -0.7663 -0.1696  0.0635
   63CHL1    H9 7106   6.682   4.061   9.916 -1.1800 -2.8209  0.8077
   63CHL1   C10 7107   6.499   4.087  10.010  0.7259  0.6144 -0.4941
   63CHL1   C19 7108   6.346   4.065   9.991 -0.2989 -0.6070 -0.2188
   63CHL1  H19A 7109   6.308   4.146   9.925  2.6351  1.3480  0.3855
   63CHL1  H19B 7110   6.347   3.959   9.959  2.1524 -0.7626  0.2943
   63CHL1  H19C 7111   6.276   4.067  10.078  0.6111 -0.0950  0.5029
   63CHL1    C1 7112   6.541   3.978  10.113 -0.7689 -0.3156  0.6300
   63CHL1   H1A 7113   6.511   3.878  10.075 -0.7494  0.0515 -0.3586
   63CHL1   H1B 7114   6.652   3.981  10.120 -0.7567  0.2623  0.1935
   63CHL1    C2 7115   6.480   4.001  10.247 -0.2940 -0.0520  0.0590
   63CHL1   H2A 7116   6.517   3.930  10.324 -0.5209 -0.1031  0.1221
   63CHL1   H2B 7117   6.375   3.964  10.248 -0.4987  0.4623 -1.2421
   63CHL1   C20 7118   6.676   3.971   9.329 -0.0797 -0.6627 -0.9864
   63CHL1   H20 7119   6.577   4.000   9.288  1.3470  1.5872 -2.9229
   63CHL1   C21 7120   6.668   3.822   9.355 -0.4375 -0.8444  0.1002
   63CHL1  H21A 7121   6.587   3.797   9.427  0.3076 -2.2029  0.4882
   63CHL1  H21B 7122   6.764   3.776   9.385  0.5185 -0.0556 -1.6865
   63CHL1  H21C 7123   6.634   3.769   9.264  1.6686 -1.7762 -0.1674
   63CHL1   C22 7124   6.767   4.008   9.214 -0.5178 -0.3294  0.2022
   63CHL1  H22A 7125   6.747   4.114   9.185 -0.0811 -0.0961  0.7183
   63CHL1  H22B 7126   6.869   3.995   9.256  0.1493 -0.3087 -1.3918
   63CHL1   C23 7127   6.759   3.930   9.075  0.2660  0.7540  0.5046
   63CHL1  H23A 7128   6.777   3.823   9.100 -2.2236  0.6287  1.9566
   63CHL1  H23B 7129   6.656   3.939   9.035 -0.2019  1.5826  1.8534
   63CHL1   C24 7130   6.858   3.965   8.972 -0.2642  0.0349  0.1967
   63CHL1  H24A 7131   6.879   4.073   8.983 -1.6505  0.1423  2.0931
   63CHL1  H24B 7132   6.958   3.917   8.984  0.3884  1.5391  0.9611
   63CHL1   C25 7133   6.807   3.938   8.821 -0.0750  0.4368  0.6879
   63CHL1   H25 7134   6.707   3.984   8.811  0.1269  1.0379  1.4402
   63CHL1   C26 7135   6.905   4.003   8.721  0.0087  0.0145  0.4965
   63CHL1  H26A 7136   7.000   3.946   8.730 -0.0425  0.0123  1.0515
   63CHL1  H26B 7137   6.875   4.007   8.615 -1.0293  0.4863  0.8035
   63CHL1  H26C 7138   6.937   4.102   8.760  1.0505 -0.6401  1.3477
   63CHL1   C27 7139   6.796   3.789   8.789  0.1592  0.7470 -0.2431
   63CHL1  H27A 7140   6.724   3.731   8.851  1.7146 -1.2435 -0.2618
   63CHL1  H27B 7141   6.766   3.773   8.683 -0.0952  0.0675 -0.0711
   63CHL1  H27C 7142   6.895   3.742   8.803  0.2152  0.4822 -1.4809
   64CHL1    C3 7143   5.635   3.522  10.117  0.8197  0.5399  0.3701
   64CHL1    H3 7144   5.725   3.475  10.071 -0.8629 -1.6188 -0.8965
   64CHL1    O3 7145   5.643   3.494  10.259 -0.0075  0.3082 -0.4616
   64CHL1   H3' 7146   5.575   3.554  10.293  0.1198  0.3274 -0.2380
   64CHL1    C4 7147   5.630   3.674  10.098 -0.2570  0.2322 -0.1811
   64CHL1   H4A 7148   5.552   3.713  10.167  0.2568  0.4565  0.2728
   64CHL1   H4B 7149   5.727   3.712  10.136 -0.5123 -0.1500  0.8826
   64CHL1    C5 7150   5.621   3.711   9.953 -0.0471 -0.7775 -0.4869
   64CHL1    C6 7151   5.716   3.775   9.884  0.2430 -0.1950  0.9665
   64CHL1    H6 7152   5.798   3.818   9.943  0.2457  1.4732 -0.2042
   64CHL1    C7 7153   5.715   3.820   9.743 -0.1210  0.1535 -0.3347
   64CHL1   H7A 7154   5.721   3.929   9.719 -0.9855  0.7665  2.0594
   64CHL1   H7B 7155   5.796   3.763   9.693  2.1419  3.7008 -0.9039
   64CHL1    C8 7156   5.584   3.775   9.672  0.7956  0.1962 -0.9976
   64CHL1    H8 7157   5.509   3.854   9.692 -0.8801 -2.0693  1.9802
   64CHL1   C14 7158   5.602   3.763   9.526 -0.0346 -0.2623  0.5886
   64CHL1   H14 7159   5.664   3.672   9.508 -2.8395 -1.9739 -0.7264
   64CHL1   C15 7160   5.679   3.870   9.450 -0.6264  0.6126  0.2126
   64CHL1  H15A 7161   5.670   3.966   9.505 -0.9408  0.3566  0.6059
   64CHL1  H15B 7162   5.786   3.842   9.465 -0.4839  1.9776  1.8305
   64CHL1   C16 7163   5.649   3.868   9.298 -0.2648  0.4386  0.3866
   64CHL1  H16A 7164   5.590   3.959   9.271 -0.0590  0.2900 -0.5920
   64CHL1  H16B 7165   5.734   3.863   9.227 -0.1582  2.7301  0.3187
   64CHL1   C17 7166   5.537   3.750   9.288  0.1370  0.8027 -0.5185
   64CHL1   H17 7167   5.585   3.651   9.271 -1.4491 -0.0211 -0.2972
   64CHL1   C13 7168   5.481   3.740   9.436 -0.6594 -1.3900  0.4918
   64CHL1   C18 7169   5.375   3.855   9.468 -0.2607 -0.2194  0.6994
   64CHL1  H18A 7170   5.344   3.864   9.575 -2.2406  1.4079  0.0211
   64CHL1  H18B 7171   5.423   3.949   9.433 -0.1067 -1.5904 -2.9101
   64CHL1  H18C 7172   5.281   3.840   9.411 -0.5886 -0.3077  1.2575
   64CHL1   C12 7173   5.429   3.606   9.483 -0.0740 -0.3480 -0.3479
   64CHL1  H12A 7174   5.338   3.582   9.423  1.3264  1.0818 -3.1192
   64CHL1  H12B 7175   5.493   3.525   9.444 -0.3426 -1.4810  1.4737
   64CHL1   C11 7176   5.402   3.593   9.631 -0.1748 -0.9429  0.3016
   64CHL1  H11A 7177   5.312   3.652   9.659  1.0588 -0.3419  3.1717
   64CHL1  H11B 7178   5.396   3.483   9.651 -0.2459 -1.6306 -3.1741
   64CHL1    C9 7179   5.520   3.646   9.724 -0.2347 -0.3234  0.3082
   64CHL1    H9 7180   5.598   3.568   9.713  0.4253  0.3692  0.0054
   64CHL1   C10 7181   5.508   3.641   9.877  0.8790  0.9017 -0.8746
   64CHL1   C19 7182   5.383   3.723   9.921  0.0277 -0.9280 -0.7076
   64CHL1  H19A 7183   5.378   3.817   9.863  0.1890 -0.3246  0.2476
   64CHL1  H19B 7184   5.285   3.678   9.894 -0.0863  0.8130 -3.4119
   64CHL1  H19C 7185   5.361   3.744  10.028 -1.0832  0.2516 -1.1566
   64CHL1    C1 7186   5.491   3.489   9.918  0.1725  0.6649  0.1149
   64CHL1   H1A 7187   5.384   3.461   9.902 -0.7773  1.5333  4.3113
   64CHL1   H1B 7188   5.561   3.429   9.856 -2.5005 -0.1621 -2.2257
   64CHL1    C2 7189   5.505   3.457  10.068 -0.1958 -0.3651  0.0521
   64CHL1   H2A 7190   5.512   3.347  10.078 -0.3971 -0.1584  2.7361
   64CHL1   H2B 7191   5.411   3.493  10.114  0.7054  1.6524  0.3690
   64CHL1   C20 7192   5.441   3.780   9.174  0.2707 -0.4639  0.1089
   64CHL1   H20 7193   5.396   3.879   9.199  0.6621 -0.2418 -0.0556
   64CHL1   C21 7194   5.333   3.673   9.168  0.1035  0.2683  0.3842
   64CHL1  H21A 7195   5.374   3.570   9.171  1.0957  0.6328 -0.2500
   64CHL1  H21B 7196   5.270   3.700   9.080 -1.2747 -0.5130  1.1082
   64CHL1  H21C 7197   5.271   3.698   9.257 -0.4315  3.1203 -0.7426
   64CHL1   C22 7198   5.507   3.812   9.037 -0.2016  0.6722  0.7606
   64CHL1  H22A 7199   5.429   3.840   8.963 -0.2805 -0.6874  0.3169
   64CHL1  H22B 7200   5.574   3.900   9.048  3.9566 -2.1672 -0.7605
   64CHL1   C23 7201   5.589   3.689   8.976 -0.1206 -0.2372 -0.0222
   64CHL1  H23A 7202   5.680   3.663   9.035  1.0144 -1.6403 -2.3145
   64CHL1  H23B 7203   5.531   3.594   8.978 -1.7664  0.7621  0.9427
   64CHL1   C24 7204   5.637   3.723   8.831  0.5680 -0.0147  0.1979
   64CHL1  H24A 7205   5.674   3.634   8.776  0.1370 -0.8396  1.2405
   64CHL1  H24B 7206   5.543   3.758   8.784  0.4137  0.9382  1.1711
   64CHL1   C25 7207   5.741   3.832   8.819  0.0728  0.1248  0.3107
   64CHL1   H25 7208   5.700   3.924   8.866  1.7153  1.0715 -0.0582
   64CHL1   C26 7209   5.871   3.802   8.890 -0.4767 -0.1858 -0.5262
   64CHL1  H26A 7210   5.928   3.722   8.838 -0.3808 -0.2834 -0.2715
   64CHL1  H26B 7211   5.945   3.884   8.876  0.3108 -0.1165  3.4034
   64CHL1  H26C 7212   5.861   3.772   8.997 -0.4927  0.0869 -0.4487
   64CHL1   C27 7213   5.779   3.871   8.679  0.4239 -0.2878  0.0768
   64CHL1  H27A 7214   5.855   3.952   8.676  0.4407 -0.2453  1.4223
   64CHL1  H27B 7215   5.804   3.777   8.626  1.2000 -0.8507  1.4524
   64CHL1  H27C 7216   5.689   3.903   8.622  1.6727  0.1414 -1.7020
   65CHL1    C3 7217   1.268   1.118  10.217  0.6106 -0.6163  0.4072
   65CHL1    H3 7218   1.376   1.131  10.197  0.5151 -1.7098 -0.8290
   65CHL1    O3 7219   1.231   1.143  10.355  0.8898  0.6476 -0.0503
   65CHL1   H3' 7220   1.265   1.228  10.384 -2.6829  3.1065 -2.6003
   65CHL1    C4 7221   1.176   1.215  10.139 -0.2154  0.2942  0.3392
   65CHL1   H4A 7222   1.067   1.193  10.147  0.1667 -1.6410  0.4395
   65CHL1   H4B 7223   1.198   1.316  10.179 -0.8832  0.9109 -0.8300
   65CHL1    C5 7224   1.198   1.210   9.989 -0.1125  0.1957 -0.3242
   65CHL1    C6 7225   1.241   1.317   9.927 -0.0036 -0.4649 -0.5786
   65CHL1    H6 7226   1.272   1.403   9.989 -1.5349  0.4125 -1.0050
   65CHL1    C7 7227   1.255   1.327   9.779 -0.0117  0.0846 -0.3128
   65CHL1   H7A 7228   1.197   1.416   9.744  2.9089  2.0353 -0.3573
   65CHL1   H7B 7229   1.357   1.357   9.748  0.7654 -0.9362  1.1913
   65CHL1    C8 7230   1.216   1.197   9.702 -0.1502  0.2841  1.0686
   65CHL1    H8 7231   1.109   1.195   9.671 -0.4015  2.6273  1.7024
   65CHL1   C14 7232   1.304   1.181   9.579  0.1802  0.0074 -0.3689
   65CHL1   H14 7233   1.409   1.164   9.612  1.0199  0.3777 -2.7042
   65CHL1   C15 7234   1.323   1.314   9.489  0.3493  0.0690 -0.2768
   65CHL1  H15A 7235   1.235   1.381   9.499  0.9857  0.5157  3.1129
   65CHL1  H15B 7236   1.417   1.363   9.522 -0.0857 -0.6564  2.1164
   65CHL1   C16 7237   1.336   1.264   9.350  0.2042 -0.1001  0.3508
   65CHL1  H16A 7238   1.258   1.287   9.275  1.3401  0.6485 -0.6227
   65CHL1  H16B 7239   1.430   1.305   9.308 -0.4335  1.6844  0.5879
   65CHL1   C17 7240   1.350   1.109   9.363  0.0097 -0.9461 -0.2827
   65CHL1   H17 7241   1.455   1.079   9.381  0.6052  0.0772 -1.8995
   65CHL1   C13 7242   1.270   1.065   9.485  0.0544  0.4026  0.6039
   65CHL1   C18 7243   1.119   1.069   9.450  0.1287 -0.1122  0.3391
   65CHL1  H18A 7244   1.056   1.070   9.542 -0.1154 -4.8756  0.3558
   65CHL1  H18B 7245   1.098   1.156   9.384 -0.2573 -1.9346 -2.0250
   65CHL1  H18C 7246   1.089   0.982   9.387  1.7305 -0.3841 -0.0521
   65CHL1   C12 7247   1.308   0.941   9.576 -0.0262  0.3217 -0.1642
   65CHL1  H12A 7248   1.295   0.844   9.524  3.2023  0.2733 -1.0207
   65CHL1  H12B 7249   1.417   0.941   9.600  0.1518 -0.7417 -0.9552
   65CHL1   C11 7250   1.241   0.936   9.711 -0.1273  0.2634 -0.7137
   65CHL1  H11A 7251   1.139   0.904   9.681 -0.1376  0.7903 -1.2335
   65CHL1  H11B 7252   1.285   0.854   9.772 -2.9785 -0.7362  0.0738
   65CHL1    C9 7253   1.246   1.069   9.791  0.0717 -0.2189  0.1874
   65CHL1    H9 7254   1.355   1.088   9.804  0.0632 -0.8397  1.2599
   65CHL1   C10 7255   1.186   1.069   9.931  0.7194 -0.5648 -0.0280
   65CHL1   C19 7256   1.041   1.023   9.925  0.2680  0.2208  0.2771
   65CHL1  H19A 7257   0.980   1.104   9.880  0.7529 -0.2552 -1.2546
   65CHL1  H19B 7258   1.031   0.935   9.859  2.1822  0.0815  0.1574
   65CHL1  H19C 7259   1.012   0.986  10.026  1.2756 -3.4262 -0.6940
   65CHL1    C1 7260   1.258   0.965  10.021  0.0793  0.7199 -0.0360
   65CHL1   H1A 7261   1.239   0.863   9.981  1.5736 -0.1974  1.5086
   65CHL1   H1B 7262   1.367   0.983  10.009  0.2091  0.5553  0.8522
   65CHL1    C2 7263   1.235   0.976  10.174  0.4839 -0.0187  0.2548
   65CHL1   H2A 7264   1.302   0.906  10.228 -1.1375 -0.8408  1.2281
   65CHL1   H2B 7265   1.133   0.946  10.206 -0.9017  1.9774 -2.1142
   65CHL1   C20 7266   1.314   1.029   9.234 -0.7192 -0.1805  0.5088
   65CHL1   H20 7267   1.204   1.013   9.226 -0.9732  1.2331  1.1720
   65CHL1   C21 7268   1.371   0.886   9.236  0.0743  0.0177 -0.2860
   65CHL1  H21A 7269   1.480   0.886   9.256  0.4385  0.1067 -2.1894
   65CHL1  H21B 7270   1.346   0.830   9.143  2.3388  0.0480 -0.9364
   65CHL1  H21C 7271   1.333   0.829   9.323  1.4451  0.2181  0.4522
   65CHL1   C22 7272   1.366   1.095   9.102 -0.2622 -0.5143  1.0284
   65CHL1  H22A 7273   1.299   1.184   9.096  0.7907  0.3573  1.9825
   65CHL1  H22B 7274   1.474   1.120   9.109 -0.6587  0.7369  3.3355
   65CHL1   C23 7275   1.343   1.016   8.975  0.1477 -0.1637  0.8756
   65CHL1  H23A 7276   1.419   0.936   8.975 -0.1493 -0.4513 -0.0339
   65CHL1  H23B 7277   1.240   0.974   8.983  1.1264 -2.7857  0.1282
   65CHL1   C24 7278   1.371   1.115   8.855  0.0061  0.9804 -0.4659
   65CHL1  H24A 7279   1.308   1.206   8.848 -2.0971 -0.3246  1.0488
   65CHL1  H24B 7280   1.479   1.144   8.854  0.2854  0.0345  1.0731
   65CHL1   C25 7281   1.326   1.048   8.727 -0.4605  0.0027  0.3027
   65CHL1   H25 7282   1.361   0.943   8.725 -1.4367 -0.3261 -1.8344
   65CHL1   C26 7283   1.177   1.039   8.703  0.5084 -0.9707  0.1574
   65CHL1  H26A 7284   1.143   1.144   8.691 -2.3172 -1.5903  2.2718
   65CHL1  H26B 7285   1.159   0.983   8.608  0.0964  2.2057 -1.6904
   65CHL1  H26C 7286   1.127   1.005   8.796  1.1318 -1.8004  0.1974
   65CHL1   C27 7287   1.383   1.111   8.604  0.2525  0.1953  0.7155
   65CHL1  H27A 7288   1.358   1.220   8.605 -2.7415 -0.3994 -1.2779
   65CHL1  H27B 7289   1.489   1.082   8.612  0.8034  2.1412  0.7991
   65CHL1  H27C 7290   1.329   1.066   8.518  1.1521 -0.2433  0.3757
   66CHL1    C3 7291   5.723   5.598  10.774  0.6163 -0.6716  0.4497
   66CHL1    H3 7292   5.640   5.533  10.741  1.3495 -1.3128 -0.1424
   66CHL1    O3 7293   5.716   5.617  10.912 -0.2521  0.2756  0.0828
   66CHL1   H3' 7294   5.806   5.626  10.943 -0.0402  0.2216 -0.5172
   66CHL1    C4 7295   5.859   5.532  10.737  0.6747  0.0533 -0.1807
   66CHL1   H4A 7296   5.944   5.580  10.791 -1.9544  0.9154  3.3974
   66CHL1   H4B 7297   5.861   5.432  10.786  0.1005  0.4500  0.6668
   66CHL1    C5 7298   5.884   5.526  10.590 -0.1630  0.1863 -0.2516
   66CHL1    C6 7299   5.916   5.412  10.531 -0.5016 -0.1730 -0.4068
   66CHL1    H6 7300   5.932   5.320  10.589  0.7877  0.0194 -0.4327
   66CHL1    C7 7301   5.946   5.399  10.387  0.8441 -0.2240 -0.4260
   66CHL1   H7A 7302   6.039   5.347  10.358 -0.3150 -1.0431 -2.7621
   66CHL1   H7B 7303   5.863   5.351  10.332  1.3185 -1.1912 -0.2952
   66CHL1    C8 7304   5.951   5.533  10.310  0.6855 -0.0322  0.4765
   66CHL1    H8 7305   6.058   5.561  10.317  0.3785  1.1279  0.6316
   66CHL1   C14 7306   5.927   5.518  10.167  0.1590 -0.2910 -0.7389
   66CHL1   H14 7307   5.817   5.501  10.159 -0.1047  1.0880 -0.1327
   66CHL1   C15 7308   6.001   5.396  10.104  0.4845 -0.5793 -0.1335
   66CHL1  H15A 7309   6.100   5.395  10.153  1.1760 -1.1995 -1.4921
   66CHL1  H15B 7310   5.971   5.290  10.122  1.1100 -0.3511  2.3218
   66CHL1   C16 7311   6.002   5.444   9.958  0.1763 -0.1426  0.5275
   66CHL1  H16A 7312   6.109   5.447   9.931  0.8121  1.3829  3.0017
   66CHL1  H16B 7313   5.949   5.373   9.891 -1.0750  0.5007  0.8162
   66CHL1   C17 7314   5.939   5.589   9.950  1.0676  1.0449  0.1051
   66CHL1   H17 7315   5.829   5.578   9.937  1.3889 -1.4698 -0.7803
   66CHL1   C13 7316   5.964   5.647  10.085  0.4979 -0.0327  0.0478
   66CHL1   C18 7317   6.117   5.693  10.093  0.9520  0.7231 -0.0160
   66CHL1  H18A 7318   6.179   5.607  10.058  0.7492  0.8115 -0.6029
   66CHL1  H18B 7319   6.131   5.788  10.038 -3.0549  1.4806  0.1217
   66CHL1  H18C 7320   6.144   5.715  10.198  0.7059 -0.9370  0.4054
   66CHL1   C12 7321   5.875   5.767  10.135  0.2975  0.4240  0.2270
   66CHL1  H12A 7322   5.911   5.863  10.093  0.0985  0.1494 -0.5852
   66CHL1  H12B 7323   5.771   5.754  10.097 -0.2113  0.7483  1.4704
   66CHL1   C11 7324   5.886   5.775  10.286 -0.0603  0.2367 -0.5669
   66CHL1  H11A 7325   5.977   5.832  10.314 -1.3483  1.7808  0.5567
   66CHL1  H11B 7326   5.806   5.846  10.316 -0.2393 -1.2501  2.6542
   66CHL1    C9 7327   5.856   5.639  10.363 -0.7046 -0.1749  1.1964
   66CHL1    H9 7328   5.751   5.624  10.330 -0.3437  2.0902 -1.1978
   66CHL1   C10 7329   5.856   5.665  10.510  0.3495  0.8754 -0.5969
   66CHL1   C19 7330   5.976   5.752  10.553 -1.0181 -0.7934  0.2640
   66CHL1  H19A 7331   6.067   5.715  10.503 -0.4721  0.9503 -0.0879
   66CHL1  H19B 7332   5.972   5.859  10.524  0.4412 -0.7051  0.3705
   66CHL1  H19C 7333   5.999   5.748  10.662 -1.4382  2.0085  0.5030
   66CHL1    C1 7334   5.722   5.719  10.551 -0.0457  0.1930  0.4291
   66CHL1   H1A 7335   5.704   5.820  10.509  0.3298 -0.1031 -0.4766
   66CHL1   H1B 7336   5.649   5.646  10.511 -0.2684  1.3050 -1.2349
   66CHL1    C2 7337   5.708   5.732  10.704  0.9051 -0.0941  0.2908
   66CHL1   H2A 7338   5.611   5.780  10.732  1.8552  0.9236  1.9017
   66CHL1   H2B 7339   5.794   5.793  10.737  1.2837 -0.0445 -0.7832
   66CHL1   C20 7340   5.990   5.660   9.824 -0.0923 -0.0077 -0.3719
   66CHL1   H20 7341   6.100   5.676   9.836 -0.0980  1.1345 -1.8035
   66CHL1   C21 7342   5.936   5.805   9.807  0.7516  0.5869  0.5165
   66CHL1  H21A 7343   5.833   5.798   9.847  0.5244 -2.7510 -0.5033
   66CHL1  H21B 7344   5.933   5.842   9.702 -0.0744  1.1563  0.7402
   66CHL1  H21C 7345   5.989   5.881   9.868  0.4654 -0.2003  1.7506
   66CHL1   C22 7346   5.966   5.572   9.697 -0.1880 -0.1023  0.2334
   66CHL1  H22A 7347   6.004   5.470   9.720 -0.0496 -0.4341 -1.4588
   66CHL1  H22B 7348   5.856   5.562   9.683 -0.4097  2.7143 -0.1602
   66CHL1   C23 7349   6.021   5.622   9.563 -0.2625  0.4051  0.2932
   66CHL1  H23A 7350   5.954   5.704   9.529 -0.0703  0.6283  0.4448
   66CHL1  H23B 7351   6.129   5.641   9.583  0.0494 -0.8639 -0.1678
   66CHL1   C24 7352   6.020   5.509   9.460  0.1513 -0.5571  0.1753
   66CHL1  H24A 7353   6.049   5.412   9.507  0.3716 -0.4825  0.1957
   66CHL1  H24B 7354   5.912   5.503   9.437  0.2574 -1.9784 -0.0211
   66CHL1   C25 7355   6.094   5.535   9.329  0.4305  0.1135 -0.2153
   66CHL1   H25 7356   6.194   5.579   9.348  0.2109 -0.2473  1.7986
   66CHL1   C26 7357   6.137   5.402   9.262  0.1861 -0.4657  0.3120
   66CHL1  H26A 7358   6.163   5.330   9.343  0.7759  1.0942  1.5439
   66CHL1  H26B 7359   6.058   5.351   9.204 -0.1278 -0.4831  0.7573
   66CHL1  H26C 7360   6.225   5.429   9.199  0.5219  0.7996  1.2879
   66CHL1   C27 7361   6.022   5.635   9.244  0.9494  0.2302 -0.0383
   66CHL1  H27A 7362   6.088   5.671   9.162  0.2498 -1.3407 -1.3297
   66CHL1  H27B 7363   5.934   5.591   9.192  1.8769 -0.5607 -0.9631
   66CHL1  H27C 7364   5.984   5.723   9.300  0.1247  0.1816 -0.5114
   67CHL1    C3 7365   3.343   6.404  10.278  0.2851 -0.5070  0.6877
   67CHL1    H3 7366   3.270   6.320  10.282 -1.1184  0.7549  2.4553
   67CHL1    O3 7367   3.360   6.431  10.417  0.4299 -0.4411  0.0341
   67CHL1   H3' 7368   3.398   6.347  10.440 -1.2085 -1.6028 -1.3751
   67CHL1    C4 7369   3.482   6.360  10.228  0.8921  0.4046 -0.9899
   67CHL1   H4A 7370   3.559   6.440  10.241  0.9954  0.0134  1.0547
   67CHL1   H4B 7371   3.505   6.272  10.292  0.1224  0.3775 -0.7537
   67CHL1    C5 7372   3.465   6.318  10.087 -0.6972 -0.5663 -0.2530
   67CHL1    C6 7373   3.500   6.202  10.034  0.4588  0.3740  0.2945
   67CHL1    H6 7374   3.537   6.116  10.092 -1.0609  0.0299  0.7893
   67CHL1    C7 7375   3.497   6.176   9.886 -0.5144 -0.3028  0.6727
   67CHL1   H7A 7376   3.594   6.135   9.851 -0.4440 -1.7264  2.4858
   67CHL1   H7B 7377   3.417   6.103   9.859 -0.8164 -0.0752  0.9527
   67CHL1    C8 7378   3.467   6.296   9.797 -0.0459 -0.8388 -0.8402
   67CHL1    H8 7379   3.560   6.357   9.791  1.1911 -2.7088 -1.1562
   67CHL1   C14 7380   3.428   6.254   9.656 -0.2234  0.3877 -0.8352
   67CHL1   H14 7381   3.332   6.199   9.667 -0.5631  1.1035 -0.1925
   67CHL1   C15 7382   3.517   6.157   9.567  0.0569  0.5869  0.5683
   67CHL1  H15A 7383   3.619   6.198   9.582  0.2345  0.2806  0.2158
   67CHL1  H15B 7384   3.509   6.050   9.598  0.6341  1.0558  2.3870
   67CHL1   C16 7385   3.464   6.170   9.428  0.8241 -0.4324 -0.1825
   67CHL1  H16A 7386   3.538   6.206   9.354  0.0387 -0.0365 -0.7926
   67CHL1  H16B 7387   3.430   6.076   9.380  2.2657 -1.5942  1.0394
   67CHL1   C17 7388   3.354   6.287   9.430  0.0645  0.2691 -0.1493
   67CHL1   H17 7389   3.257   6.235   9.447  0.5245 -0.3999  0.4644
   67CHL1   C13 7390   3.383   6.364   9.561 -0.0358  0.0189  0.1532
   67CHL1   C18 7391   3.502   6.453   9.520 -0.2192 -0.0577 -0.6226
   67CHL1  H18A 7392   3.569   6.412   9.441  1.7217  2.4900 -0.3407
   67CHL1  H18B 7393   3.459   6.549   9.485 -1.9570 -0.5457  0.0686
   67CHL1  H18C 7394   3.567   6.483   9.605  1.3715  0.2186 -1.9194
   67CHL1   C12 7395   3.269   6.442   9.623  0.4883 -0.5751  0.7909
   67CHL1  H12A 7396   3.261   6.535   9.562  3.8018 -1.0670 -0.4591
   67CHL1  H12B 7397   3.169   6.394   9.617  0.0674  0.3660 -0.0511
   67CHL1   C11 7398   3.311   6.500   9.756  0.8196  0.2690 -0.0952
   67CHL1  H11A 7399   3.383   6.583   9.742  1.4560 -0.2357  0.1868
   67CHL1  H11B 7400   3.217   6.541   9.799  0.5876 -1.0570  0.6753
   67CHL1    C9 7401   3.357   6.389   9.857 -0.4210  0.0079  0.1956
   67CHL1    H9 7402   3.272   6.319   9.865 -0.4576  0.1916  1.4931
   67CHL1   C10 7403   3.405   6.433  10.001 -0.1866 -0.2399 -0.3870
   67CHL1   C19 7404   3.511   6.546   9.991  0.1492 -0.8467  0.8477
   67CHL1  H19A 7405   3.604   6.520   9.937  0.5190 -1.0987  1.5931
   67CHL1  H19B 7406   3.467   6.631   9.935  1.9042 -0.5748 -0.1279
   67CHL1  H19C 7407   3.530   6.595  10.089 -0.8254  1.4858 -0.1053
   67CHL1    C1 7408   3.278   6.483  10.063 -1.0665  0.0801 -0.2019
   67CHL1   H1A 7409   3.248   6.578  10.014  1.1625  0.3345 -1.1342
   67CHL1   H1B 7410   3.195   6.410  10.048 -0.5611 -0.5465  0.0520
   67CHL1    C2 7411   3.282   6.519  10.208  0.1125 -0.2375 -0.3005
   67CHL1   H2A 7412   3.177   6.537  10.239  0.7423 -0.4061  2.0556
   67CHL1   H2B 7413   3.347   6.609  10.208  1.2835 -1.0567  1.4884
   67CHL1   C20 7414   3.331   6.361   9.298 -0.6194 -0.5931 -0.9817
   67CHL1   H20 7415   3.432   6.400   9.276 -0.8045  0.6531  0.2894
   67CHL1   C21 7416   3.229   6.471   9.305  0.0566  0.4072  0.4278
   67CHL1  H21A 7417   3.142   6.441   9.367  0.0291 -2.6762 -0.9833
   67CHL1  H21B 7418   3.181   6.495   9.208  4.5870  0.8512 -1.8046
   67CHL1  H21C 7419   3.273   6.566   9.342  0.7636  0.4241 -0.4365
   67CHL1   C22 7420   3.298   6.268   9.176 -0.6176 -0.2745 -0.2854
   67CHL1  H22A 7421   3.330   6.164   9.196  0.4970  0.2743  0.8449
   67CHL1  H22B 7422   3.190   6.284   9.155 -0.6762  1.7852  1.3657
   67CHL1   C23 7423   3.377   6.319   9.055 -0.0495  0.4519 -0.1206
   67CHL1  H23A 7424   3.368   6.430   9.052 -3.1040  0.2128 -2.7369
   67CHL1  H23B 7425   3.486   6.304   9.068 -0.2413 -1.4357 -0.6461
   67CHL1   C24 7426   3.333   6.251   8.925  0.0433  0.0350  0.1811
   67CHL1  H24A 7427   3.339   6.142   8.943  0.5033  0.2902  1.6965
   67CHL1  H24B 7428   3.226   6.268   8.898  1.6135  2.3846 -5.2453
   67CHL1   C25 7429   3.422   6.286   8.802 -0.7569 -0.2173  0.4381
   67CHL1   H25 7430   3.523   6.250   8.831 -0.7107 -0.1360  0.3780
   67CHL1   C26 7431   3.364   6.225   8.674  0.4338  0.7350 -0.1874
   67CHL1  H26A 7432   3.455   6.225   8.610  0.1451  2.4930 -0.6171
   67CHL1  H26B 7433   3.312   6.127   8.685 -1.3246  1.4066 -1.9719
   67CHL1  H26C 7434   3.289   6.296   8.632 -0.8566 -0.8601 -0.6870
   67CHL1   C27 7435   3.428   6.435   8.790 -0.1702  0.0655  0.0331
   67CHL1  H27A 7436   3.495   6.456   8.705  0.1605 -0.0509  0.2659
   67CHL1  H27B 7437   3.332   6.473   8.749  1.0463  1.8645 -1.2391
   67CHL1  H27C 7438   3.457   6.498   8.877  1.5658 -0.7557  0.0763
   68CHL1    C3 7439   1.424   0.390  10.149  0.5309 -0.0180 -0.7281
   68CHL1    H3 7440   1.523   0.438  10.131  1.3466 -0.4980  2.3548
   68CHL1    O3 7441   1.405   0.378  10.288 -0.0141  0.2354 -0.0956
   68CHL1   H3' 7442   1.319   0.340  10.309  1.1914 -1.0851  2.7809
   68CHL1    C4 7443   1.303   0.471  10.087 -0.1547  0.4843 -0.2044
   68CHL1   H4A 7444   1.208   0.440  10.136  1.0652  0.5869  2.3597
   68CHL1   H4B 7445   1.322   0.574  10.124  1.0720  0.3047 -0.3119
   68CHL1    C5 7446   1.289   0.470   9.941 -0.8198  0.8368  0.2147
   68CHL1    C6 7447   1.267   0.574   9.867 -0.1152  0.2794 -0.2027
   68CHL1    H6 7448   1.268   0.672   9.917  1.1188  0.0052  0.3097
   68CHL1    C7 7449   1.244   0.573   9.723  0.8021  0.8771  0.4209
   68CHL1   H7A 7450   1.154   0.632   9.694 -0.8399 -1.9829 -0.4913
   68CHL1   H7B 7451   1.332   0.616   9.671  0.5232 -1.9796 -2.5868
   68CHL1    C8 7452   1.218   0.434   9.663 -0.6330 -0.7146 -0.2969
   68CHL1    H8 7453   1.111   0.413   9.686 -0.8930  0.4555 -0.4549
   68CHL1   C14 7454   1.242   0.438   9.516 -0.0809  0.1055  0.3992
   68CHL1   H14 7455   1.351   0.456   9.507 -0.2494  0.5526 -0.8413
   68CHL1   C15 7456   1.172   0.545   9.430 -0.1935 -0.2182 -0.0631
   68CHL1  H15A 7457   1.068   0.552   9.470  0.3176 -2.6945  1.8729
   68CHL1  H15B 7458   1.232   0.638   9.435 -1.8313  0.9637 -1.9651
   68CHL1   C16 7459   1.170   0.501   9.283 -0.3455  0.2910  0.0141
   68CHL1  H16A 7460   1.064   0.495   9.250 -0.6853 -0.3291  1.1981
   68CHL1  H16B 7461   1.236   0.560   9.216 -3.0135  3.0663 -0.3054
   68CHL1   C17 7462   1.220   0.351   9.293 -1.5946 -0.1324  0.1093
   68CHL1   H17 7463   1.329   0.359   9.272 -1.7823  2.7403 -0.0092
   68CHL1   C13 7464   1.206   0.308   9.448 -0.3345 -0.3295  0.3963
   68CHL1   C18 7465   1.057   0.269   9.479 -0.0477 -0.4414 -0.1796
   68CHL1  H18A 7466   1.049   0.249   9.588  1.9885  1.8143  0.4413
   68CHL1  H18B 7467   0.974   0.338   9.454  1.4995  2.9193  3.3923
   68CHL1  H18C 7468   1.041   0.169   9.433  1.0657  0.1895 -1.9948
   68CHL1   C12 7469   1.300   0.199   9.498  0.2666  0.0697  0.0720
   68CHL1  H12A 7470   1.283   0.101   9.449  1.5402  0.8985 -2.0979
   68CHL1  H12B 7471   1.406   0.221   9.473  0.1253 -1.2429 -1.8217
   68CHL1   C11 7472   1.298   0.185   9.652 -0.1544 -0.4726  0.0215
   68CHL1  H11A 7473   1.201   0.134   9.670  0.4363 -1.6930 -0.2120
   68CHL1  H11B 7474   1.379   0.121   9.692  1.0429  0.8280 -0.2723
   68CHL1    C9 7475   1.309   0.323   9.714 -0.0509  0.3728 -0.5997
   68CHL1    H9 7476   1.415   0.353   9.699  0.4845 -0.0988  2.1403
   68CHL1   C10 7477   1.294   0.323   9.880 -0.3226 -0.6003  0.0413
   68CHL1   C19 7478   1.161   0.242   9.921  0.4436 -0.6973 -0.4250
   68CHL1  H19A 7479   1.142   0.259  10.029 -1.4893 -1.8662 -0.5618
   68CHL1  H19B 7480   1.067   0.280   9.875  0.6318 -0.1450 -0.3662
   68CHL1  H19C 7481   1.176   0.134   9.900 -1.1055 -0.5477 -2.5783
   68CHL1    C1 7482   1.419   0.252   9.935 -0.3209 -0.2567 -0.3710
   68CHL1   H1A 7483   1.404   0.145   9.910 -1.3111  0.2745 -2.0646
   68CHL1   H1B 7484   1.503   0.308   9.887  0.0156  1.9790  2.6791
   68CHL1    C2 7485   1.429   0.249  10.090  0.5398 -0.3761  0.6914
   68CHL1   H2A 7486   1.525   0.204  10.123  0.2690 -0.7086  1.0425
   68CHL1   H2B 7487   1.343   0.184  10.119 -0.0844  0.3137  0.3998
   68CHL1   C20 7488   1.168   0.252   9.189 -0.1170 -0.3303  0.0505
   68CHL1   H20 7489   1.172   0.146   9.224 -0.6310 -0.7341 -1.0886
   68CHL1   C21 7490   1.253   0.273   9.060 -0.3918 -0.6255 -0.0654
   68CHL1  H21A 7491   1.360   0.270   9.092 -0.7064  0.8510  1.1782
   68CHL1  H21B 7492   1.227   0.372   9.017  3.4388  1.2164  1.6017
   68CHL1  H21C 7493   1.249   0.189   8.988 -1.5867 -0.9990  0.4276
   68CHL1   C22 7494   1.013   0.261   9.153 -0.4377  0.5959  0.1314
   68CHL1  H22A 7495   0.950   0.274   9.243  1.1822 -0.0956  1.3855
   68CHL1  H22B 7496   1.005   0.354   9.092  2.0998 -0.1937 -1.4633
   68CHL1   C23 7497   0.963   0.136   9.072  0.1417  0.2107 -0.1926
   68CHL1  H23A 7498   1.027   0.121   8.983  1.2203  0.3432  0.5579
   68CHL1  H23B 7499   0.959   0.049   9.141 -0.9522  0.4909  0.1187
   68CHL1   C24 7500   0.819   0.148   9.008 -0.3482 -0.1297  0.4003
   68CHL1  H24A 7501   0.802   0.047   8.965  0.6233 -0.2585  0.2984
   68CHL1  H24B 7502   0.745   0.156   9.091  0.3380  1.0719  0.8982
   68CHL1   C25 7503   0.792   0.268   8.907  0.2210  0.3984 -0.0806
   68CHL1   H25 7504   0.846   0.360   8.937 -0.3621  0.8951 -0.5604
   68CHL1   C26 7505   0.847   0.233   8.766  0.2950 -0.0019  0.0347
   68CHL1  H26A 7506   0.759   0.200   8.707 -0.4039  0.0663  1.0160
   68CHL1  H26B 7507   0.896   0.319   8.716 -1.8684  0.6551 -0.9909
   68CHL1  H26C 7508   0.916   0.146   8.774 -1.0200 -1.0085  0.6897
   68CHL1   C27 7509   0.645   0.308   8.894  0.8216 -0.4507 -0.8457
   68CHL1  H27A 7510   0.611   0.348   8.991  1.4480  2.3151 -1.7371
   68CHL1  H27B 7511   0.625   0.383   8.815 -0.2729 -0.3352 -0.4720
   68CHL1  H27C 7512   0.577   0.227   8.858 -4.1103  2.5572  1.1943
   69CHL1    C3 7513   6.819   4.871   6.893  0.2392  0.2261 -0.5902
   69CHL1    H3 7514   6.925   4.898   6.872  0.3830  0.6505  0.6347
   69CHL1    O3 7515   6.764   4.844   6.769 -0.2878 -0.1994  0.3574
   69CHL1   H3' 7516   6.685   4.794   6.789 -0.1701  0.5263  2.9155
   69CHL1    C4 7517   6.806   4.743   6.977  0.2645 -0.1090 -0.0623
   69CHL1   H4A 7518   6.704   4.697   6.976  0.0391  0.3691 -2.4116
   69CHL1   H4B 7519   6.873   4.666   6.933  1.1764  0.1225  0.8974
   69CHL1    C5 7520   6.851   4.768   7.119  0.5236 -0.5318 -0.2679
   69CHL1    C6 7521   6.943   4.679   7.171  0.6058  0.1555 -0.0223
   69CHL1    H6 7522   6.976   4.595   7.108  0.2860  0.2257 -0.2864
   69CHL1    C7 7523   6.991   4.689   7.314 -0.7989 -0.8186  0.2663
   69CHL1   H7A 7524   6.989   4.587   7.357  0.8457 -0.7172  0.6137
   69CHL1   H7B 7525   7.095   4.727   7.330  0.1378 -2.7317 -1.1252
   69CHL1    C8 7526   6.903   4.783   7.404 -0.1179 -0.2447 -0.4085
   69CHL1    H8 7527   6.804   4.733   7.416  0.2226 -0.8805 -0.2436
   69CHL1   C14 7528   6.977   4.823   7.536  0.2448  0.3557  0.1993
   69CHL1   H14 7529   7.068   4.879   7.508 -0.6666  0.6781 -2.2152
   69CHL1   C15 7530   7.026   4.704   7.615  0.4739  0.7058  0.1459
   69CHL1  H15A 7531   6.938   4.636   7.614 -0.2227  1.5290  2.4722
   69CHL1  H15B 7532   7.110   4.652   7.563  0.4991  0.5326  0.3589
   69CHL1   C16 7533   7.051   4.766   7.749 -0.4995 -0.7361 -0.1935
   69CHL1  H16A 7534   6.992   4.713   7.827 -0.6848 -0.2712 -0.0173
   69CHL1  H16B 7535   7.159   4.778   7.773 -0.0745 -1.1529 -1.8109
   69CHL1   C17 7536   6.993   4.918   7.756 -0.6170  0.1547  0.4910
   69CHL1   H17 7537   7.075   4.985   7.724 -0.4203 -0.6842 -0.8133
   69CHL1   C13 7538   6.898   4.919   7.626 -0.0725  0.3706 -0.3220
   69CHL1   C18 7539   6.768   4.857   7.669 -0.1088  0.2800 -0.0890
   69CHL1  H18A 7540   6.712   4.818   7.581  1.0718 -2.3938  0.2667
   69CHL1  H18B 7541   6.801   4.761   7.715  0.9633 -0.1113 -1.6210
   69CHL1  H18C 7542   6.702   4.920   7.732  0.8220 -0.3180  1.5147
   69CHL1   C12 7543   6.873   5.053   7.555  0.7867 -0.0155  0.6808
   69CHL1  H12A 7544   6.820   5.128   7.617  0.4494  1.5197 -1.3925
   69CHL1  H12B 7545   6.967   5.108   7.532 -0.6729  2.3715  0.1660
   69CHL1   C11 7546   6.800   5.029   7.420 -0.2376 -0.7897  0.4109
   69CHL1  H11A 7547   6.700   4.997   7.456  0.3432 -2.9679  0.1814
   69CHL1  H11B 7548   6.795   5.123   7.362 -2.3613 -0.7357  0.6550
   69CHL1    C9 7549   6.862   4.912   7.335 -0.2991  0.2596 -0.4572
   69CHL1    H9 7550   6.963   4.952   7.310  0.4510 -2.2246 -1.4922
   69CHL1   C10 7551   6.795   4.888   7.195  0.6788 -0.7104 -0.3611
   69CHL1   C19 7552   6.637   4.868   7.223  0.0799 -0.2183  0.1220
   69CHL1  H19A 7553   6.618   4.819   7.321 -1.0888 -0.1174 -0.0540
   69CHL1  H19B 7554   6.600   4.972   7.236  1.4208  0.2665  0.1737
   69CHL1  H19C 7555   6.591   4.815   7.138  1.5600  1.3207 -1.6843
   69CHL1    C1 7556   6.816   5.013   7.103 -0.0993  0.7332  0.0847
   69CHL1   H1A 7557   6.760   5.092   7.157  0.7402 -0.2579  2.4694
   69CHL1   H1B 7558   6.923   5.041   7.109 -0.7881  3.5818 -0.4050
   69CHL1    C2 7559   6.756   4.994   6.962  1.4172 -0.0781 -0.7011
   69CHL1   H2A 7560   6.763   5.089   6.904  0.5880  0.6362  0.3609
   69CHL1   H2B 7561   6.647   4.983   6.982  1.6364  0.7404  1.0334
   69CHL1   C20 7562   6.949   4.970   7.896  0.3084  0.4213  0.9781
   69CHL1   H20 7563   6.875   4.894   7.931 -1.6474  1.3294 -1.0866
   69CHL1   C21 7564   6.878   5.107   7.876 -0.3409  0.5062  0.3235
   69CHL1  H21A 7565   6.869   5.159   7.973 -0.6783  1.4908 -0.2311
   69CHL1  H21B 7566   6.781   5.109   7.822 -0.5971  0.6555  0.7942
   69CHL1  H21C 7567   6.952   5.159   7.811  1.1591 -1.7378  0.1726
   69CHL1   C22 7568   7.073   4.968   8.001 -0.0829 -0.0830 -0.5701
   69CHL1  H22A 7569   7.134   4.876   7.991 -1.8061 -1.2134 -0.9304
   69CHL1  H22B 7570   7.141   5.045   7.960  1.9118 -1.8821 -0.7598
   69CHL1   C23 7571   7.035   4.996   8.148  0.1984 -0.6879 -0.4556
   69CHL1  H23A 7572   7.009   5.104   8.156 -0.6836 -0.7933 -1.7425
   69CHL1  H23B 7573   6.937   4.945   8.155 -0.2107  0.3718  1.8798
   69CHL1   C24 7574   7.142   4.935   8.249 -0.4958 -0.1110 -0.1823
   69CHL1  H24A 7575   7.170   4.832   8.219 -0.1123  0.3548 -1.4560
   69CHL1  H24B 7576   7.235   4.995   8.233  0.1327 -0.2977  2.5670
   69CHL1   C25 7577   7.094   4.950   8.396 -0.4088  0.5531  0.3591
   69CHL1   H25 7578   7.016   4.872   8.417  0.2087  0.1482  1.2123
   69CHL1   C26 7579   7.217   4.914   8.487  0.1230 -0.2090 -1.1975
   69CHL1  H26A 7580   7.271   4.825   8.449 -1.0640 -1.7386  0.5904
   69CHL1  H26B 7581   7.268   5.011   8.509 -1.8127  0.7355 -0.8014
   69CHL1  H26C 7582   7.194   4.878   8.590  1.3067  1.4002 -0.3475
   69CHL1   C27 7583   7.055   5.090   8.435  0.3554  0.6681  0.3165
   69CHL1  H27A 7584   7.089   5.158   8.354 -0.9903  1.3158  0.2750
   69CHL1  H27B 7585   6.945   5.094   8.453  0.2686  1.0431 -0.2822
   69CHL1  H27C 7586   7.101   5.118   8.533  0.0346 -0.6470  0.8498
   70CHL1    C3 7587   6.493   1.662   7.141 -0.3843 -0.1900 -0.1681
   70CHL1    H3 7588   6.434   1.753   7.162 -1.3971 -0.9099  0.1432
   70CHL1    O3 7589   6.477   1.607   7.012 -0.0525 -0.4281 -0.3463
   70CHL1   H3' 7590   6.394   1.559   7.010 -0.2596 -0.0710 -0.3665
   70CHL1    C4 7591   6.638   1.694   7.161 -0.1298 -0.2575  0.2958
   70CHL1   H4A 7592   6.681   1.593   7.145 -0.7069 -0.4409 -0.1407
   70CHL1   H4B 7593   6.670   1.754   7.073  0.5569 -1.0627 -0.0055
   70CHL1    C5 7594   6.671   1.742   7.303  1.0908  0.2142  0.4669
   70CHL1    C6 7595   6.744   1.854   7.326 -0.2036 -0.2210  1.0423
   70CHL1    H6 7596   6.777   1.916   7.241 -0.4867 -0.6509  0.6174
   70CHL1    C7 7597   6.782   1.894   7.466 -0.3382 -0.0171  0.0972
   70CHL1   H7A 7598   6.876   1.953   7.454 -0.7348  0.4461 -0.7535
   70CHL1   H7B 7599   6.712   1.977   7.487  2.4043  2.5965 -0.6505
   70CHL1    C8 7600   6.784   1.787   7.575 -0.1457  0.4343  0.1401
   70CHL1    H8 7601   6.870   1.718   7.566 -0.6341 -0.1471 -0.1107
   70CHL1   C14 7602   6.782   1.851   7.719  0.0087  0.1933 -0.4557
   70CHL1   H14 7603   6.683   1.901   7.726  0.5190  1.0983  0.3956
   70CHL1   C15 7604   6.887   1.945   7.753  0.6434  0.0651  0.3088
   70CHL1  H15A 7605   6.989   1.910   7.727  0.9714  1.4625 -0.3644
   70CHL1  H15B 7606   6.875   2.043   7.702  0.0796 -0.0404  0.2370
   70CHL1   C16 7607   6.886   1.962   7.910 -0.0577 -0.2576 -0.4884
   70CHL1  H16A 7608   6.993   1.950   7.940 -0.1520 -0.3704 -0.1906
   70CHL1  H16B 7609   6.853   2.063   7.944 -0.2191 -0.2932 -0.5428
   70CHL1   C17 7610   6.789   1.847   7.957 -1.0421  0.4693 -0.5178
   70CHL1   H17 7611   6.693   1.898   7.979 -0.3684  1.0479  1.1646
   70CHL1   C13 7612   6.772   1.752   7.838  0.2249  0.2247  0.2414
   70CHL1   C18 7613   6.894   1.661   7.829  0.3604  0.0599  0.7466
   70CHL1  H18A 7614   6.903   1.576   7.900  5.4095  0.5098  0.7893
   70CHL1  H18B 7615   6.904   1.608   7.732 -0.7376 -1.0953  1.2419
   70CHL1  H18C 7616   6.988   1.718   7.840  0.1081  1.1675 -2.3171
   70CHL1   C12 7617   6.639   1.680   7.823  0.3476 -0.0954 -0.2923
   70CHL1  H12A 7618   6.632   1.599   7.899 -1.8001  1.2152  0.9590
   70CHL1  H12B 7619   6.554   1.750   7.837 -0.0908 -0.8175  0.7708
   70CHL1   C11 7620   6.630   1.614   7.685 -0.4375  0.2515 -0.5135
   70CHL1  H11A 7621   6.701   1.530   7.675 -2.2597 -1.0479 -3.1905
   70CHL1  H11B 7622   6.531   1.565   7.673 -0.1266 -1.4830  3.2316
   70CHL1    C9 7623   6.657   1.704   7.561 -0.1522  0.6293  0.3729
   70CHL1    H9 7624   6.577   1.780   7.562 -1.2975 -0.5522 -0.8846
   70CHL1   C10 7625   6.635   1.650   7.415  0.4473 -0.2136  0.0055
   70CHL1   C19 7626   6.721   1.517   7.405 -0.3540 -0.3093  0.1678
   70CHL1  H19A 7627   6.830   1.535   7.415  0.1508 -3.4054  0.8044
   70CHL1  H19B 7628   6.692   1.440   7.480 -1.2980 -0.8357 -0.7213
   70CHL1  H19C 7629   6.713   1.459   7.310  0.5298 -2.2233  1.2375
   70CHL1    C1 7630   6.484   1.609   7.398 -0.5598 -0.7500  0.1418
   70CHL1   H1A 7631   6.459   1.526   7.467  0.0153 -0.5318  0.6157
   70CHL1   H1B 7632   6.429   1.701   7.426 -1.5886 -1.4062  0.2753
   70CHL1    C2 7633   6.450   1.565   7.251  0.5511  0.3538  0.1397
   70CHL1   H2A 7634   6.339   1.560   7.245  0.6114  0.4745 -1.2321
   70CHL1   H2B 7635   6.500   1.467   7.235 -0.6999 -0.4285  0.9189
   70CHL1   C20 7636   6.833   1.785   8.093 -0.0720  1.3564  0.1078
   70CHL1   H20 7637   6.917   1.712   8.082 -0.9297  0.0384  2.0477
   70CHL1   C21 7638   6.714   1.717   8.163  0.8435 -0.2415  0.2312
   70CHL1  H21A 7639   6.743   1.639   8.237  1.1851  0.3147  0.6883
   70CHL1  H21B 7640   6.657   1.660   8.087 -1.9578  2.5059  0.2105
   70CHL1  H21C 7641   6.645   1.785   8.217  0.2039 -0.3473 -0.4546
   70CHL1   C22 7642   6.891   1.896   8.191  0.2815  0.2017  0.5958
   70CHL1  H22A 7643   6.985   1.950   8.169 -0.0071  0.6489  0.4403
   70CHL1  H22B 7644   6.809   1.972   8.190 -0.4405 -0.5817 -0.5665
   70CHL1   C23 7645   6.910   1.848   8.337 -0.3259 -0.3401  0.1380
   70CHL1  H23A 7646   6.923   1.930   8.411 -1.6027 -1.0312  1.1502
   70CHL1  H23B 7647   6.832   1.779   8.375 -0.7668 -0.9364 -1.7912
   70CHL1   C24 7648   7.044   1.772   8.349  0.0146  0.1126 -0.5578
   70CHL1  H24A 7649   7.035   1.672   8.300 -1.3188  0.0184 -0.1381
   70CHL1  H24B 7650   7.113   1.832   8.286  1.9898 -1.5295 -0.0291
   70CHL1   C25 7651   7.101   1.767   8.490  0.0579  0.2558 -0.5477
   70CHL1   H25 7652   7.094   1.869   8.534  0.3556 -0.2886  0.8097
   70CHL1   C26 7653   7.002   1.685   8.578 -0.0425 -0.4278 -0.2601
   70CHL1  H26A 7654   7.043   1.666   8.679 -2.5305  1.1188  1.0991
   70CHL1  H26B 7655   6.914   1.751   8.594  0.1355 -0.4051  0.6713
   70CHL1  H26C 7656   6.958   1.595   8.530 -1.2553  0.5165 -0.9482
   70CHL1   C27 7657   7.255   1.725   8.490  0.7634 -0.5900  0.0599
   70CHL1  H27A 7658   7.280   1.623   8.454 -1.0353 -0.9550 -0.1911
   70CHL1  H27B 7659   7.308   1.798   8.426 -2.8216  2.1968  0.1383
   70CHL1  H27C 7660   7.283   1.739   8.597 -0.5717 -4.7480  1.0372
   71CHL1    C3 7661   6.005   3.833   6.982  0.0534  0.6545 -0.1061
   71CHL1    H3 7662   5.966   3.937   6.976  0.8961  1.0097  0.4949
   71CHL1    O3 7663   5.964   3.765   6.859  0.2562 -0.5033 -0.1488
   71CHL1   H3' 7664   6.021   3.689   6.845 -0.9462 -1.0711 -2.0787
   71CHL1    C4 7665   6.157   3.831   6.972  0.0809 -0.4897 -0.0516
   71CHL1   H4A 7666   6.187   3.728   6.943 -1.2827 -0.5248 -1.4283
   71CHL1   H4B 7667   6.187   3.897   6.888 -0.0872  1.2055  1.2087
   71CHL1    C5 7668   6.229   3.877   7.100  0.1738 -0.6641  0.7900
   71CHL1    C6 7669   6.323   3.978   7.106  0.6327  0.0517 -0.9122
   71CHL1    H6 7670   6.346   4.043   7.020  3.6410 -1.4149 -1.2894
   71CHL1    C7 7671   6.404   4.002   7.239  0.0966  0.4004  0.2123
   71CHL1   H7A 7672   6.511   4.003   7.210  0.4611  1.4023  1.5452
   71CHL1   H7B 7673   6.380   4.105   7.275 -0.0707 -1.0357  4.4581
   71CHL1    C8 7674   6.381   3.894   7.348  0.2722 -0.4012  0.4445
   71CHL1    H8 7675   6.430   3.796   7.328  2.2322  0.7140 -0.4430
   71CHL1   C14 7676   6.429   3.949   7.485  0.3855  0.3090 -1.1927
   71CHL1   H14 7677   6.361   4.037   7.488 -1.5017 -1.0001 -3.8973
   71CHL1   C15 7678   6.577   3.991   7.507 -0.0547  0.3888  0.1314
   71CHL1  H15A 7679   6.648   3.915   7.467 -0.8121  0.2257 -0.9177
   71CHL1  H15B 7680   6.598   4.077   7.440 -1.5445  1.1193  0.5835
   71CHL1   C16 7681   6.596   4.010   7.652 -0.3059 -0.3425  0.0030
   71CHL1  H16A 7682   6.696   3.967   7.678  0.2661  0.3047 -1.1323
   71CHL1  H16B 7683   6.593   4.118   7.677  1.0212 -0.3189  0.0961
   71CHL1   C17 7684   6.471   3.941   7.720  0.1572  0.1521  0.0508
   71CHL1   H17 7685   6.401   4.025   7.740 -0.3605 -0.3171  0.2107
   71CHL1   C13 7686   6.407   3.856   7.608  0.0410  0.0696  0.3887
   71CHL1   C18 7687   6.490   3.728   7.589  0.0542 -0.2909 -0.5183
   71CHL1  H18A 7688   6.451   3.652   7.661  0.0287 -0.5045 -0.7565
   71CHL1  H18B 7689   6.458   3.677   7.496 -0.7186 -1.1804  0.2201
   71CHL1  H18C 7690   6.601   3.732   7.585  0.0810 -1.1068 -0.6977
   71CHL1   C12 7691   6.261   3.834   7.610  0.6136 -0.2096  0.0562
   71CHL1  H12A 7692   6.218   3.774   7.693 -0.5232  1.7228  0.8995
   71CHL1  H12B 7693   6.225   3.939   7.620  0.1027 -0.3908  0.0938
   71CHL1   C11 7694   6.200   3.776   7.484 -0.3458  0.0399 -0.5658
   71CHL1  H11A 7695   6.235   3.671   7.479 -1.8069 -0.6433  2.3376
   71CHL1  H11B 7696   6.090   3.768   7.500 -0.8436  1.4028 -3.0861
   71CHL1    C9 7697   6.231   3.857   7.357  0.6717 -0.2594 -0.6005
   71CHL1    H9 7698   6.176   3.954   7.361  1.5769  0.2364 -0.0599
   71CHL1   C10 7699   6.172   3.803   7.223  0.4731 -0.3158  0.1582
   71CHL1   C19 7700   6.209   3.650   7.210 -0.0344 -0.0126  0.1258
   71CHL1  H19A 7701   6.174   3.601   7.116  0.5088 -0.8648  0.3571
   71CHL1  H19B 7702   6.320   3.649   7.224 -0.1821 -0.3412  1.3101
   71CHL1  H19C 7703   6.168   3.587   7.292  1.4538 -2.5472 -0.9959
   71CHL1    C1 7704   6.011   3.808   7.231  0.5813 -0.4805  0.7109
   71CHL1   H1A 7705   5.978   3.757   7.324 -1.4538  0.2028  0.3669
   71CHL1   H1B 7706   5.993   3.917   7.242  2.1152  0.1715 -2.5512
   71CHL1    C2 7707   5.944   3.751   7.103  0.0657  0.1207  0.5834
   71CHL1   H2A 7708   5.833   3.754   7.111  0.0286 -1.3043  0.6056
   71CHL1   H2B 7709   5.977   3.649   7.074  0.7172 -0.0667  1.9445
   71CHL1   C20 7710   6.515   3.879   7.849  0.4732  0.4329  0.0436
   71CHL1   H20 7711   6.587   3.797   7.830  0.0369 -0.0315  0.3817
   71CHL1   C21 7712   6.397   3.807   7.911 -0.1409 -0.3133 -0.1074
   71CHL1  H21A 7713   6.358   3.727   7.845 -1.0847  2.3033 -2.8327
   71CHL1  H21B 7714   6.308   3.873   7.912 -1.1724 -1.7022 -0.2173
   71CHL1  H21C 7715   6.401   3.765   8.014 -1.6170  0.6624  0.3602
   71CHL1   C22 7716   6.594   3.976   7.945 -0.4171  0.1896 -0.4239
   71CHL1  H22A 7717   6.670   4.032   7.886  0.7085 -0.6212  0.2241
   71CHL1  H22B 7718   6.532   4.059   7.985 -0.3522  0.4519 -0.8660
   71CHL1   C23 7719   6.658   3.895   8.053 -0.5019  0.1539 -0.5650
   71CHL1  H23A 7720   6.581   3.852   8.120  0.5773  1.1750  1.3636
   71CHL1  H23B 7721   6.715   3.808   8.013 -1.6580 -0.0383 -1.8095
   71CHL1   C24 7722   6.763   3.975   8.136  0.1052  0.5592  0.0449
   71CHL1  H24A 7723   6.817   3.910   8.208  0.8658 -1.4741 -2.3288
   71CHL1  H24B 7724   6.844   4.002   8.065 -0.6166  1.9845 -0.2606
   71CHL1   C25 7725   6.732   4.108   8.198  0.2244  0.2489  0.2151
   71CHL1   H25 7726   6.702   4.183   8.122 -0.9858  2.4257  2.7504
   71CHL1   C26 7727   6.630   4.097   8.309 -0.2751 -0.4376  0.2245
   71CHL1  H26A 7728   6.607   4.199   8.348 -0.5083  0.4689 -2.2206
   71CHL1  H26B 7729   6.539   4.049   8.269 -0.8045 -0.1077  1.0216
   71CHL1  H26C 7730   6.666   4.029   8.390  2.6694  2.9780  1.9473
   71CHL1   C27 7731   6.858   4.175   8.267 -0.1439  0.0125  0.1222
   71CHL1  H27A 7732   6.937   4.205   8.195 -0.2185 -0.0125  0.0306
   71CHL1  H27B 7733   6.829   4.268   8.320 -1.1894 -0.2022 -0.0509
   71CHL1  H27C 7734   6.902   4.100   8.336 -1.1283 -2.9054 -2.2893
   72CHL1    C3 7735   6.561   2.277   7.063  0.3602  0.4352  0.3146
   72CHL1    H3 7736   6.471   2.340   7.049  1.5910  2.4573  1.2417
   72CHL1    O3 7737   6.577   2.202   6.941  0.1288 -0.0688 -0.1484
   72CHL1   H3' 7738   6.490   2.166   6.921 -1.1653  2.3093  1.0694
   72CHL1    C4 7739   6.669   2.384   7.065  0.4974  0.2443  0.0193
   72CHL1   H4A 7740   6.764   2.330   7.047 -0.0615 -0.7250 -0.0799
   72CHL1   H4B 7741   6.655   2.440   6.970 -1.5233 -1.4328 -0.7171
   72CHL1    C5 7742   6.672   2.467   7.188  0.9103  0.4747  0.0797
   72CHL1    C6 7743   6.664   2.603   7.182  0.0527  0.0379 -0.9181
   72CHL1    H6 7744   6.647   2.665   7.093  3.1953  2.7383  0.2569
   72CHL1    C7 7745   6.667   2.687   7.309  0.2072 -0.6621  0.7856
   72CHL1   H7A 7746   6.738   2.770   7.287  0.0957 -1.2431 -1.9546
   72CHL1   H7B 7747   6.572   2.737   7.339  0.2634  1.6566 -2.6008
   72CHL1    C8 7748   6.733   2.616   7.430 -0.6446  0.3577  0.5807
   72CHL1    H8 7749   6.841   2.616   7.403 -1.0716  1.8552 -1.3251
   72CHL1   C14 7750   6.711   2.696   7.553  0.1156  0.5561  0.0134
   72CHL1   H14 7751   6.601   2.695   7.568  0.3850  1.3699  2.4286
   72CHL1   C15 7752   6.747   2.846   7.554  0.7086 -0.0046  0.2780
   72CHL1  H15A 7753   6.851   2.865   7.519  0.3594 -0.3679 -1.0002
   72CHL1  H15B 7754   6.682   2.901   7.483  0.1574  0.1678  0.9156
   72CHL1   C16 7755   6.726   2.887   7.701  0.6879  0.8298 -0.1077
   72CHL1  H16A 7756   6.820   2.934   7.735  1.7074 -0.4527 -1.1011
   72CHL1  H16B 7757   6.637   2.953   7.701  0.3443  0.3715  0.4505
   72CHL1   C17 7758   6.717   2.747   7.783  0.6425  0.0074 -0.0795
   72CHL1   H17 7759   6.607   2.737   7.788  0.5422  0.9656 -0.3150
   72CHL1   C13 7760   6.763   2.636   7.685 -0.2299 -0.5163 -0.0464
   72CHL1   C18 7761   6.920   2.626   7.677  0.0028  0.3049 -1.0431
   72CHL1  H18A 7762   6.963   2.727   7.667  1.3603 -0.0951  0.4289
   72CHL1  H18B 7763   6.955   2.579   7.772  0.1599  0.5992 -0.9560
   72CHL1  H18C 7764   6.951   2.570   7.586  0.4209  0.5401 -1.0456
   72CHL1   C12 7765   6.702   2.499   7.702 -0.5381 -0.0187  0.2736
   72CHL1  H12A 7766   6.718   2.445   7.797  0.9232  0.7534  0.4738
   72CHL1  H12B 7767   6.592   2.515   7.693 -0.5163  0.3237  0.6075
   72CHL1   C11 7768   6.725   2.413   7.575 -0.4272  0.4219 -0.0190
   72CHL1  H11A 7769   6.833   2.391   7.580 -0.4638  0.5122  1.5685
   72CHL1  H11B 7770   6.672   2.318   7.596 -1.4675  0.4973 -2.1994
   72CHL1    C9 7771   6.678   2.478   7.447 -0.7440  0.1323  0.0649
   72CHL1    H9 7772   6.571   2.482   7.474 -1.1836  0.8967 -1.6737
   72CHL1   C10 7773   6.687   2.389   7.316  0.4148 -0.9684 -0.4988
   72CHL1   C19 7774   6.824   2.317   7.317 -0.1091  0.8348 -0.6328
   72CHL1  H19A 7775   6.855   2.250   7.234 -0.0194  1.6341 -1.2525
   72CHL1  H19B 7776   6.909   2.388   7.320 -0.0081  0.8387 -2.5132
   72CHL1  H19C 7777   6.833   2.249   7.404  2.4931 -0.8544 -2.1561
   72CHL1    C1 7778   6.564   2.283   7.317  0.8123 -0.6868  0.4038
   72CHL1   H1A 7779   6.542   2.237   7.416 -2.1492 -0.2482 -0.0034
   72CHL1   H1B 7780   6.471   2.344   7.317  0.6994 -0.8586  0.6319
   72CHL1    C2 7781   6.555   2.190   7.194 -0.7550 -0.2020 -0.0456
   72CHL1   H2A 7782   6.461   2.131   7.190 -2.2447  2.0981 -0.0686
   72CHL1   H2B 7783   6.647   2.128   7.183 -1.2312 -0.9676  0.2766
   72CHL1   C20 7784   6.769   2.752   7.929  0.6502  0.3178 -0.6691
   72CHL1   H20 7785   6.877   2.775   7.916  0.0001  2.3857 -2.6022
   72CHL1   C21 7786   6.757   2.618   7.998  0.2910  0.4516  0.1972
   72CHL1  H21A 7787   6.765   2.623   8.109  2.1315 -1.2482  0.1768
   72CHL1  H21B 7788   6.841   2.557   7.958 -0.2505  0.4869 -1.0026
   72CHL1  H21C 7789   6.662   2.565   7.976  0.9019  0.1361 -1.8451
   72CHL1   C22 7790   6.703   2.864   8.018  0.6969  0.0427  0.0068
   72CHL1  H22A 7791   6.677   2.943   7.945  2.0978  0.1746 -0.3538
   72CHL1  H22B 7792   6.612   2.826   8.069  1.9046  0.1909  2.3419
   72CHL1   C23 7793   6.803   2.928   8.108  0.4026 -0.0191 -0.9436
   72CHL1  H23A 7794   6.866   2.852   8.159  0.9239  0.3227 -1.0717
   72CHL1  H23B 7795   6.864   2.994   8.041 -0.4909  1.4606 -0.3210
   72CHL1   C24 7796   6.733   3.008   8.224  0.0849  0.1908  0.7301
   72CHL1  H24A 7797   6.710   3.111   8.189  3.1011 -0.0043 -1.9743
   72CHL1  H24B 7798   6.639   2.955   8.248  0.2097 -0.3497  0.0356
   72CHL1   C25 7799   6.816   3.023   8.353  0.1791  0.1746 -0.7933
   72CHL1   H25 7800   6.824   2.924   8.403 -2.2351 -0.5964 -1.8680
   72CHL1   C26 7801   6.950   3.085   8.328 -0.2397 -0.3068 -0.2486
   72CHL1  H26A 7802   6.933   3.190   8.296 -1.3469 -1.0690 -2.2853
   72CHL1  H26B 7803   7.009   3.080   8.422 -1.5383 -1.0829  0.5569
   72CHL1  H26C 7804   7.016   3.041   8.251  1.0383 -0.0150  0.6597
   72CHL1   C27 7805   6.745   3.102   8.461  0.0508  0.8409  0.2041
   72CHL1  H27A 7806   6.756   3.211   8.444  0.4742  0.6862 -0.5301
   72CHL1  H27B 7807   6.637   3.077   8.457  0.5609 -1.7681  1.2150
   72CHL1  H27C 7808   6.787   3.087   8.563 -0.1095 -1.8287 -0.0647
   73CHL1    C3 7809   5.820   5.207   6.996 -0.5357  0.5094 -0.5087
   73CHL1    H3 7810   5.835   5.316   7.005  1.0152  0.2797 -0.1510
   73CHL1    O3 7811   5.842   5.169   6.859  0.1007 -0.4220 -0.1207
   73CHL1   H3' 7812   5.763   5.132   6.819  0.6220 -0.7350 -0.8806
   73CHL1    C4 7813   5.933   5.147   7.081  0.3878  0.3056  0.1756
   73CHL1   H4A 7814   5.948   5.038   7.069  1.0109  0.2551  1.3322
   73CHL1   H4B 7815   6.027   5.195   7.045 -1.3255  3.4234 -0.3656
   73CHL1    C5 7816   5.911   5.168   7.228 -0.0273 -0.5886  0.7748
   73CHL1    C6 7817   6.012   5.201   7.303 -0.2576 -0.4360  0.0072
   73CHL1    H6 7818   6.111   5.210   7.256  0.5323 -1.7153  1.3826
   73CHL1    C7 7819   6.016   5.223   7.450 -0.0271  0.2562  0.8192
   73CHL1   H7A 7820   6.099   5.174   7.504  1.4308  0.1389 -1.5040
   73CHL1   H7B 7821   6.018   5.333   7.466  1.6049  0.7776 -2.6807
   73CHL1    C8 7822   5.881   5.179   7.516  0.0646 -0.3949 -0.1672
   73CHL1    H8 7823   5.899   5.070   7.528 -0.4644 -0.5469 -0.7619
   73CHL1   C14 7824   5.861   5.249   7.647  0.4471 -0.0900  0.0775
   73CHL1   H14 7825   5.844   5.358   7.632 -0.0611 -0.1918 -0.0746
   73CHL1   C15 7826   5.990   5.254   7.742 -0.1918  0.2154  0.4997
   73CHL1  H15A 7827   6.038   5.153   7.750 -1.6665 -0.4980  0.5187
   73CHL1  H15B 7828   6.069   5.329   7.722  1.4666 -2.0711 -1.9958
   73CHL1   C16 7829   5.920   5.278   7.876 -0.2009  0.0800  0.4594
   73CHL1  H16A 7830   5.960   5.201   7.946  0.0845  0.1525  0.3755
   73CHL1  H16B 7831   5.955   5.367   7.933 -0.9195  0.6585 -0.0022
   73CHL1   C17 7832   5.766   5.283   7.851  0.1799 -0.0750 -0.2346
   73CHL1   H17 7833   5.748   5.386   7.813 -0.0603 -1.2114 -3.3363
   73CHL1   C13 7834   5.744   5.199   7.725 -0.4978 -0.0203 -0.1352
   73CHL1   C18 7835   5.752   5.051   7.749  0.1220  0.0287 -0.3221
   73CHL1  H18A 7836   5.842   5.025   7.810 -1.6489  0.5405  2.6010
   73CHL1  H18B 7837   5.663   5.022   7.808  0.5423  0.0131  0.3197
   73CHL1  H18C 7838   5.755   4.997   7.653 -1.5382 -1.8189  0.6458
   73CHL1   C12 7839   5.615   5.231   7.643 -0.1971 -0.7575 -0.1841
   73CHL1  H12A 7840   5.523   5.200   7.698 -1.0967  1.8481 -0.1511
   73CHL1  H12B 7841   5.620   5.340   7.627 -1.6680 -0.4134  1.5638
   73CHL1   C11 7842   5.617   5.168   7.500 -0.5781 -0.1241 -0.2348
   73CHL1  H11A 7843   5.605   5.058   7.503  1.4852 -0.3411  1.0530
   73CHL1  H11B 7844   5.528   5.205   7.445  0.0902 -1.5578 -2.3623
   73CHL1    C9 7845   5.759   5.207   7.425 -0.5361 -0.0429 -0.9476
   73CHL1    H9 7846   5.756   5.317   7.412 -1.7067 -0.0158 -0.4991
   73CHL1   C10 7847   5.766   5.147   7.279  0.1204 -0.4793 -0.3998
   73CHL1   C19 7848   5.729   4.996   7.289  0.2033  0.5012 -0.8304
   73CHL1  H19A 7849   5.753   4.945   7.193 -0.2636 -2.8932  0.7960
   73CHL1  H19B 7850   5.791   4.950   7.369  1.0351 -0.6537 -2.1166
   73CHL1  H19C 7851   5.624   4.967   7.312  0.7877 -0.2263  1.0382
   73CHL1    C1 7852   5.667   5.217   7.189  0.2100  0.2558  0.0194
   73CHL1   H1A 7853   5.564   5.192   7.222 -0.3631  0.6380 -1.4635
   73CHL1   H1B 7854   5.671   5.328   7.197 -1.2670  0.4754 -2.0764
   73CHL1    C2 7855   5.682   5.170   7.043 -0.1563 -0.3730  0.0002
   73CHL1   H2A 7856   5.604   5.210   6.973 -0.7920  1.3225  1.6351
   73CHL1   H2B 7857   5.668   5.060   7.039  2.6592 -0.7032 -2.0766
   73CHL1   C20 7858   5.663   5.262   7.961  0.4162 -1.1760  0.0380
   73CHL1   H20 7859   5.581   5.203   7.914  0.5735  0.0049 -1.7630
   73CHL1   C21 7860   5.582   5.391   8.001 -0.1698 -0.3398  0.0785
   73CHL1  H21A 7861   5.496   5.379   8.070 -0.2315 -0.6097 -0.0491
   73CHL1  H21B 7862   5.528   5.425   7.910 -1.8317 -2.1835  0.3450
   73CHL1  H21C 7863   5.644   5.480   8.028 -1.2506  0.9432 -1.5717
   73CHL1   C22 7864   5.725   5.178   8.078  0.8659 -0.7028  0.1082
   73CHL1  H22A 7865   5.756   5.078   8.041 -1.1088 -0.4303 -2.3658
   73CHL1  H22B 7866   5.813   5.225   8.127 -0.9409  0.0650  2.7125
   73CHL1   C23 7867   5.633   5.145   8.191 -0.5997  0.0791 -0.1563
   73CHL1  H23A 7868   5.606   5.241   8.240 -0.1660 -0.8102  1.9265
   73CHL1  H23B 7869   5.540   5.099   8.150 -1.4704  0.0227  1.8144
   73CHL1   C24 7870   5.687   5.058   8.305 -0.2653  0.2024  0.9767
   73CHL1  H24A 7871   5.606   5.073   8.379 -0.2087  0.5674  0.9689
   73CHL1  H24B 7872   5.690   4.951   8.276 -1.4207  0.2809  0.5585
   73CHL1   C25 7873   5.813   5.104   8.373  0.6694  0.0900 -0.0100
   73CHL1   H25 7874   5.815   5.215   8.379  0.4590  0.2145 -1.9714
   73CHL1   C26 7875   5.803   5.055   8.528  0.7041  0.1902  0.2614
   73CHL1  H26A 7876   5.819   4.946   8.542  0.1690  0.1669  0.7049
   73CHL1  H26B 7877   5.888   5.107   8.578  2.0611 -0.8067 -0.9843
   73CHL1  H26C 7878   5.710   5.092   8.576 -0.3721 -1.3148 -0.6231
   73CHL1   C27 7879   5.946   5.052   8.309  0.0081 -0.3383  0.0005
   73CHL1  H27A 7880   5.956   4.942   8.316 -0.3634 -0.3343  0.6346
   73CHL1  H27B 7881   5.944   5.083   8.203 -0.1115 -1.4996 -0.3394
   73CHL1  H27C 7882   6.030   5.101   8.363  1.1587 -2.8390  0.5509
   74CHL1    C3 7883   4.641   3.776   7.161  0.0336  0.3407  0.5172
   74CHL1    H3 7884   4.537   3.791   7.199 -0.2250 -4.2756  1.8826
   74CHL1    O3 7885   4.614   3.762   7.027  0.6408  0.3833 -0.2688
   74CHL1   H3' 7886   4.704   3.756   6.994  0.7463 -0.5857  0.1817
   74CHL1    C4 7887   4.735   3.895   7.180 -0.2220  0.3354 -0.7893
   74CHL1   H4A 7888   4.833   3.885   7.127  0.6340 -0.4066  0.8748
   74CHL1   H4B 7889   4.689   3.987   7.139  1.2336  1.8981  1.0057
   74CHL1    C5 7890   4.771   3.903   7.328  0.4772 -0.3679  0.5582
   74CHL1    C6 7891   4.752   4.021   7.381  0.5343 -0.0578 -0.1275
   74CHL1    H6 7892   4.731   4.105   7.313 -2.0619 -1.5931 -1.2961
   74CHL1    C7 7893   4.776   4.052   7.524 -0.3345 -0.2125  0.5465
   74CHL1   H7A 7894   4.842   4.142   7.529  0.1698 -0.4379 -1.3311
   74CHL1   H7B 7895   4.681   4.071   7.578 -0.0298 -0.3960  1.1487
   74CHL1    C8 7896   4.847   3.942   7.596  0.2531 -0.1335  0.6248
   74CHL1    H8 7897   4.956   3.955   7.584  0.3350 -1.8048 -0.5932
   74CHL1   C14 7898   4.829   3.959   7.754  0.5077  0.1800  0.4882
   74CHL1   H14 7899   4.720   3.946   7.777  0.0930  1.9811 -0.3361
   74CHL1   C15 7900   4.857   4.097   7.809  0.1855 -0.2732  0.5341
   74CHL1  H15A 7901   4.943   4.152   7.765 -0.2284  0.5950  0.7980
   74CHL1  H15B 7902   4.771   4.166   7.801  0.1298 -0.6838 -2.7372
   74CHL1   C16 7903   4.883   4.068   7.954 -0.1710 -0.4058 -0.1576
   74CHL1  H16A 7904   4.988   4.086   7.985 -0.5846  0.7111  0.6225
   74CHL1  H16B 7905   4.812   4.122   8.020 -3.8486 -2.7457 -2.0188
   74CHL1   C17 7906   4.865   3.912   7.979  0.3788 -0.7525 -0.5387
   74CHL1   H17 7907   4.757   3.893   7.998  0.3086 -0.6510 -0.8308
   74CHL1   C13 7908   4.904   3.858   7.840  0.1673  0.5447  0.3785
   74CHL1   C18 7909   5.061   3.854   7.826 -0.3274 -0.0127  0.1561
   74CHL1  H18A 7910   5.097   3.959   7.819 -1.2223  0.2825 -0.0774
   74CHL1  H18B 7911   5.113   3.798   7.906  0.8554  1.9391  0.8000
   74CHL1  H18C 7912   5.088   3.804   7.731  2.6256 -1.4795  1.6989
   74CHL1   C12 7913   4.848   3.719   7.804 -1.1110 -0.7480 -0.3263
   74CHL1  H12A 7914   4.913   3.648   7.859  0.7541  0.5499 -0.8208
   74CHL1  H12B 7915   4.741   3.703   7.828 -1.1592  0.5908  0.3739
   74CHL1   C11 7916   4.858   3.696   7.648  0.2191  0.2831  0.0177
   74CHL1  H11A 7917   4.964   3.692   7.616  0.4751 -0.8281  0.9514
   74CHL1  H11B 7918   4.810   3.598   7.628  0.3906  0.0150  0.9073
   74CHL1    C9 7919   4.800   3.804   7.559 -0.1823 -0.2285 -0.0362
   74CHL1    H9 7920   4.693   3.795   7.585 -0.3798 -0.6537 -0.9559
   74CHL1   C10 7921   4.806   3.777   7.399  1.0059  0.9531  0.4009
   74CHL1   C19 7922   4.951   3.744   7.349  0.0191  0.4953  0.0815
   74CHL1  H19A 7923   4.959   3.723   7.240 -2.1061  1.2563 -0.2355
   74CHL1  H19B 7924   5.024   3.826   7.371  0.6445  0.0181 -0.2068
   74CHL1  H19C 7925   4.983   3.656   7.408  1.3759  0.5430 -0.5754
   74CHL1    C1 7926   4.709   3.665   7.370  0.2844  0.2186 -0.3479
   74CHL1   H1A 7927   4.759   3.572   7.405  2.8343  1.4810 -0.5235
   74CHL1   H1B 7928   4.618   3.680   7.432 -0.7820  2.6944 -2.4045
   74CHL1    C2 7929   4.691   3.645   7.220 -1.1310 -0.0817 -0.2413
   74CHL1   H2A 7930   4.618   3.567   7.189 -1.2785  0.3949 -1.0890
   74CHL1   H2B 7931   4.787   3.615   7.173 -0.8305 -0.5190  0.6402
   74CHL1   C20 7932   4.934   3.861   8.113 -0.3190 -0.2480 -0.5500
   74CHL1   H20 7933   5.044   3.873   8.114 -0.3943  0.3841  0.1023
   74CHL1   C21 7934   4.921   3.709   8.120 -0.1747 -0.0436  0.3441
   74CHL1  H21A 7935   4.814   3.693   8.095 -0.1129 -0.7518  0.5222
   74CHL1  H21B 7936   4.935   3.676   8.225  0.1045 -0.6477  0.1250
   74CHL1  H21C 7937   4.980   3.645   8.051 -1.6725  2.0766 -3.0235
   74CHL1   C22 7938   4.875   3.938   8.235  0.0627  0.0519 -0.4636
   74CHL1  H22A 7939   4.942   3.921   8.322 -1.2531  0.2692  0.6106
   74CHL1  H22B 7940   4.875   4.047   8.214  0.7072 -0.3528 -2.7217
   74CHL1   C23 7941   4.724   3.908   8.274 -1.2474 -0.2019  0.1550
   74CHL1  H23A 7942   4.668   3.939   8.183 -0.0079 -0.4680 -0.7092
   74CHL1  H23B 7943   4.705   3.800   8.290  2.1675 -0.9606 -0.4967
   74CHL1   C24 7944   4.674   3.994   8.386 -0.0818  0.5113 -0.0716
   74CHL1  H24A 7945   4.716   3.948   8.478  1.2014 -0.3144 -1.0582
   74CHL1  H24B 7946   4.707   4.100   8.389  1.0362  0.1365  1.1047
   74CHL1   C25 7947   4.521   3.990   8.427 -0.4801 -0.6706 -0.0835
   74CHL1   H25 7948   4.500   3.883   8.448  1.5115 -1.1913 -0.5806
   74CHL1   C26 7949   4.507   4.063   8.562  0.5274 -0.1462  0.6560
   74CHL1  H26A 7950   4.592   4.059   8.635  0.6789 -1.3844  0.4334
   74CHL1  H26B 7951   4.480   4.165   8.530  3.0262  0.8441  1.5601
   74CHL1  H26C 7952   4.410   4.032   8.608  0.6693 -0.0823  1.0015
   74CHL1   C27 7953   4.430   4.042   8.321  0.1836  0.0368 -0.0858
   74CHL1  H27A 7954   4.335   4.076   8.367  0.3382  0.9844 -0.4613
   74CHL1  H27B 7955   4.474   4.133   8.276  2.9108 -0.9005  0.5563
   74CHL1  H27C 7956   4.403   3.974   8.237 -3.7976 -1.2684  2.0960
   75CHL1    C3 7957   1.222   5.303   6.780  0.4094 -0.6414 -0.0885
   75CHL1    H3 7958   1.125   5.348   6.812  0.7697 -1.9704  3.0722
   75CHL1    O3 7959   1.232   5.245   6.649 -0.3944 -0.3193 -0.6451
   75CHL1   H3' 7960   1.204   5.153   6.646  0.4978 -0.6851  1.4464
   75CHL1    C4 7961   1.330   5.414   6.786  0.1421  0.3225  0.1094
   75CHL1   H4A 7962   1.428   5.375   6.749 -0.2815 -1.7450  1.1082
   75CHL1   H4B 7963   1.290   5.492   6.718 -2.8409  1.7011  3.2860
   75CHL1    C5 7964   1.348   5.473   6.924 -0.7189  0.4418 -0.3767
   75CHL1    C6 7965   1.340   5.603   6.949  0.1005 -0.3182  0.6646
   75CHL1    H6 7966   1.315   5.670   6.865 -0.6674 -0.8402  0.4744
   75CHL1    C7 7967   1.368   5.660   7.083  0.0362  0.3344 -0.0329
   75CHL1   H7A 7968   1.435   5.748   7.072 -0.9584  1.2072  0.7220
   75CHL1   H7B 7969   1.271   5.693   7.127 -0.7515 -1.9661  0.0210
   75CHL1    C8 7970   1.445   5.560   7.177 -0.0340 -0.1841 -0.2447
   75CHL1    H8 7971   1.553   5.555   7.152 -0.2222 -0.6696 -0.9793
   75CHL1   C14 7972   1.440   5.614   7.319  0.6569  0.2704  0.5584
   75CHL1   H14 7973   1.334   5.631   7.347  1.0625  1.2753  1.4859
   75CHL1   C15 7974   1.511   5.754   7.346 -0.4919 -0.3044  0.5689
   75CHL1  H15A 7975   1.605   5.765   7.287 -1.4485 -0.6473 -1.0430
   75CHL1  H15B 7976   1.438   5.836   7.331  0.0308 -0.5065 -3.6785
   75CHL1   C16 7977   1.544   5.750   7.490 -0.2888  0.4049 -0.3710
   75CHL1  H16A 7978   1.653   5.767   7.495 -0.4682  1.6771 -0.7683
   75CHL1  H16B 7979   1.505   5.837   7.547  1.3055  0.5022  0.5883
   75CHL1   C17 7980   1.498   5.614   7.546  0.1124 -0.4009 -0.1662
   75CHL1   H17 7981   1.396   5.622   7.589 -0.0134 -0.8695 -0.3763
   75CHL1   C13 7982   1.502   5.521   7.422  0.6128  0.0562 -0.4195
   75CHL1   C18 7983   1.651   5.487   7.380 -0.0865 -0.1132 -0.8525
   75CHL1  H18A 7984   1.716   5.439   7.456  0.1807 -1.6019 -1.9923
   75CHL1  H18B 7985   1.646   5.414   7.296 -0.0495  1.6060 -2.3905
   75CHL1  H18C 7986   1.708   5.577   7.351 -0.5584 -0.2008 -2.0813
   75CHL1   C12 7987   1.401   5.399   7.425 -0.0679 -0.3850  0.3759
   75CHL1  H12A 7988   1.428   5.333   7.511 -0.3728 -1.2876 -0.2202
   75CHL1  H12B 7989   1.299   5.438   7.446 -0.3290 -0.6570 -0.3724
   75CHL1   C11 7990   1.408   5.322   7.289  0.1883 -0.8349  0.4287
   75CHL1  H11A 7991   1.503   5.264   7.286  0.9732  0.5253 -1.7148
   75CHL1  H11B 7992   1.322   5.252   7.289 -0.6488  0.1808 -0.4709
   75CHL1    C9 7993   1.385   5.422   7.171 -0.3822 -0.3021  0.2169
   75CHL1    H9 7994   1.281   5.451   7.198 -0.2537 -0.3606  0.7927
   75CHL1   C10 7995   1.380   5.363   7.031  0.0256 -0.9806 -0.9775
   75CHL1   C19 7996   1.521   5.304   7.006  0.4426 -0.2132 -0.0423
   75CHL1  H19A 7997   1.534   5.209   7.062 -0.6471 -0.1523  0.3309
   75CHL1  H19B 7998   1.540   5.274   6.900 -1.0026 -0.6013 -0.2131
   75CHL1  H19C 7999   1.593   5.379   7.044  0.9308 -0.7772  0.1466
   75CHL1    C1 8000   1.265   5.254   7.022  0.4471  0.4228 -0.4250
   75CHL1   H1A 8001   1.284   5.165   7.085 -0.6193 -0.1671 -0.9378
   75CHL1   H1B 8002   1.170   5.304   7.049 -0.1247 -0.5313 -0.6791
   75CHL1    C2 8003   1.258   5.196   6.882 -0.4120 -0.3282  0.1584
   75CHL1   H2A 8004   1.176   5.121   6.889 -0.4837 -0.1273  1.8112
   75CHL1   H2B 8005   1.346   5.134   6.855 -1.0414 -0.4370 -1.7038
   75CHL1   C20 8006   1.592   5.575   7.667 -0.1985  0.0862 -0.3108
   75CHL1   H20 8007   1.696   5.556   7.635 -0.2152 -1.3216  0.4628
   75CHL1   C21 8008   1.530   5.448   7.723  0.3723  0.0002 -0.3979
   75CHL1  H21A 8009   1.571   5.427   7.824 -2.2875  1.1179  0.9624
   75CHL1  H21B 8010   1.559   5.370   7.649 -0.9140  1.0775 -2.0865
   75CHL1  H21C 8011   1.419   5.455   7.726  0.2535 -0.3110 -2.7729
   75CHL1   C22 8012   1.592   5.684   7.783  0.5131 -0.0030  0.1855
   75CHL1  H22A 8013   1.612   5.787   7.747  0.2574 -0.7756 -2.2905
   75CHL1  H22B 8014   1.488   5.689   7.822 -0.2546 -2.1560 -1.4672
   75CHL1   C23 8015   1.692   5.666   7.900 -0.1293  0.3156  0.1605
   75CHL1  H23A 8016   1.673   5.571   7.954 -1.6964  1.1300  1.0565
   75CHL1  H23B 8017   1.792   5.639   7.859  0.1544 -0.3999  1.3157
   75CHL1   C24 8018   1.699   5.781   8.003 -0.9470 -0.5263  1.5046
   75CHL1  H24A 8019   1.758   5.857   7.948  0.7912 -2.6507  0.3300
   75CHL1  H24B 8020   1.603   5.814   8.048 -2.2712 -0.4037 -1.2949
   75CHL1   C25 8021   1.797   5.748   8.119  0.3956  1.3463  0.2384
   75CHL1   H25 8022   1.889   5.703   8.077  0.3832  1.3143  0.2455
   75CHL1   C26 8023   1.832   5.878   8.191 -0.7525 -0.5090 -0.3703
   75CHL1  H26A 8024   1.887   5.849   8.283 -1.9300 -2.4986 -0.2708
   75CHL1  H26B 8025   1.896   5.946   8.131  0.8220 -0.6016  1.1716
   75CHL1  H26C 8026   1.745   5.940   8.221 -0.7491 -1.3845  1.4915
   75CHL1   C27 8027   1.727   5.649   8.214  0.3524  0.1159 -0.0098
   75CHL1  H27A 8028   1.696   5.551   8.174  2.5519 -1.2367  1.5029
   75CHL1  H27B 8029   1.792   5.620   8.300 -0.1748  0.0229  0.3609
   75CHL1  H27C 8030   1.638   5.699   8.259  0.6212 -0.7540  1.5205
   76CHL1    C3 8031   6.254   0.466   7.253 -0.3048 -0.1121  0.0759
   76CHL1    H3 8032   6.169   0.532   7.227 -0.2802 -0.6836 -1.4847
   76CHL1    O3 8033   6.320   0.426   7.136 -0.0035 -0.0900 -0.0625
   76CHL1   H3' 8034   6.253   0.370   7.095 -1.2564  1.1832  0.2020
   76CHL1    C4 8035   6.351   0.535   7.347 -0.0876  0.0451 -0.5040
   76CHL1   H4A 8036   6.437   0.471   7.374 -0.1742  0.0168 -0.2970
   76CHL1   H4B 8037   6.398   0.616   7.287 -0.2984 -0.0161 -0.7585
   76CHL1    C5 8038   6.302   0.580   7.475  0.2214  1.2195  0.3178
   76CHL1    C6 8039   6.304   0.707   7.527 -0.1892  0.0849 -0.0548
   76CHL1    H6 8040   6.357   0.782   7.466  0.5906  0.4641  1.0701
   76CHL1    C7 8041   6.245   0.752   7.658  0.0733 -0.2588  0.5310
   76CHL1   H7A 8042   6.319   0.818   7.708  0.8125  0.2199 -1.1633
   76CHL1   H7B 8043   6.145   0.795   7.640  1.5073  1.7875 -3.0334
   76CHL1    C8 8044   6.219   0.629   7.754  0.2723 -0.1437 -0.3074
   76CHL1    H8 8045   6.317   0.587   7.785  0.1573 -1.0504 -1.1598
   76CHL1   C14 8046   6.133   0.667   7.870 -0.2715  0.2507  0.0776
   76CHL1   H14 8047   6.036   0.694   7.823  0.0982  0.0161 -0.8308
   76CHL1   C15 8048   6.172   0.787   7.953 -0.4919 -0.6079  0.4186
   76CHL1  H15A 8049   6.280   0.783   7.979 -0.3352 -2.8007 -0.5137
   76CHL1  H15B 8050   6.161   0.883   7.898  0.4500 -0.6739  0.0973
   76CHL1   C16 8051   6.088   0.781   8.078 -0.1983  0.2258  0.3643
   76CHL1  H16A 8052   6.157   0.798   8.164  1.5740  0.4456 -1.0757
   76CHL1  H16B 8053   6.005   0.853   8.089 -0.5415 -0.3426  1.5336
   76CHL1   C17 8054   6.025   0.635   8.077 -0.4424 -0.3888 -0.0204
   76CHL1   H17 8055   5.922   0.658   8.044  0.2853 -1.6170 -3.2702
   76CHL1   C13 8056   6.097   0.558   7.973 -0.4181 -0.3806 -0.3389
   76CHL1   C18 8057   6.231   0.508   8.033  0.3689  0.0749 -0.3225
   76CHL1  H18A 8058   6.300   0.465   7.957  1.3453  1.3465 -0.1718
   76CHL1  H18B 8059   6.283   0.599   8.069 -0.3062  0.3695 -0.0911
   76CHL1  H18C 8060   6.212   0.435   8.115  2.2864 -0.2850 -0.1691
   76CHL1   C12 8061   6.020   0.440   7.893  0.0082 -0.4983  0.4721
   76CHL1  H12A 8062   6.008   0.354   7.962 -1.4988 -0.4554  0.2771
   76CHL1  H12B 8063   5.916   0.478   7.885  0.7133  1.0253 -1.9239
   76CHL1   C11 8064   6.100   0.397   7.767 -0.2641 -0.6720 -0.0677
   76CHL1  H11A 8065   6.181   0.332   7.807 -0.3161 -2.3748 -2.6266
   76CHL1  H11B 8066   6.034   0.326   7.713  0.5124 -0.6973 -0.9894
   76CHL1    C9 8067   6.150   0.512   7.680  0.0665  0.5258 -0.3940
   76CHL1    H9 8068   6.061   0.553   7.628 -0.3065  2.1520  1.4724
   76CHL1   C10 8069   6.240   0.465   7.559 -0.1119  0.2760 -0.5115
   76CHL1   C19 8070   6.362   0.379   7.605  0.8942 -0.1808  0.5659
   76CHL1  H19A 8071   6.338   0.299   7.678  2.7325  0.9812  2.4825
   76CHL1  H19B 8072   6.413   0.336   7.516 -0.5830 -2.5662  0.8136
   76CHL1  H19C 8073   6.431   0.450   7.655  1.7860  0.1923 -1.1639
   76CHL1    C1 8074   6.144   0.377   7.472  0.0822  0.2003  0.0414
   76CHL1   H1A 8075   6.129   0.285   7.533  0.1732  0.7392  0.8879
   76CHL1   H1B 8076   6.045   0.421   7.449  0.7878  2.4273  1.1195
   76CHL1    C2 8077   6.194   0.343   7.328 -0.3559  0.8294  0.2717
   76CHL1   H2A 8078   6.112   0.294   7.272  0.7647 -0.8046  0.0285
   76CHL1   H2B 8079   6.275   0.267   7.335 -3.0970 -2.2098 -0.0378
   76CHL1   C20 8080   6.007   0.578   8.217 -0.3947  0.4797 -0.0202
   76CHL1   H20 8081   6.113   0.558   8.243 -0.0528  4.1596  1.8321
   76CHL1   C21 8082   5.937   0.444   8.198  0.1178  0.2218 -0.5940
   76CHL1  H21A 8083   5.838   0.453   8.149 -0.2064 -1.5910 -0.3101
   76CHL1  H21B 8084   5.916   0.396   8.296 -1.1906 -0.0114 -0.9731
   76CHL1  H21C 8085   6.001   0.369   8.147  1.4506  0.4944  0.6438
   76CHL1   C22 8086   5.950   0.673   8.319  0.1890  0.6414 -0.8445
   76CHL1  H22A 8087   6.019   0.757   8.342  0.8349 -0.4543  1.3945
   76CHL1  H22B 8088   5.859   0.714   8.270 -1.8973 -0.9591  1.5358
   76CHL1   C23 8089   5.926   0.610   8.460 -0.5018 -0.0983 -0.6472
   76CHL1  H23A 8090   5.847   0.533   8.445 -1.3843  0.6629 -0.0299
   76CHL1  H23B 8091   6.024   0.574   8.498  0.0591  1.7287 -0.3070
   76CHL1   C24 8092   5.863   0.707   8.561  0.1534 -0.1205 -0.0886
   76CHL1  H24A 8093   5.930   0.786   8.601  1.5187 -1.4724  0.3516
   76CHL1  H24B 8094   5.787   0.770   8.509  0.1561  0.1567  0.2421
   76CHL1   C25 8095   5.801   0.632   8.682 -0.1059  0.0206  0.1638
   76CHL1   H25 8096   5.719   0.573   8.638 -1.6862  1.2091  1.4462
   76CHL1   C26 8097   5.908   0.546   8.763  0.0301  0.1706  0.1445
   76CHL1  H26A 8098   5.945   0.468   8.694 -0.4787  0.3806 -0.3719
   76CHL1  H26B 8099   5.990   0.608   8.806 -0.3736  1.1247 -0.4414
   76CHL1  H26C 8100   5.840   0.507   8.842 -0.0607  0.0393 -0.0013
   76CHL1   C27 8101   5.731   0.735   8.765  0.1691  0.0820  0.2702
   76CHL1  H27A 8102   5.704   0.684   8.860 -3.9855  1.1767 -0.2231
   76CHL1  H27B 8103   5.797   0.816   8.801  2.1846 -1.8359  1.0267
   76CHL1  H27C 8104   5.633   0.767   8.722 -0.8442  0.5930  2.9121
   77CHL1    C3 8105   5.997   5.566   6.805 -0.1861  0.0354 -0.0959
   77CHL1    H3 8106   5.969   5.460   6.822 -1.4886  0.5440  0.9910
   77CHL1    O3 8107   6.003   5.584   6.665 -0.7449  0.3870 -0.0042
   77CHL1   H3' 8108   6.003   5.679   6.649  0.1802  0.6653  1.6283
   77CHL1    C4 8109   5.891   5.662   6.866 -0.1712  0.3142  0.4736
   77CHL1   H4A 8110   5.918   5.765   6.834 -2.9858  0.3104 -2.1744
   77CHL1   H4B 8111   5.797   5.633   6.813  0.0839 -0.0126  0.1971
   77CHL1    C5 8112   5.885   5.657   7.013  0.4265  0.1436 -0.5802
   77CHL1    C6 8113   5.767   5.630   7.074  0.6195  0.3008 -0.1759
   77CHL1    H6 8114   5.684   5.607   7.006  3.2966 -0.7085 -3.2633
   77CHL1    C7 8115   5.744   5.648   7.217  0.5270  0.1070 -0.3897
   77CHL1   H7A 8116   5.662   5.711   7.259  0.1767 -0.1535 -0.6783
   77CHL1   H7B 8117   5.725   5.550   7.265 -1.5790 -0.7196 -2.8044
   77CHL1    C8 8118   5.874   5.690   7.300 -0.1248  0.4956  0.4133
   77CHL1    H8 8119   5.867   5.801   7.295 -0.4345  0.4488 -0.2168
   77CHL1   C14 8120   5.867   5.653   7.448 -1.2238  0.1183 -0.3700
   77CHL1   H14 8121   5.879   5.543   7.458 -0.1683  0.1689 -0.9871
   77CHL1   C15 8122   5.743   5.697   7.522  0.0028  0.2378 -0.3311
   77CHL1  H15A 8123   5.721   5.801   7.490  1.3386  0.7939  0.4861
   77CHL1  H15B 8124   5.661   5.626   7.501 -0.7849  0.5584  1.4991
   77CHL1   C16 8125   5.781   5.690   7.677  0.1088  0.5093 -0.5962
   77CHL1  H16A 8126   5.759   5.791   7.719  0.8218  0.5584 -0.3353
   77CHL1  H16B 8127   5.720   5.615   7.732 -0.6190  0.4230 -1.4886
   77CHL1   C17 8128   5.934   5.663   7.679  0.5162  0.0450  0.0476
   77CHL1   H17 8129   5.928   5.553   7.697  0.1686 -0.1057 -0.9903
   77CHL1   C13 8130   5.985   5.708   7.532  0.2833  0.3301  0.1180
   77CHL1   C18 8131   5.995   5.862   7.531 -0.1800  0.2086 -0.2264
   77CHL1  H18A 8132   6.093   5.891   7.575 -0.4996  1.2977 -0.2188
   77CHL1  H18B 8133   6.003   5.904   7.428  1.7673  1.2787  0.3268
   77CHL1  H18C 8134   5.907   5.907   7.582  1.2640  1.0430  1.5889
   77CHL1   C12 8135   6.108   5.644   7.477  0.6240 -0.7472  0.5466
   77CHL1  H12A 8136   6.199   5.672   7.534  1.3735  0.1345 -1.0389
   77CHL1  H12B 8137   6.090   5.536   7.492 -0.2807 -1.0134 -2.1483
   77CHL1   C11 8138   6.129   5.667   7.324  0.0913  1.2898  0.1488
   77CHL1  H11A 8139   6.147   5.776   7.320 -0.1403  1.3652  1.1205
   77CHL1  H11B 8140   6.212   5.605   7.284 -1.4447 -0.9300  0.2756
   77CHL1    C9 8141   6.006   5.643   7.236  0.0759  0.4302  0.2760
   77CHL1    H9 8142   6.001   5.533   7.225  0.3861  0.4800 -0.4161
   77CHL1   C10 8143   6.016   5.686   7.086  0.0884  0.6950 -1.3817
   77CHL1   C19 8144   6.054   5.837   7.080 -0.4297 -0.0256 -0.1516
   77CHL1  H19A 8145   5.969   5.896   7.121  0.4062  2.8410 -2.3868
   77CHL1  H19B 8146   6.146   5.859   7.138 -1.3670  0.0283  1.3493
   77CHL1  H19C 8147   6.065   5.870   6.974 -0.9651  0.3739 -0.0844
   77CHL1    C1 8148   6.132   5.609   7.020 -0.3531  1.2639  1.1047
   77CHL1   H1A 8149   6.231   5.644   7.055 -0.1045  1.0124  0.6543
   77CHL1   H1B 8150   6.120   5.504   7.055 -3.0533  0.9459 -0.6175
   77CHL1    C2 8151   6.135   5.613   6.866 -0.4009  0.0447 -0.5049
   77CHL1   H2A 8152   6.215   5.543   6.831  0.5571  0.9387 -0.1102
   77CHL1   H2B 8153   6.155   5.714   6.825  0.9516  0.1103  0.2683
   77CHL1   C20 8154   6.005   5.727   7.799  0.2003 -0.1467 -0.4727
   77CHL1   H20 8155   5.994   5.836   7.787  0.1514 -0.0173  0.6341
   77CHL1   C21 8156   6.152   5.686   7.803 -0.0925 -0.1994 -0.3744
   77CHL1  H21A 8157   6.147   5.583   7.763 -2.6706  0.2041 -1.1090
   77CHL1  H21B 8158   6.177   5.677   7.911  0.0961  0.9714 -0.3081
   77CHL1  H21C 8159   6.219   5.748   7.739  0.3053  0.8786  1.0401
   77CHL1   C22 8160   5.934   5.701   7.938 -0.3314 -0.0825  0.3000
   77CHL1  H22A 8161   5.826   5.689   7.914 -0.3509  2.9085 -1.3614
   77CHL1  H22B 8162   5.976   5.606   7.977 -2.3764 -0.7205  1.0656
   77CHL1   C23 8163   5.953   5.802   8.049 -0.1711 -0.7813 -0.7430
   77CHL1  H23A 8164   6.059   5.817   8.079 -0.2390  0.6585 -1.1619
   77CHL1  H23B 8165   5.917   5.897   8.004 -1.4042  0.8016  3.3185
   77CHL1   C24 8166   5.865   5.769   8.176 -0.2266  0.4636  0.3307
   77CHL1  H24A 8167   5.884   5.857   8.241  2.6050  0.1691 -0.0425
   77CHL1  H24B 8168   5.758   5.778   8.146  0.5497  0.4195 -2.5472
   77CHL1   C25 8169   5.931   5.650   8.261  0.3422  0.6892  0.1594
   77CHL1   H25 8170   5.958   5.571   8.188  3.6442  1.4130  0.5187
   77CHL1   C26 8171   6.065   5.688   8.320 -0.4699  0.5259  0.4267
   77CHL1  H26A 8172   6.118   5.597   8.356  1.0442  1.0009 -0.5717
   77CHL1  H26B 8173   6.144   5.723   8.251  1.3601 -1.5299  1.4202
   77CHL1  H26C 8174   6.047   5.759   8.404 -0.9292  1.2111 -0.2530
   77CHL1   C27 8175   5.835   5.599   8.369  0.1240  0.0667  0.1017
   77CHL1  H27A 8176   5.883   5.514   8.422  2.8639  0.9653 -0.8343
   77CHL1  H27B 8177   5.804   5.677   8.442 -2.0646 -1.3187  0.6875
   77CHL1  H27C 8178   5.740   5.558   8.329 -0.2411 -0.0549  1.0821
   78CHL1    C3 8179   2.061   0.326   6.585 -0.0038 -0.4763 -0.0843
   78CHL1    H3 8180   1.986   0.243   6.585 -2.3553  1.5881  1.6699
   78CHL1    O3 8181   2.099   0.366   6.458  0.0523  0.2061 -0.3624
   78CHL1   H3' 8182   2.164   0.301   6.429 -0.5255  0.4065 -2.1590
   78CHL1    C4 8183   1.997   0.448   6.651 -0.2433 -0.2512 -0.2844
   78CHL1   H4A 8184   2.072   0.531   6.653  0.5473 -0.9268 -1.2482
   78CHL1   H4B 8185   1.910   0.478   6.589 -1.3323 -3.7394 -0.5250
   78CHL1    C5 8186   1.966   0.427   6.797  0.0709  0.2207 -0.3063
   78CHL1    C6 8187   1.840   0.443   6.845 -0.0263  0.5051 -0.0210
   78CHL1    H6 8188   1.758   0.458   6.773  1.7584 -1.6814 -2.6145
   78CHL1    C7 8189   1.810   0.429   6.995 -0.0750  0.3884 -0.6947
   78CHL1   H7A 8190   1.738   0.504   7.034  1.6105  0.2967  2.8151
   78CHL1   H7B 8191   1.774   0.324   7.006  1.7517 -0.3658 -1.6596
   78CHL1    C8 8192   1.941   0.423   7.091 -0.8177 -0.0667  0.1324
   78CHL1    H8 8193   1.976   0.528   7.091  0.0559 -0.3198 -1.8185
   78CHL1   C14 8194   1.895   0.370   7.225 -0.3361  0.8157 -0.4252
   78CHL1   H14 8195   1.865   0.263   7.220 -0.3761  0.8572 -1.1711
   78CHL1   C15 8196   1.774   0.427   7.301 -0.3207 -0.9231  0.6470
   78CHL1  H15A 8197   1.774   0.535   7.276  0.3264 -0.5861  2.0729
   78CHL1  H15B 8198   1.673   0.393   7.270 -0.4433  1.5176 -1.9211
   78CHL1   C16 8199   1.800   0.390   7.452 -0.5691  0.7399 -0.4037
   78CHL1  H16A 8200   1.787   0.487   7.504  2.4837 -0.1962  2.2689
   78CHL1  H16B 8201   1.728   0.330   7.511  0.1596 -0.1316 -0.3867
   78CHL1   C17 8202   1.948   0.331   7.456  0.0715  0.0622  0.2745
   78CHL1   H17 8203   1.931   0.222   7.467  0.4605  0.1225  1.5308
   78CHL1   C13 8204   2.017   0.365   7.320  0.3470 -0.0618  0.1200
   78CHL1   C18 8205   2.074   0.512   7.330 -0.1487  0.0093 -0.6189
   78CHL1  H18A 8206   2.165   0.506   7.393 -0.7034  3.0712  0.5921
   78CHL1  H18B 8207   2.109   0.542   7.229  0.9561 -1.9715 -0.8595
   78CHL1  H18C 8208   1.998   0.577   7.379 -0.6638 -0.7948 -0.3329
   78CHL1   C12 8209   2.116   0.264   7.263  0.5099 -0.0985  0.0219
   78CHL1  H12A 8210   2.194   0.225   7.332  0.5407  1.9877  1.1930
   78CHL1  H12B 8211   2.056   0.173   7.243 -0.9233  0.2823  2.3803
   78CHL1   C11 8212   2.162   0.295   7.124  0.1532  0.3644 -0.1377
   78CHL1  H11A 8213   2.238   0.374   7.142 -0.5405  0.5044  2.3697
   78CHL1  H11B 8214   2.218   0.215   7.071  3.2687  1.8009  0.8503
   78CHL1    C9 8215   2.041   0.326   7.031 -0.1244 -0.3740 -0.4501
   78CHL1    H9 8216   1.985   0.230   7.021  0.5804 -0.8650  0.2022
   78CHL1   C10 8217   2.082   0.376   6.888  0.0619  0.2126  0.5402
   78CHL1   C19 8218   2.188   0.491   6.903 -0.7370 -0.5137  0.0979
   78CHL1  H19A 8219   2.158   0.574   6.970 -1.9350  2.4270 -3.8559
   78CHL1  H19B 8220   2.283   0.450   6.944 -0.3493 -0.1539 -0.4187
   78CHL1  H19C 8221   2.231   0.521   6.804 -0.7114  0.3960  0.3841
   78CHL1    C1 8222   2.138   0.248   6.813  0.9265 -0.5302  0.6786
   78CHL1   H1A 8223   2.222   0.198   6.866 -0.9147 -2.1714  2.1257
   78CHL1   H1B 8224   2.056   0.174   6.810 -0.7873  1.2484  2.5416
   78CHL1    C2 8225   2.185   0.278   6.669 -0.7445  0.7435  0.3180
   78CHL1   H2A 8226   2.220   0.183   6.622 -1.1621 -0.4407  2.3283
   78CHL1   H2B 8227   2.267   0.353   6.664 -0.1125 -0.0054 -1.2430
   78CHL1   C20 8228   2.020   0.356   7.589 -0.5192  0.0448  0.3421
   78CHL1   H20 8229   2.044   0.464   7.583 -1.1640  0.2713  1.8140
   78CHL1   C21 8230   2.156   0.281   7.591 -0.2103 -0.0533 -0.5690
   78CHL1  H21A 8231   2.149   0.173   7.569 -0.4050 -0.2052  0.2362
   78CHL1  H21B 8232   2.226   0.293   7.677  1.6676 -0.1544 -2.0331
   78CHL1  H21C 8233   2.209   0.312   7.498 -0.4728  0.2467 -0.6170
   78CHL1   C22 8234   1.929   0.334   7.724  0.4620  0.4965 -0.1935
   78CHL1  H22A 8235   1.841   0.402   7.721  0.5690  0.5971 -1.4797
   78CHL1  H22B 8236   1.890   0.230   7.726 -2.8606  1.6643 -1.1927
   78CHL1   C23 8237   1.998   0.367   7.856  0.1474 -0.5402  0.8247
   78CHL1  H23A 8238   2.075   0.287   7.859 -0.6494 -1.3398  0.3598
   78CHL1  H23B 8239   2.038   0.471   7.856  1.2251 -0.9484  1.2187
   78CHL1   C24 8240   1.916   0.354   7.986 -0.0197  1.0801 -0.0506
   78CHL1  H24A 8241   1.812   0.394   7.982 -0.8726 -1.1140 -1.4863
   78CHL1  H24B 8242   1.898   0.245   7.997  1.3344  1.1294  2.9978
   78CHL1   C25 8243   1.990   0.400   8.118 -0.0136 -0.4894  0.6032
   78CHL1   H25 8244   2.008   0.508   8.099 -0.9584 -0.2302  1.1491
   78CHL1   C26 8245   1.900   0.386   8.241 -0.0964 -0.0103 -0.5680
   78CHL1  H26A 8246   1.810   0.446   8.217  0.7942  0.7340 -2.0942
   78CHL1  H26B 8247   1.870   0.281   8.261 -0.3415  0.4559  1.6296
   78CHL1  H26C 8248   1.949   0.433   8.329 -0.5100 -0.5652 -0.0276
   78CHL1   C27 8249   2.127   0.336   8.138 -0.4884 -0.3430 -0.1185
   78CHL1  H27A 8250   2.119   0.226   8.155  4.2619 -0.6630  0.8332
   78CHL1  H27B 8251   2.188   0.350   8.046  1.6339 -0.8257  1.1882
   78CHL1  H27C 8252   2.177   0.373   8.230 -1.7294 -1.1866  0.9251
   79CHL1    C3 8253   0.298   0.174   7.348  0.5651 -0.2887  0.2942
   79CHL1    H3 8254   0.374   0.131   7.417 -1.3585 -0.8037  2.1430
   79CHL1    O3 8255   0.342   0.163   7.210 -0.0625  0.4308  0.6974
   79CHL1   H3' 8256   0.261   0.165   7.160  0.4506  1.1327 -0.1188
   79CHL1    C4 8257   0.158   0.103   7.370 -0.5742  0.0370  0.6172
   79CHL1   H4A 8258   0.104   0.157   7.289  1.9846 -0.9589 -1.8302
   79CHL1   H4B 8259   0.174  -0.006   7.352 -2.3884 -0.5100  2.1571
   79CHL1    C5 8260   0.095   0.121   7.508 -0.7578  0.0767 -0.9491
   79CHL1    C6 8261   0.073   0.017   7.583  0.1481  0.1174  0.2186
   79CHL1    H6 8262   0.089  -0.085   7.546  0.0934 -0.5955  2.1235
   79CHL1    C7 8263   0.025   0.032   7.721  0.2034 -0.0296 -0.6978
   79CHL1   H7A 8264  -0.056  -0.044   7.735  0.4104 -0.0523  0.4323
   79CHL1   H7B 8265   0.093  -0.003   7.801 -3.0714 -1.5721  1.5425
   79CHL1    C8 8266  -0.029   0.170   7.760  0.3300 -0.7144 -1.2734
   79CHL1    H8 8267  -0.128   0.183   7.710 -0.6809 -0.8313  0.6433
   79CHL1   C14 8268  -0.041   0.179   7.912  0.1032 -0.6555  0.4151
   79CHL1   H14 8269   0.062   0.169   7.953 -0.8211 -0.9092  2.7131
   79CHL1   C15 8270  -0.119   0.070   7.980 -0.3473 -0.0992 -0.4122
   79CHL1  H15A 8271  -0.213   0.058   7.922 -0.1246 -1.0017 -0.5911
   79CHL1  H15B 8272  -0.053  -0.019   7.986  0.8471  0.7886 -0.0607
   79CHL1   C16 8273  -0.135   0.122   8.127 -0.2570 -0.2653  0.2031
   79CHL1  H16A 8274  -0.242   0.109   8.153 -1.3040  1.0640 -3.0829
   79CHL1  H16B 8275  -0.064   0.074   8.197 -0.1189  1.7204  1.4548
   79CHL1   C17 8276  -0.087   0.270   8.121  0.8521  0.1771 -0.0205
   79CHL1   H17 8277   0.022   0.268   8.140  0.4612 -1.6837  2.2731
   79CHL1   C13 8278  -0.087   0.312   7.968 -0.0417 -0.7154 -0.4045
   79CHL1   C18 8279  -0.229   0.345   7.920 -0.2744 -0.5738 -0.0423
   79CHL1  H18A 8280  -0.226   0.368   7.811  2.2089 -0.7935 -0.0388
   79CHL1  H18B 8281  -0.299   0.260   7.934  0.5634 -1.2956 -0.2234
   79CHL1  H18C 8282  -0.273   0.430   7.976  0.0044 -1.0299  0.8817
   79CHL1   C12 8283   0.018   0.414   7.916  0.5027  0.2631  0.2872
   79CHL1  H12A 8284  -0.014   0.513   7.955  1.5668  0.7513 -0.0647
   79CHL1  H12B 8285   0.119   0.387   7.953  0.2717  2.3752  2.5563
   79CHL1   C11 8286   0.035   0.406   7.758  0.1563  0.2096 -0.6291
   79CHL1  H11A 8287  -0.063   0.441   7.720 -1.0335 -0.9296  1.3065
   79CHL1  H11B 8288   0.109   0.482   7.725  0.5769 -0.0152 -0.1999
   79CHL1    C9 8289   0.066   0.273   7.703 -0.4165 -0.7099 -0.6334
   79CHL1    H9 8290   0.161   0.247   7.755 -1.0972 -1.1653  0.3996
   79CHL1   C10 8291   0.092   0.268   7.550 -0.3455 -0.1954 -0.6424
   79CHL1   C19 8292  -0.031   0.336   7.478 -0.2383  0.0661  0.1156
   79CHL1  H19A 8293  -0.031   0.318   7.369  0.2739 -3.1329  0.6067
   79CHL1  H19B 8294  -0.126   0.301   7.524  0.4861 -0.5722  1.1388
   79CHL1  H19C 8295  -0.034   0.447   7.478  2.1437  0.1530  0.5768
   79CHL1    C1 8296   0.221   0.343   7.518  0.4280 -0.0441  0.7558
   79CHL1   H1A 8297   0.209   0.452   7.533  0.2947  0.2980 -1.5653
   79CHL1   H1B 8298   0.298   0.309   7.591  1.3093 -1.1340 -0.6412
   79CHL1    C2 8299   0.280   0.319   7.378 -0.4520 -0.6663  0.0426
   79CHL1   H2A 8300   0.375   0.374   7.364  0.0174 -1.2969  0.7264
   79CHL1   H2B 8301   0.216   0.359   7.296  0.1346 -2.0628 -1.1144
   79CHL1   C20 8302  -0.148   0.364   8.231 -0.7654  0.3449  0.5125
   79CHL1   H20 8303  -0.144   0.468   8.193  2.2843 -0.4854 -1.5922
   79CHL1   C21 8304  -0.076   0.343   8.357 -0.8593 -0.2092 -0.2189
   79CHL1  H21A 8305   0.034   0.346   8.341 -0.6491 -0.2196  1.1165
   79CHL1  H21B 8306  -0.101   0.241   8.393 -0.5189 -0.7868 -1.6247
   79CHL1  H21C 8307  -0.098   0.413   8.441  1.6972  0.7039 -0.2591
   79CHL1   C22 8308  -0.296   0.347   8.257  1.4247 -0.5322  0.3941
   79CHL1  H22A 8309  -0.353   0.356   8.162  0.8398  0.8570  0.8644
   79CHL1  H22B 8310  -0.322   0.251   8.307 -0.1674  0.6938  2.0054
   79CHL1   C23 8311  -0.347   0.469   8.344  0.0477 -0.0496 -0.4889
   79CHL1  H23A 8312  -0.281   0.492   8.431 -1.8589  0.2559  0.9240
   79CHL1  H23B 8313  -0.352   0.553   8.272  0.6310  0.8076  0.4581
   79CHL1   C24 8314  -0.482   0.444   8.406  0.2036  0.1543 -0.3044
   79CHL1  H24A 8315  -0.522   0.542   8.439 -1.0765 -0.1418 -0.9521
   79CHL1  H24B 8316  -0.544   0.401   8.325  2.4601 -1.7842 -1.0699
   79CHL1   C25 8317  -0.489   0.340   8.519 -0.0086  0.2867 -0.0180
   79CHL1   H25 8318  -0.434   0.250   8.483  1.3597  1.9633 -2.2650
   79CHL1   C26 8319  -0.416   0.373   8.649  0.2322  0.3705  0.2451
   79CHL1  H26A 8320  -0.306   0.369   8.641  0.2537  2.5066 -1.0133
   79CHL1  H26B 8321  -0.438   0.480   8.671  1.8751  1.4057 -2.9196
   79CHL1  H26C 8322  -0.441   0.297   8.726  0.0429 -0.8293 -0.9963
   79CHL1   C27 8323  -0.633   0.306   8.547  0.6922 -0.6681  0.0262
   79CHL1  H27A 8324  -0.699   0.395   8.553  1.9206  0.1951  0.8724
   79CHL1  H27B 8325  -0.672   0.250   8.459  2.0974 -0.3947 -0.7779
   79CHL1  H27C 8326  -0.639   0.234   8.632  0.6366 -1.1296 -0.3636
   80CHL1    C3 8327   4.958   4.150   7.032  0.3266  0.2553  0.1466
   80CHL1    H3 8328   4.864   4.130   7.088  0.2986 -0.9025 -0.3047
   80CHL1    O3 8329   4.932   4.154   6.887 -0.0578 -0.8142 -0.4828
   80CHL1   H3' 8330   5.020   4.133   6.854  0.4746 -1.2590  1.1745
   80CHL1    C4 8331   5.003   4.294   7.067  0.2831  0.1673 -0.4720
   80CHL1   H4A 8332   5.087   4.329   7.005  1.8702 -1.8651  0.4768
   80CHL1   H4B 8333   4.926   4.369   7.039 -0.0445 -0.4770 -1.3208
   80CHL1    C5 8334   5.056   4.309   7.214  0.1815  0.3985 -0.5595
   80CHL1    C6 8335   5.006   4.399   7.292  0.1171  0.1200 -0.0109
   80CHL1    H6 8336   4.930   4.470   7.257 -0.2979  0.2739  1.1702
   80CHL1    C7 8337   5.043   4.439   7.434 -0.3196 -0.3578  0.0686
   80CHL1   H7A 8338   5.062   4.548   7.438 -0.0716 -0.3764 -0.5329
   80CHL1   H7B 8339   4.957   4.420   7.502  0.6219 -1.7435  0.8986
   80CHL1    C8 8340   5.156   4.354   7.479  0.6765  0.7215  0.2718
   80CHL1    H8 8341   5.250   4.394   7.434  1.0176  1.1398  1.3500
   80CHL1   C14 8342   5.151   4.351   7.631 -0.7561  0.2003 -0.4940
   80CHL1   H14 8343   5.058   4.293   7.650  0.8670 -1.6856  1.9116
   80CHL1   C15 8344   5.126   4.476   7.705  0.1696 -0.7191  0.1972
   80CHL1  H15A 8345   5.186   4.557   7.657  1.3631 -1.7450 -0.0577
   80CHL1  H15B 8346   5.022   4.515   7.706  0.2138 -0.4556 -1.9138
   80CHL1   C16 8347   5.172   4.454   7.844  0.1429  0.7520 -0.2130
   80CHL1  H16A 8348   5.251   4.531   7.855  2.2687 -0.9953 -2.4976
   80CHL1  H16B 8349   5.092   4.471   7.919 -1.3671  2.2262 -2.1159
   80CHL1   C17 8350   5.238   4.311   7.847  0.6492 -0.1663 -0.4344
   80CHL1   H17 8351   5.163   4.232   7.866  2.7308 -1.6487  1.9572
   80CHL1   C13 8352   5.273   4.280   7.697  0.4766  0.5169  0.2247
   80CHL1   C18 8353   5.406   4.346   7.662  0.1148  0.6839  0.4708
   80CHL1  H18A 8354   5.401   4.448   7.708 -0.3634  0.9123 -0.0777
   80CHL1  H18B 8355   5.494   4.303   7.714 -0.4395 -0.5353  0.4038
   80CHL1  H18C 8356   5.418   4.358   7.552 -3.1733 -0.5261 -0.0864
   80CHL1   C12 8357   5.268   4.136   7.648  0.1042 -0.0417 -1.3472
   80CHL1  H12A 8358   5.349   4.079   7.699  0.1816  1.7896  0.6501
   80CHL1  H12B 8359   5.168   4.103   7.685  0.1016  2.5820  1.1333
   80CHL1   C11 8360   5.266   4.122   7.492 -0.2885 -0.4728  0.7101
   80CHL1  H11A 8361   5.367   4.155   7.457  0.5752 -2.4943  1.2189
   80CHL1  H11B 8362   5.260   4.015   7.463 -1.2894 -0.5613  1.2222
   80CHL1    C9 8363   5.156   4.209   7.425  0.8155  0.6091  0.2418
   80CHL1    H9 8364   5.055   4.175   7.458 -0.3673  3.3173 -0.4635
   80CHL1   C10 8365   5.147   4.201   7.267  0.2858 -0.8652  0.3000
   80CHL1   C19 8366   5.291   4.220   7.214  1.0844 -0.4195  0.0676
   80CHL1  H19A 8367   5.329   4.322   7.236 -2.6126  1.2583 -0.8968
   80CHL1  H19B 8368   5.355   4.138   7.252 -1.3794 -1.6325  1.7006
   80CHL1  H19C 8369   5.296   4.214   7.103 -1.0837  0.6068 -0.1170
   80CHL1    C1 8370   5.095   4.061   7.224 -0.5349 -0.2681  0.1244
   80CHL1   H1A 8371   5.169   3.980   7.240 -0.8944 -0.9202 -1.4154
   80CHL1   H1B 8372   5.001   4.036   7.279 -1.7287 -1.2923 -2.3082
   80CHL1    C2 8373   5.068   4.049   7.075  0.4749 -0.1032  0.1915
   80CHL1   H2A 8374   5.044   3.942   7.059 -1.2592  0.2805  0.1290
   80CHL1   H2B 8375   5.168   4.057   7.027  0.3632 -0.5145 -0.1155
   80CHL1   C20 8376   5.352   4.295   7.948  0.3909  0.2289 -0.2090
   80CHL1   H20 8377   5.436   4.365   7.926 -0.0941  1.3680  1.3683
   80CHL1   C21 8378   5.410   4.152   7.949 -1.0915  0.7258 -0.6389
   80CHL1  H21A 8379   5.324   4.082   7.956 -0.2075 -0.1123  2.4820
   80CHL1  H21B 8380   5.467   4.126   8.041 -0.4755  0.7494 -1.0082
   80CHL1  H21C 8381   5.485   4.135   7.869 -0.5439 -0.2990  0.0871
   80CHL1   C22 8382   5.293   4.337   8.087 -0.2828  0.5181 -0.2610
   80CHL1  H22A 8383   5.374   4.314   8.159  0.2213 -2.1288 -1.5673
   80CHL1  H22B 8384   5.283   4.447   8.085  0.5094  0.5925 -0.5165
   80CHL1   C23 8385   5.167   4.265   8.133  0.4428 -0.1811  0.0833
   80CHL1  H23A 8386   5.073   4.282   8.077  2.0560  3.8044 -1.6053
   80CHL1  H23B 8387   5.186   4.156   8.141 -0.7110 -0.5141 -1.5749
   80CHL1   C24 8388   5.132   4.320   8.275 -0.1230  0.2067  0.6931
   80CHL1  H24A 8389   5.078   4.241   8.332 -1.0967  1.3257  1.3560
   80CHL1  H24B 8390   5.226   4.338   8.332 -1.2110 -0.2375  2.6847
   80CHL1   C25 8391   5.042   4.445   8.284 -0.3712  0.0203  0.0817
   80CHL1   H25 8392   5.070   4.510   8.198 -0.2433 -0.5519 -0.3133
   80CHL1   C26 8393   4.899   4.401   8.250  0.2899  0.7646 -0.7840
   80CHL1  H26A 8394   4.907   4.356   8.148  2.7176 -1.3152  0.2829
   80CHL1  H26B 8395   4.854   4.318   8.308 -0.4512  1.3986 -0.4430
   80CHL1  H26C 8396   4.834   4.491   8.247 -1.2152 -0.0999  3.2791
   80CHL1   C27 8397   5.053   4.522   8.419 -0.2296  0.2313 -0.3455
   80CHL1  H27A 8398   4.986   4.610   8.420  0.2943  0.6501 -1.0598
   80CHL1  H27B 8399   5.024   4.444   8.493  0.8908  0.7199  0.6284
   80CHL1  H27C 8400   5.155   4.534   8.461  0.7033  0.7839 -2.6885
   81CHL1    C3 8401   2.947   4.436   6.724 -0.0658 -0.1135 -0.1905
   81CHL1    H3 8402   2.965   4.396   6.826  0.8596 -1.0979 -0.7321
   81CHL1    O3 8403   3.053   4.395   6.629 -0.1878  0.1196  0.1589
   81CHL1   H3' 8404   3.043   4.459   6.558  0.0512  0.0981  0.1031
   81CHL1    C4 8405   2.814   4.380   6.676  0.2172  0.2707 -0.1745
   81CHL1   H4A 8406   2.783   4.417   6.576 -0.5634 -1.1341 -0.4656
   81CHL1   H4B 8407   2.831   4.270   6.675 -3.1126 -0.3296  2.2564
   81CHL1    C5 8408   2.712   4.418   6.778  0.2833  0.5801  0.4180
   81CHL1    C6 8409   2.639   4.326   6.841  0.4733  0.1229  0.6066
   81CHL1    H6 8410   2.632   4.221   6.811 -1.7225  0.4195  0.0166
   81CHL1    C7 8411   2.546   4.359   6.955  0.8157 -0.5548 -0.0453
   81CHL1   H7A 8412   2.452   4.304   6.935  1.5569 -1.0919 -2.1108
   81CHL1   H7B 8413   2.594   4.329   7.051  0.0144  0.8311  0.8224
   81CHL1    C8 8414   2.512   4.508   6.964 -0.6524  0.3850 -0.0423
   81CHL1    H8 8415   2.433   4.534   6.889  0.2432 -1.3465 -1.6336
   81CHL1   C14 8416   2.461   4.540   7.104 -0.4301  0.6854 -1.0797
   81CHL1   H14 8417   2.551   4.539   7.170 -0.9521 -0.5607 -0.3668
   81CHL1   C15 8418   2.366   4.444   7.173 -0.4086  0.6910  0.2949
   81CHL1  H15A 8419   2.276   4.429   7.110 -0.4105 -1.9202  0.8770
   81CHL1  H15B 8420   2.429   4.358   7.203  0.4724  0.7637 -1.3093
   81CHL1   C16 8421   2.325   4.526   7.296  0.3366 -0.2656 -0.0542
   81CHL1  H16A 8422   2.214   4.529   7.305  0.1333 -2.8907 -1.1861
   81CHL1  H16B 8423   2.359   4.489   7.395  1.3309  0.2034 -0.2233
   81CHL1   C17 8424   2.370   4.671   7.279 -0.4159  0.3836 -0.4689
   81CHL1   H17 8425   2.467   4.674   7.333 -0.1566  0.0516 -0.9130
   81CHL1   C13 8426   2.407   4.679   7.127 -0.1891 -0.1947 -0.1133
   81CHL1   C18 8427   2.286   4.710   7.047 -0.2640  0.0482 -0.8045
   81CHL1  H18A 8428   2.304   4.697   6.938  2.1567  1.9654 -0.6751
   81CHL1  H18B 8429   2.208   4.632   7.060 -2.3095  1.6974 -2.8509
   81CHL1  H18C 8430   2.231   4.805   7.067 -3.3270 -1.7414 -0.4421
   81CHL1   C12 8431   2.522   4.774   7.095 -0.0265  0.7343 -0.3877
   81CHL1  H12A 8432   2.494   4.880   7.108  1.5878  0.7607  3.5548
   81CHL1  H12B 8433   2.600   4.762   7.174  0.2815  0.2806 -0.7581
   81CHL1   C11 8434   2.585   4.751   6.958 -0.0723 -0.0879 -0.3352
   81CHL1  H11A 8435   2.500   4.768   6.889 -0.5005 -2.0659 -0.3452
   81CHL1  H11B 8436   2.663   4.829   6.946  0.0015 -0.1282 -0.1363
   81CHL1    C9 8437   2.627   4.599   6.941 -0.3137  0.3300  0.5692
   81CHL1    H9 8438   2.697   4.572   7.023  0.1410  0.4338  0.2160
   81CHL1   C10 8439   2.719   4.571   6.812 -0.1790  0.1597  0.4361
   81CHL1   C19 8440   2.635   4.634   6.685  0.0117  0.7821 -0.6427
   81CHL1  H19A 8441   2.640   4.745   6.684  1.3098  0.8017  3.1171
   81CHL1  H19B 8442   2.673   4.595   6.588 -0.5389  1.1505 -1.0154
   81CHL1  H19C 8443   2.531   4.597   6.691  1.0532 -2.1570 -0.1349
   81CHL1    C1 8444   2.856   4.636   6.836  0.5268 -0.3391  0.4166
   81CHL1   H1A 8445   2.856   4.747   6.846  0.9255 -0.4902  2.4041
   81CHL1   H1B 8446   2.895   4.603   6.935 -1.5525  0.8262  1.6718
   81CHL1    C2 8447   2.955   4.592   6.733  0.3887  1.0559  0.2537
   81CHL1   H2A 8448   3.058   4.620   6.765  1.5296 -2.2772 -0.2520
   81CHL1   H2B 8449   2.926   4.635   6.635 -0.3690  1.2665  0.5709
   81CHL1   C20 8450   2.275   4.771   7.348 -0.0231 -0.9356  0.7510
   81CHL1   H20 8451   2.176   4.776   7.298  0.1787 -2.2773  0.1705
   81CHL1   C21 8452   2.335   4.910   7.343  0.1492  0.6928 -0.5241
   81CHL1  H21A 8453   2.267   4.988   7.384 -0.7555 -0.0955 -0.5196
   81CHL1  H21B 8454   2.338   4.941   7.236 -0.6139  1.4970 -0.3207
   81CHL1  H21C 8455   2.442   4.913   7.373 -0.1081  1.2233  0.3534
   81CHL1   C22 8456   2.240   4.721   7.493 -0.6317 -0.0730 -0.1053
   81CHL1  H22A 8457   2.182   4.627   7.483 -0.0061 -0.3443 -1.1596
   81CHL1  H22B 8458   2.335   4.695   7.545 -1.0582 -0.4697  0.4816
   81CHL1   C23 8459   2.185   4.821   7.596 -0.0902 -0.6600 -0.2573
   81CHL1  H23A 8460   2.268   4.888   7.627  0.5124  0.7923 -4.5828
   81CHL1  H23B 8461   2.105   4.884   7.550  0.5743 -1.2272 -2.2284
   81CHL1   C24 8462   2.120   4.768   7.718 -0.5242  0.4392  0.1392
   81CHL1  H24A 8463   2.034   4.701   7.696 -0.4070  0.2761  0.1727
   81CHL1  H24B 8464   2.186   4.704   7.780 -0.2235  0.0503 -0.5689
   81CHL1   C25 8465   2.078   4.878   7.813 -1.1059 -0.0969 -0.0617
   81CHL1   H25 8466   2.035   4.965   7.760 -0.1735 -0.5906 -1.6381
   81CHL1   C26 8467   1.957   4.820   7.893 -0.3523 -0.4693 -0.0387
   81CHL1  H26A 8468   1.916   4.884   7.974 -1.2910 -0.5866 -0.4191
   81CHL1  H26B 8469   1.871   4.804   7.826 -1.3359  0.7633  0.9003
   81CHL1  H26C 8470   1.976   4.723   7.944 -0.7221 -1.2707 -1.4010
   81CHL1   C27 8471   2.199   4.921   7.905  0.2577 -0.5423 -0.9403
   81CHL1  H27A 8472   2.157   4.999   7.971 -1.8527 -2.8214  0.5106
   81CHL1  H27B 8473   2.242   4.839   7.967 -0.7214 -0.2133  0.1898
   81CHL1  H27C 8474   2.276   4.961   7.835  0.5341 -1.7573 -1.3498
   82CHL1    C3 8475   3.990   5.146   6.988  0.6145 -0.3764  0.4523
   82CHL1    H3 8476   3.915   5.072   7.023  0.0473 -0.7066 -1.4124
   82CHL1    O3 8477   4.039   5.121   6.860 -0.3893  0.4908 -0.2111
   82CHL1   H3' 8478   4.063   5.206   6.824 -0.0103  0.5895  0.2665
   82CHL1    C4 8479   3.924   5.279   6.991 -0.7920 -0.6461  0.0078
   82CHL1   H4A 8480   4.005   5.353   6.974 -1.8478 -0.0659 -2.7954
   82CHL1   H4B 8481   3.847   5.291   6.912 -2.0374  0.4601  1.3507
   82CHL1    C5 8482   3.864   5.301   7.130  0.6991  0.4514 -0.3001
   82CHL1    C6 8483   3.732   5.330   7.145 -0.2838 -0.1544  0.6626
   82CHL1    H6 8484   3.675   5.345   7.053  0.4504  0.9997  0.3898
   82CHL1    C7 8485   3.666   5.370   7.275 -0.1764 -0.1941 -0.1706
   82CHL1   H7A 8486   3.615   5.467   7.255  0.4314  0.0055 -0.7720
   82CHL1   H7B 8487   3.589   5.297   7.307  0.4748 -0.4054  0.9224
   82CHL1    C8 8488   3.766   5.402   7.388  0.0650 -0.4742  0.6947
   82CHL1    H8 8489   3.796   5.506   7.363 -1.9230 -0.7427 -3.2249
   82CHL1   C14 8490   3.708   5.394   7.523 -0.1773 -0.2913 -0.4810
   82CHL1   H14 8491   3.688   5.285   7.527  0.8891 -0.4388  1.8828
   82CHL1   C15 8492   3.575   5.473   7.549  0.0759 -0.1224  0.1409
   82CHL1  H15A 8493   3.588   5.572   7.500 -3.0814 -0.1552 -0.8623
   82CHL1  H15B 8494   3.486   5.414   7.519  0.3007  0.6414 -2.1685
   82CHL1   C16 8495   3.578   5.499   7.701 -0.5045  0.6990 -0.2134
   82CHL1  H16A 8496   3.577   5.608   7.722  1.2416  0.4097  1.4615
   82CHL1  H16B 8497   3.485   5.464   7.750  1.2837 -2.4314  1.0577
   82CHL1   C17 8498   3.701   5.427   7.763  0.3829  0.4839 -0.1560
   82CHL1   H17 8499   3.673   5.321   7.777  1.0181  0.5407  1.6983
   82CHL1   C13 8500   3.802   5.424   7.641  0.2619  0.0899 -0.1871
   82CHL1   C18 8501   3.865   5.564   7.624  0.2266 -0.1408  0.0884
   82CHL1  H18A 8502   3.935   5.580   7.708 -0.8764  0.3380  0.9335
   82CHL1  H18B 8503   3.923   5.580   7.530 -0.0271 -0.9968 -0.2235
   82CHL1  H18C 8504   3.785   5.641   7.626 -0.5666 -0.9950  2.7437
   82CHL1   C12 8505   3.911   5.316   7.642  0.6137 -0.0088  0.4326
   82CHL1  H12A 8506   3.986   5.312   7.724  1.7738 -0.1631 -0.6200
   82CHL1  H12B 8507   3.851   5.225   7.664 -1.5350  0.8057 -1.8383
   82CHL1   C11 8508   3.973   5.304   7.503  1.5478 -0.2708  0.2198
   82CHL1  H11A 8509   4.039   5.394   7.499 -0.2475  1.0522 -0.3954
   82CHL1  H11B 8510   4.037   5.214   7.501 -0.6455 -1.9582  2.4531
   82CHL1    C9 8511   3.882   5.295   7.382 -0.1982 -0.1583  0.5061
   82CHL1    H9 8512   3.821   5.203   7.398  2.1695 -1.8030  0.4193
   82CHL1   C10 8513   3.960   5.292   7.253 -0.6367 -0.2466  1.1545
   82CHL1   C19 8514   4.057   5.418   7.244  0.2715  0.4053  0.5730
   82CHL1  H19A 8515   4.108   5.422   7.146 -0.9023  1.7661 -0.0132
   82CHL1  H19B 8516   4.006   5.517   7.248  1.3188  0.9220  1.4620
   82CHL1  H19C 8517   4.136   5.413   7.322  0.2706 -1.8408  0.4603
   82CHL1    C1 8518   4.043   5.167   7.236 -0.3248  0.0287  0.4327
   82CHL1   H1A 8519   4.136   5.176   7.295  1.5248 -1.0530 -2.2301
   82CHL1   H1B 8520   3.990   5.072   7.259 -0.9719  0.4355  0.6485
   82CHL1    C2 8521   4.105   5.150   7.092 -0.4009  0.0096 -0.9500
   82CHL1   H2A 8522   4.152   5.050   7.088 -0.4054 -0.0544  0.3781
   82CHL1   H2B 8523   4.176   5.230   7.061 -0.3889  0.3527 -0.0721
   82CHL1   C20 8524   3.742   5.496   7.894  0.3187  0.3532 -0.1809
   82CHL1   H20 8525   3.764   5.602   7.867 -2.7907  0.8757 -0.8493
   82CHL1   C21 8526   3.863   5.431   7.963 -0.9643  0.0771  0.2500
   82CHL1  H21A 8527   3.871   5.320   7.966  1.2880  0.1783 -0.5187
   82CHL1  H21B 8528   3.872   5.474   8.065 -1.3878  0.8479 -0.0384
   82CHL1  H21C 8529   3.946   5.449   7.891 -1.7365  0.5910 -0.5244
   82CHL1   C22 8530   3.623   5.507   8.001 -0.1851  0.4155 -0.4076
   82CHL1  H22A 8531   3.660   5.553   8.095 -0.4432  0.9836 -0.5830
   82CHL1  H22B 8532   3.535   5.564   7.966 -0.3833  0.5679  0.3383
   82CHL1   C23 8533   3.562   5.376   8.041  0.2615 -1.5661 -0.0206
   82CHL1  H23A 8534   3.529   5.314   7.955  0.8265 -1.4819 -0.3014
   82CHL1  H23B 8535   3.633   5.305   8.088  1.4683  0.0016  0.5544
   82CHL1   C24 8536   3.432   5.391   8.126 -0.4315  0.0672  0.8887
   82CHL1  H24A 8537   3.370   5.468   8.073  1.8952  1.6516  0.3999
   82CHL1  H24B 8538   3.374   5.296   8.129  0.2237 -0.5316 -2.5610
   82CHL1   C25 8539   3.454   5.447   8.269  0.3517  0.0853 -0.2718
   82CHL1   H25 8540   3.530   5.527   8.256  0.1068  0.5177  0.8795
   82CHL1   C26 8541   3.325   5.514   8.322  0.3866 -0.1660 -0.3642
   82CHL1  H26A 8542   3.294   5.595   8.252  1.1862 -1.7661 -2.6552
   82CHL1  H26B 8543   3.241   5.441   8.324 -1.0682  1.5143  0.7125
   82CHL1  H26C 8544   3.334   5.557   8.423  0.0121  1.4348 -0.9964
   82CHL1   C27 8545   3.503   5.335   8.373  0.3095 -0.8761 -0.3848
   82CHL1  H27A 8546   3.592   5.287   8.326  0.9690  0.2866 -0.3423
   82CHL1  H27B 8547   3.537   5.368   8.473 -2.6397 -0.8885  0.6694
   82CHL1  H27C 8548   3.431   5.250   8.369 -1.1901  0.3731 -0.6433
   83CHL1    C3 8549   0.288   6.589   6.956 -0.6397  0.0024 -0.3450
   83CHL1    H3 8550   0.336   6.688   6.943  1.2272 -0.7632  0.6207
   83CHL1    O3 8551   0.228   6.560   6.834  0.3471  0.7452 -0.2085
   83CHL1   H3' 8552   0.229   6.465   6.824  1.9882  0.7454 -0.2267
   83CHL1    C4 8553   0.382   6.483   6.999 -0.0316  0.4216 -0.0469
   83CHL1   H4A 8554   0.333   6.384   6.992  2.0968 -0.6750 -0.0028
   83CHL1   H4B 8555   0.460   6.479   6.920  0.3421 -1.3118  0.3840
   83CHL1    C5 8556   0.447   6.509   7.132 -0.1303 -0.1903 -0.1875
   83CHL1    C6 8557   0.582   6.507   7.142  0.5185  1.1885  0.8501
   83CHL1    H6 8558   0.638   6.487   7.050  1.1871  2.0413  1.0622
   83CHL1    C7 8559   0.651   6.515   7.268 -1.2112  0.5283 -0.1069
   83CHL1   H7A 8560   0.724   6.431   7.278 -0.4180  1.1145 -0.9097
   83CHL1   H7B 8561   0.717   6.605   7.266  0.9523 -1.0164 -3.7167
   83CHL1    C8 8562   0.551   6.512   7.391 -0.5925  0.4369 -0.5257
   83CHL1    H8 8563   0.535   6.404   7.410  0.2156  0.9478  3.2959
   83CHL1   C14 8564   0.621   6.563   7.514 -0.7684 -0.1889 -0.0500
   83CHL1   H14 8565   0.633   6.674   7.506  1.2625 -0.2096  2.1832
   83CHL1   C15 8566   0.761   6.507   7.552  0.1920 -0.1463  0.4202
   83CHL1  H15A 8567   0.763   6.397   7.535  1.0160 -0.0619 -0.0464
   83CHL1  H15B 8568   0.843   6.553   7.494  1.6536  0.3562  2.8276
   83CHL1   C16 8569   0.775   6.547   7.697  0.0317 -0.5234  0.2613
   83CHL1  H16A 8570   0.796   6.462   7.765  2.7211 -0.0239  0.1165
   83CHL1  H16B 8571   0.858   6.619   7.713  0.2628 -0.7137 -0.0592
   83CHL1   C17 8572   0.640   6.613   7.744  0.0331  0.3103 -0.5338
   83CHL1   H17 8573   0.656   6.719   7.713 -1.1036  0.7534  0.3276
   83CHL1   C13 8574   0.537   6.551   7.639 -0.2538  0.5156 -0.3473
   83CHL1   C18 8575   0.515   6.411   7.686  0.5704  0.2001 -0.0755
   83CHL1  H18A 8576   0.468   6.410   7.787 -0.1545 -0.0004 -0.4164
   83CHL1  H18B 8577   0.453   6.358   7.611  2.0800 -2.1787  0.3184
   83CHL1  H18C 8578   0.604   6.345   7.697 -2.1391 -3.3870  1.3091
   83CHL1   C12 8579   0.406   6.630   7.616  0.0682 -0.1344  0.2448
   83CHL1  H12A 8580   0.337   6.615   7.702  1.1109  1.0322  1.3006
   83CHL1  H12B 8581   0.426   6.739   7.610  0.2718 -0.2177 -0.6233
   83CHL1   C11 8582   0.330   6.581   7.493 -0.4806  0.0878  0.1082
   83CHL1  H11A 8583   0.289   6.481   7.517 -0.1183 -0.0420  0.1832
   83CHL1  H11B 8584   0.243   6.645   7.468  1.4442  2.0395 -1.8072
   83CHL1    C9 8585   0.418   6.575   7.364 -0.5382  0.6400  0.5544
   83CHL1    H9 8586   0.448   6.680   7.346  1.1439  0.0773  0.0406
   83CHL1   C10 8587   0.344   6.525   7.240  0.0787  0.0509 -0.2446
   83CHL1   C19 8588   0.275   6.382   7.276 -0.3009  0.1188 -0.1140
   83CHL1  H19A 8589   0.230   6.332   7.188  1.8929  0.3436 -1.3992
   83CHL1  H19B 8590   0.347   6.306   7.313 -0.2471 -0.1252 -0.7110
   83CHL1  H19C 8591   0.188   6.398   7.343 -1.4457 -0.0298 -1.5315
   83CHL1    C1 8592   0.232   6.618   7.201  0.7500 -0.2518  0.7299
   83CHL1   H1A 8593   0.149   6.611   7.275 -1.2075  2.3474 -1.1309
   83CHL1   H1B 8594   0.264   6.724   7.207  3.1358 -0.9105 -0.1374
   83CHL1    C2 8595   0.171   6.596   7.060 -1.2133 -0.0657 -0.6966
   83CHL1   H2A 8596   0.098   6.679   7.049 -2.6183 -0.9280  1.7570
   83CHL1   H2B 8597   0.109   6.504   7.065  0.0373 -0.8143  3.8020
   83CHL1   C20 8598   0.626   6.616   7.901 -0.3219 -0.1706  0.4289
   83CHL1   H20 8599   0.629   6.507   7.923  0.2476  0.1043  1.7729
   83CHL1   C21 8600   0.488   6.677   7.946  0.3300  0.1307  0.3682
   83CHL1  H21A 8601   0.399   6.639   7.892  1.0787 -1.6580  0.3549
   83CHL1  H21B 8602   0.486   6.787   7.933 -0.0634  0.0445 -0.3471
   83CHL1  H21C 8603   0.466   6.652   8.052 -2.3609 -3.3971 -0.9301
   83CHL1   C22 8604   0.732   6.693   7.977  0.6140 -0.7768  0.3086
   83CHL1  H22A 8605   0.836   6.661   7.956  0.7744 -0.0137 -0.0985
   83CHL1  H22B 8606   0.736   6.796   7.933  0.1080 -1.6225 -1.7961
   83CHL1   C23 8607   0.728   6.714   8.137 -0.2542 -0.0437 -0.3952
   83CHL1  H23A 8608   0.638   6.777   8.154 -0.4260 -0.1534 -0.8812
   83CHL1  H23B 8609   0.735   6.616   8.189 -0.0562  1.0820  1.7501
   83CHL1   C24 8610   0.851   6.798   8.181 -0.9123 -0.1641 -0.6847
   83CHL1  H24A 8611   0.938   6.758   8.125  0.7184 -0.9140  2.3123
   83CHL1  H24B 8612   0.840   6.905   8.152  2.5236 -0.5486 -3.6770
   83CHL1   C25 8613   0.878   6.788   8.338 -0.4313  0.2534  0.5071
   83CHL1   H25 8614   0.850   6.687   8.374  0.5971 -1.1078 -2.3570
   83CHL1   C26 8615   1.025   6.804   8.375 -0.4861 -0.3581 -0.1924
   83CHL1  H26A 8616   1.046   6.909   8.403 -3.5101 -0.3777  2.5068
   83CHL1  H26B 8617   1.044   6.738   8.463  1.6606 -0.1317 -0.4718
   83CHL1  H26C 8618   1.083   6.765   8.289  1.9996  0.3305  1.1151
   83CHL1   C27 8619   0.798   6.886   8.418  0.0959  0.7477 -0.4000
   83CHL1  H27A 8620   0.694   6.881   8.379 -0.4150  0.7838  0.9096
   83CHL1  H27B 8621   0.802   6.850   8.523 -0.2494 -1.4708 -1.1157
   83CHL1  H27C 8622   0.838   6.988   8.401  0.7372  0.6197  0.2959
   84CHL1    C3 8623   1.927   2.627   7.075  0.2744 -0.0781  0.0880
   84CHL1    H3 8624   1.831   2.682   7.088 -0.6732 -1.3682 -1.2557
   84CHL1    O3 8625   1.976   2.641   6.941  0.2248  0.5106 -0.1105
   84CHL1   H3' 8626   1.899   2.636   6.885  0.0009 -1.6502  0.3519
   84CHL1    C4 8627   2.036   2.685   7.169  0.1068  0.2996 -0.2141
   84CHL1   H4A 8628   2.135   2.633   7.168 -0.3957 -0.6829  0.1037
   84CHL1   H4B 8629   2.052   2.791   7.140 -0.7411  0.1648 -1.2048
   84CHL1    C5 8630   1.997   2.674   7.313 -0.4614  0.1062 -0.7010
   84CHL1    C6 8631   1.994   2.776   7.401 -0.2387  0.0471 -0.4999
   84CHL1    H6 8632   2.032   2.873   7.365 -0.4418  0.9719  1.6769
   84CHL1    C7 8633   1.967   2.774   7.546  0.2254  0.0726 -0.1046
   84CHL1   H7A 8634   2.045   2.822   7.609 -1.5002  0.9186  1.4425
   84CHL1   H7B 8635   1.868   2.821   7.564 -1.6813 -2.9870 -2.1758
   84CHL1    C8 8636   1.956   2.635   7.606  0.9805  0.7812  0.5172
   84CHL1    H8 8637   2.058   2.594   7.616 -0.0819 -2.6279 -1.7069
   84CHL1   C14 8638   1.890   2.632   7.741 -0.3784  0.1826  0.1742
   84CHL1   H14 8639   1.788   2.668   7.716 -0.5806 -1.4728 -1.5064
   84CHL1   C15 8640   1.940   2.737   7.839  0.0482 -0.8544 -0.6247
   84CHL1  H15A 8641   2.051   2.735   7.844  0.0406  0.6570  1.0034
   84CHL1  H15B 8642   1.909   2.842   7.817  1.7183 -0.4856 -1.2755
   84CHL1   C16 8643   1.882   2.689   7.974  0.0467 -0.0756 -0.7049
   84CHL1  H16A 8644   1.968   2.677   8.044 -1.1290  0.7739  0.9058
   84CHL1  H16B 8645   1.819   2.759   8.033  2.5062  1.5774  0.0352
   84CHL1   C17 8646   1.805   2.552   7.948  0.5636 -0.3600  0.0816
   84CHL1   H17 8647   1.701   2.589   7.931 -0.6490 -3.0387  1.3402
   84CHL1   C13 8648   1.870   2.504   7.816 -0.3014  0.1258  0.0763
   84CHL1   C18 8649   2.005   2.442   7.856 -0.1687 -0.0508 -0.4803
   84CHL1  H18A 8650   2.076   2.443   7.771  0.7296  0.6435  0.2603
   84CHL1  H18B 8651   2.050   2.509   7.933  0.9104  1.7770 -2.6556
   84CHL1  H18C 8652   1.994   2.342   7.904 -2.4510 -0.4162 -1.6817
   84CHL1   C12 8653   1.793   2.408   7.715  0.1012  0.6047  0.8356
   84CHL1  H12A 8654   1.796   2.307   7.760  1.9923  1.0665  1.7775
   84CHL1  H12B 8655   1.686   2.438   7.705 -0.0746  0.3028  1.7614
   84CHL1   C11 8656   1.870   2.406   7.577 -0.2661  0.8571  0.4613
   84CHL1  H11A 8657   1.974   2.374   7.600  0.7397  2.5354 -1.5738
   84CHL1  H11B 8658   1.838   2.331   7.502  3.1995  0.2902 -0.5442
   84CHL1    C9 8659   1.889   2.542   7.502 -0.7811  0.8827 -0.1265
   84CHL1    H9 8660   1.784   2.577   7.494 -1.8649 -2.3804 -0.9504
   84CHL1   C10 8661   1.948   2.529   7.357 -0.7605  0.1521 -0.0451
   84CHL1   C19 8662   2.080   2.442   7.371 -0.3082 -0.1370  0.2403
   84CHL1  H19A 8663   2.137   2.434   7.276 -0.1516 -2.8159  0.5280
   84CHL1  H19B 8664   2.139   2.484   7.456 -0.7215 -0.5474  0.7328
   84CHL1  H19C 8665   2.051   2.337   7.392 -2.6238  0.4929  0.3428
   84CHL1    C1 8666   1.846   2.474   7.254  0.0588  0.0006  1.2360
   84CHL1   H1A 8667   1.843   2.368   7.289  0.2115 -0.8806 -1.2535
   84CHL1   H1B 8668   1.754   2.534   7.267  0.0072  0.2284 -0.0765
   84CHL1    C2 8669   1.897   2.477   7.109 -0.4780 -0.3247 -0.3982
   84CHL1   H2A 8670   1.834   2.437   7.026 -1.7394 -0.7202  0.7257
   84CHL1   H2B 8671   1.996   2.426   7.110  0.1751  0.9458  0.3027
   84CHL1   C20 8672   1.796   2.450   8.067 -0.7208 -0.1028 -0.6794
   84CHL1   H20 8673   1.897   2.423   8.104 -1.7924 -1.7317  1.1775
   84CHL1   C21 8674   1.724   2.320   8.023 -0.1646  0.2660 -0.6445
   84CHL1  H21A 8675   1.627   2.334   7.972 -0.3192  0.0030 -0.4210
   84CHL1  H21B 8676   1.694   2.262   8.113  0.4026 -0.8968 -1.1926
   84CHL1  H21C 8677   1.789   2.247   7.969 -1.0754  1.8241 -3.9234
   84CHL1   C22 8678   1.716   2.507   8.186 -0.2008  0.3084 -0.2335
   84CHL1  H22A 8679   1.743   2.615   8.189 -0.1115  0.2461  2.4194
   84CHL1  H22B 8680   1.606   2.501   8.169 -0.2120  0.5024 -0.2354
   84CHL1   C23 8681   1.742   2.450   8.321 -0.1555  0.0885 -0.2655
   84CHL1  H23A 8682   1.683   2.504   8.398 -3.8509 -0.4440 -2.5923
   84CHL1  H23B 8683   1.708   2.345   8.323 -0.3120 -0.0062 -4.0460
   84CHL1   C24 8684   1.892   2.437   8.357  0.5356  0.0698  0.0906
   84CHL1  H24A 8685   1.943   2.358   8.298  1.6245  1.3206 -0.6829
   84CHL1  H24B 8686   1.949   2.529   8.332  2.1748 -0.9399  0.0647
   84CHL1   C25 8687   1.928   2.423   8.507  0.0229  0.3903  0.5640
   84CHL1   H25 8688   1.894   2.514   8.561  0.6441  1.0734 -0.1897
   84CHL1   C26 8689   1.868   2.295   8.572 -0.3382 -0.4418 -0.3162
   84CHL1  H26A 8690   1.759   2.288   8.552 -0.4641  0.6477 -0.0422
   84CHL1  H26B 8691   1.908   2.208   8.516  2.7182 -0.1765  1.3333
   84CHL1  H26C 8692   1.909   2.291   8.675  3.2334  0.1510 -1.6547
   84CHL1   C27 8693   2.080   2.426   8.516 -0.4849  0.5613  0.8352
   84CHL1  H27A 8694   2.117   2.392   8.615 -1.1501  2.5595  1.7879
   84CHL1  H27B 8695   2.136   2.361   8.445  2.2942  3.2099  0.4955
   84CHL1  H27C 8696   2.115   2.528   8.489  0.9555 -0.1329 -0.0645
   85CHL1    C3 8697   1.585   6.180   6.768  0.0661  0.2000  0.0511
   85CHL1    H3 8698   1.556   6.288   6.768  2.0701  0.7738  1.1360
   85CHL1    O3 8699   1.568   6.149   6.636 -0.0988  0.3954 -0.3205
   85CHL1   H3' 8700   1.552   6.055   6.627 -0.0241  0.3478  0.0667
   85CHL1    C4 8701   1.738   6.167   6.809 -0.5372 -0.0780  0.0228
   85CHL1   H4A 8702   1.771   6.068   6.770 -1.5719 -1.1666  1.8391
   85CHL1   H4B 8703   1.783   6.244   6.742 -2.6518  0.8649 -0.3431
   85CHL1    C5 8704   1.771   6.196   6.952 -0.2017  0.0332 -0.4953
   85CHL1    C6 8705   1.874   6.272   6.986 -0.4035 -0.3565 -0.4729
   85CHL1    H6 8706   1.943   6.316   6.913  1.2150  0.5374  1.5387
   85CHL1    C7 8707   1.913   6.304   7.127  0.5322 -0.2170 -0.2030
   85CHL1   H7A 8708   2.021   6.286   7.145  0.6326 -0.6465 -1.2074
   85CHL1   H7B 8709   1.906   6.413   7.146  1.6287 -0.4378  1.5836
   85CHL1    C8 8710   1.845   6.208   7.230  0.2343  0.3626  0.0540
   85CHL1    H8 8711   1.905   6.114   7.230 -0.7572 -0.3088 -1.9761
   85CHL1   C14 8712   1.863   6.260   7.374  0.6330  0.0382  0.8721
   85CHL1   H14 8713   1.803   6.353   7.381  1.4311  0.4618  2.6557
   85CHL1   C15 8714   2.009   6.292   7.421  0.3245 -0.5227  0.1100
   85CHL1  H15A 8715   2.090   6.218   7.400  1.7272  1.0959 -0.3535
   85CHL1  H15B 8716   2.040   6.387   7.373  1.0203 -0.5202  0.5519
   85CHL1   C16 8717   1.983   6.309   7.571 -0.5511  0.5975  0.1770
   85CHL1  H16A 8718   2.054   6.243   7.625  0.8868  0.9164 -1.2779
   85CHL1  H16B 8719   1.983   6.415   7.602 -1.2930  0.6730 -0.0906
   85CHL1   C17 8720   1.842   6.254   7.609  0.0897  0.3242  0.6858
   85CHL1   H17 8721   1.784   6.349   7.608  2.4435  1.7905  1.4118
   85CHL1   C13 8722   1.795   6.171   7.482 -0.0961  0.2044 -0.2178
   85CHL1   C18 8723   1.873   6.034   7.484 -0.1204  0.3946 -0.4128
   85CHL1  H18A 8724   1.876   5.987   7.383 -0.5909  2.9220 -1.6363
   85CHL1  H18B 8725   1.982   6.042   7.503  0.3322 -2.2361 -1.6980
   85CHL1  H18C 8726   1.827   5.963   7.556  3.4142 -2.5049 -0.8887
   85CHL1   C12 8727   1.641   6.154   7.446 -0.0591 -0.2512 -0.4254
   85CHL1  H12A 8728   1.587   6.091   7.521  0.0452 -0.2855 -0.3806
   85CHL1  H12B 8729   1.606   6.260   7.444  0.8582  0.0588 -0.2791
   85CHL1   C11 8730   1.625   6.090   7.309 -0.1360 -0.4412  0.6814
   85CHL1  H11A 8731   1.653   5.982   7.308  0.4171 -0.3154 -2.2373
   85CHL1  H11B 8732   1.520   6.101   7.274  0.1743 -2.1036 -0.8579
   85CHL1    C9 8733   1.698   6.172   7.200  0.1990  0.2395 -0.4124
   85CHL1    H9 8734   1.652   6.273   7.210  0.4562  0.5226 -1.9797
   85CHL1   C10 8735   1.678   6.121   7.053  0.2661 -0.5811  0.5040
   85CHL1   C19 8736   1.727   5.972   7.047  0.5174  0.7334  0.5624
   85CHL1  H19A 8737   1.660   5.918   7.117  0.8844 -0.3973  0.0468
   85CHL1  H19B 8738   1.719   5.927   6.946  0.6964 -1.3355  1.4611
   85CHL1  H19C 8739   1.831   5.962   7.085  0.7025  3.0024  0.7549
   85CHL1    C1 8740   1.519   6.123   7.010  0.5852 -0.1184  0.3972
   85CHL1   H1A 8741   1.458   6.053   7.071 -2.1611  1.5962 -0.2903
   85CHL1   H1B 8742   1.493   6.231   7.019 -1.2854 -0.4888 -0.4845
   85CHL1    C2 8743   1.494   6.094   6.864 -0.6691 -0.2964  0.0613
   85CHL1   H2A 8744   1.389   6.120   6.837 -0.1862  1.3102 -0.2679
   85CHL1   H2B 8745   1.528   5.990   6.841  2.3265  0.6375  0.1180
   85CHL1   C20 8746   1.838   6.187   7.747 -0.5256  0.2094  0.4671
   85CHL1   H20 8747   1.893   6.091   7.746  0.6005  0.8485 -1.1204
   85CHL1   C21 8748   1.687   6.152   7.776 -0.2626 -0.0179 -0.4541
   85CHL1  H21A 8749   1.627   6.241   7.746  2.0063  1.0773 -1.8884
   85CHL1  H21B 8750   1.673   6.131   7.884  0.8689  1.9446  0.0909
   85CHL1  H21C 8751   1.651   6.070   7.710  3.6715  0.2730 -3.1284
   85CHL1   C22 8752   1.882   6.282   7.858  0.1100  0.3655 -0.2793
   85CHL1  H22A 8753   1.983   6.325   7.837  1.6205 -1.9271  1.9614
   85CHL1  H22B 8754   1.809   6.366   7.852 -1.7609 -1.2570 -0.3907
   85CHL1   C23 8755   1.885   6.229   7.994 -0.6322  0.1888  0.3290
   85CHL1  H23A 8756   1.785   6.206   8.036 -2.0808  2.3450 -1.8415
   85CHL1  H23B 8757   1.941   6.133   7.986  0.7538  0.9272  1.0172
   85CHL1   C24 8758   1.949   6.328   8.088 -0.1114  0.5803  0.4123
   85CHL1  H24A 8759   2.057   6.312   8.066 -0.5418 -0.0102 -1.3731
   85CHL1  H24B 8760   1.916   6.432   8.064 -1.3538 -0.0031 -0.4752
   85CHL1   C25 8761   1.922   6.306   8.235 -0.7686 -0.8313  0.0658
   85CHL1   H25 8762   1.931   6.200   8.268  1.6146 -0.8376 -0.5760
   85CHL1   C26 8763   2.017   6.388   8.316  0.4622  0.0535  0.2751
   85CHL1  H26A 8764   2.005   6.352   8.420  0.8078 -0.8557  0.0107
   85CHL1  H26B 8765   2.126   6.377   8.297  0.8964  1.9501  1.5819
   85CHL1  H26C 8766   2.010   6.498   8.307 -0.3246  0.2951  3.5435
   85CHL1   C27 8767   1.775   6.349   8.271  0.3994 -0.5095 -0.1322
   85CHL1  H27A 8768   1.701   6.272   8.241  0.1123  0.2375 -1.4029
   85CHL1  H27B 8769   1.763   6.369   8.380 -0.2536 -1.1572 -0.0766
   85CHL1  H27C 8770   1.750   6.440   8.212 -3.1456 -1.1510  0.2135
   86CHL1    C3 8771   3.507   4.085   6.896  0.2739  0.0166  0.6344
   86CHL1    H3 8772   3.608   4.127   6.911  0.6398 -0.8080  0.5455
   86CHL1    O3 8773   3.472   4.074   6.756  0.1158  0.1590  0.1586
   86CHL1   H3' 8774   3.393   4.129   6.752  0.6987  1.0726  0.9822
   86CHL1    C4 8775   3.520   3.940   6.953 -0.0612  0.2490 -0.3441
   86CHL1   H4A 8776   3.421   3.889   6.949  0.3109 -0.4023 -1.5757
   86CHL1   H4B 8777   3.599   3.888   6.895  0.5817 -1.0976  1.6959
   86CHL1    C5 8778   3.561   3.946   7.106  0.5426 -0.4935 -0.1278
   86CHL1    C6 8779   3.669   3.883   7.159 -0.2636 -0.5984 -0.0944
   86CHL1    H6 8780   3.752   3.843   7.099  0.2368  0.5733 -0.1911
   86CHL1    C7 8781   3.687   3.880   7.305  0.0167 -0.1891 -0.6091
   86CHL1   H7A 8782   3.722   3.776   7.325  1.2870  0.0597 -1.5018
   86CHL1   H7B 8783   3.776   3.944   7.325 -1.0259  1.1601 -0.2183
   86CHL1    C8 8784   3.565   3.922   7.397 -0.7850  0.6389 -0.2691
   86CHL1    H8 8785   3.492   3.839   7.390  0.1885 -0.2170 -0.2668
   86CHL1   C14 8786   3.610   3.957   7.542  0.4392 -0.1282  0.3175
   86CHL1   H14 8787   3.683   4.040   7.534 -1.9044  2.2293  2.5123
   86CHL1   C15 8788   3.684   3.842   7.607  0.0537 -0.1291 -0.2254
   86CHL1  H15A 8789   3.630   3.747   7.589 -1.1079  0.9534 -2.6652
   86CHL1  H15B 8790   3.792   3.830   7.584 -0.1776 -1.4401 -0.6618
   86CHL1   C16 8791   3.668   3.880   7.759 -0.2079  0.0541 -0.3781
   86CHL1  H16A 8792   3.607   3.799   7.804 -2.6700  0.8263 -2.1988
   86CHL1  H16B 8793   3.767   3.914   7.797 -0.9059  2.4939 -0.6872
   86CHL1   C17 8794   3.574   4.006   7.767  0.0371 -0.4004 -1.2034
   86CHL1   H17 8795   3.648   4.089   7.763  0.3597 -0.3575  2.9524
   86CHL1   C13 8796   3.502   4.008   7.634 -0.4641 -0.2760  0.2159
   86CHL1   C18 8797   3.393   3.902   7.647 -0.0586  0.5295  0.0714
   86CHL1  H18A 8798   3.367   3.880   7.542  0.4273 -0.1139  0.0812
   86CHL1  H18B 8799   3.427   3.808   7.696 -0.9312  0.3717  0.3756
   86CHL1  H18C 8800   3.308   3.941   7.707  0.0949 -0.2830  0.8389
   86CHL1   C12 8801   3.445   4.138   7.580 -0.4783 -0.7081  0.0970
   86CHL1  H12A 8802   3.356   4.172   7.638  2.0064  1.1397  2.9643
   86CHL1  H12B 8803   3.527   4.212   7.596 -1.4108 -0.1864  2.7482
   86CHL1   C11 8804   3.403   4.124   7.435  0.1400 -0.1708  0.6736
   86CHL1  H11A 8805   3.312   4.065   7.456 -0.6584  1.8512  3.1355
   86CHL1  H11B 8806   3.382   4.220   7.384  1.2656 -0.3521 -0.1518
   86CHL1    C9 8807   3.505   4.049   7.340 -0.0151  0.4539  0.9907
   86CHL1    H9 8808   3.591   4.118   7.355 -0.0559  0.8565 -0.5901
   86CHL1   C10 8809   3.454   4.028   7.189 -0.0537  0.2711  0.0881
   86CHL1   C19 8810   3.331   3.935   7.197 -0.3367  0.1534 -0.2070
   86CHL1  H19A 8811   3.280   3.907   7.102 -3.3819  0.1166  1.3866
   86CHL1  H19B 8812   3.361   3.847   7.258  1.8172 -0.9812 -2.8033
   86CHL1  H19C 8813   3.250   3.982   7.256  1.6292  1.0687  1.8075
   86CHL1    C1 8814   3.423   4.161   7.122  0.0799  0.2816 -0.1328
   86CHL1   H1A 8815   3.342   4.220   7.170  0.6283 -0.1616  1.3812
   86CHL1   H1B 8816   3.514   4.225   7.135 -1.3582  2.9811 -2.5974
   86CHL1    C2 8817   3.402   4.164   6.974  0.1931 -0.2128 -0.4250
   86CHL1   H2A 8818   3.394   4.270   6.940 -1.9969 -0.3549 -0.4614
   86CHL1   H2B 8819   3.299   4.126   6.953 -0.5212  0.5541  1.5951
   86CHL1   C20 8820   3.507   4.009   7.898 -0.1562 -0.5594 -0.1542
   86CHL1   H20 8821   3.430   3.929   7.896 -3.2942  2.2947 -1.1976
   86CHL1   C21 8822   3.432   4.142   7.920 -0.0561  0.3033 -0.7716
   86CHL1  H21A 8823   3.398   4.161   8.024  0.4665  1.8964 -0.8881
   86CHL1  H21B 8824   3.344   4.140   7.851  0.6837 -1.6103 -1.7186
   86CHL1  H21C 8825   3.492   4.230   7.890 -0.8809  1.1606  0.0462
   86CHL1   C22 8826   3.599   3.988   8.028  0.5539  0.4351 -0.0808
   86CHL1  H22A 8827   3.530   3.971   8.113 -0.1987  3.0716 -0.1141
   86CHL1  H22B 8828   3.656   3.895   8.006 -1.4578 -0.1538 -3.1740
   86CHL1   C23 8829   3.692   4.104   8.058 -0.1644 -0.6670 -0.0401
   86CHL1  H23A 8830   3.742   4.129   7.962 -0.4188 -1.4988 -0.4018
   86CHL1  H23B 8831   3.632   4.190   8.094 -0.4498 -0.6250 -0.6045
   86CHL1   C24 8832   3.805   4.071   8.161 -0.6952 -0.7788 -0.3817
   86CHL1  H24A 8833   3.763   4.039   8.258 -0.1977  1.0692  0.4702
   86CHL1  H24B 8834   3.855   3.985   8.112  0.7099 -0.5776  0.6569
   86CHL1   C25 8835   3.903   4.191   8.161  0.2318  0.2217  0.6141
   86CHL1   H25 8836   3.847   4.284   8.137 -0.8433 -1.0131 -1.7945
   86CHL1   C26 8837   3.972   4.208   8.297 -0.0835  0.1559  0.0097
   86CHL1  H26A 8838   4.055   4.282   8.300 -0.0086  0.2352 -3.0811
   86CHL1  H26B 8839   3.904   4.252   8.373  2.9043  0.5974  2.5555
   86CHL1  H26C 8840   4.006   4.107   8.331 -0.4582 -0.6533 -1.9981
   86CHL1   C27 8841   4.010   4.179   8.050  0.0222  0.6564 -0.2716
   86CHL1  H27A 8842   3.962   4.169   7.951 -1.4626  1.0308  0.3918
   86CHL1  H27B 8843   4.063   4.276   8.058 -3.0838  2.3153  1.1234
   86CHL1  H27C 8844   4.083   4.100   8.079  2.7379  3.3769  0.5592
   87CHL1    C3 8845   3.857   2.349   6.864 -0.7549  0.8595 -0.1294
   87CHL1    H3 8846   3.873   2.441   6.804  0.4498  0.1150 -0.9968
   87CHL1    O3 8847   3.825   2.242   6.768 -0.0354  0.1547 -0.2657
   87CHL1   H3' 8848   3.810   2.166   6.825  0.0113 -0.4924 -1.0973
   87CHL1    C4 8849   3.994   2.323   6.936  0.7097 -0.0892  1.1196
   87CHL1   H4A 8850   3.991   2.221   6.980 -0.6651 -0.9840 -0.9907
   87CHL1   H4B 8851   4.068   2.315   6.853 -0.3023  0.1981  0.1715
   87CHL1    C5 8852   4.027   2.418   7.044  1.0264 -0.2957  0.3326
   87CHL1    C6 8853   4.138   2.495   7.054  0.2463 -0.8297  1.2978
   87CHL1    H6 8854   4.209   2.499   6.971 -1.9066  0.1459 -0.5560
   87CHL1    C7 8855   4.174   2.581   7.168  0.0518  0.1060 -0.1920
   87CHL1   H7A 8856   4.278   2.566   7.203  0.2616  0.0543 -0.8248
   87CHL1   H7B 8857   4.151   2.686   7.140 -2.6009 -0.4014 -0.0337
   87CHL1    C8 8858   4.079   2.566   7.288  0.0809 -0.3995 -0.0590
   87CHL1    H8 8859   4.107   2.466   7.328 -2.5835 -0.9743  0.4757
   87CHL1   C14 8860   4.087   2.682   7.393  0.2739  0.4021 -0.6674
   87CHL1   H14 8861   4.043   2.768   7.337 -1.3709  0.3014  0.4397
   87CHL1   C15 8862   4.228   2.721   7.446  0.3686 -0.3521 -0.3757
   87CHL1  H15A 8863   4.287   2.630   7.469  1.2616  0.8136  2.1680
   87CHL1  H15B 8864   4.287   2.786   7.378 -1.1534  1.7233  0.2420
   87CHL1   C16 8865   4.192   2.802   7.578 -0.0628 -0.6944 -0.7181
   87CHL1  H16A 8866   4.252   2.770   7.666 -0.2833 -0.2545 -0.4024
   87CHL1  H16B 8867   4.197   2.913   7.571  2.4389 -0.5918  1.7448
   87CHL1   C17 8868   4.033   2.770   7.609 -0.2965  0.0621  0.5752
   87CHL1   H17 8869   3.975   2.861   7.580  0.7864  0.7634  0.5756
   87CHL1   C13 8870   3.996   2.657   7.513  0.1420  0.6604  0.0397
   87CHL1   C18 8871   4.033   2.526   7.584 -0.8648 -0.1456  0.2941
   87CHL1  H18A 8872   4.138   2.530   7.619 -1.0739  3.1534  0.7265
   87CHL1  H18B 8873   3.976   2.515   7.678 -0.0143 -1.9444  0.6098
   87CHL1  H18C 8874   4.009   2.434   7.527 -2.9332 -1.4387  3.1932
   87CHL1   C12 8875   3.852   2.651   7.468 -0.0576  0.6272  0.1505
   87CHL1  H12A 8876   3.798   2.630   7.563 -1.1386  2.5305 -0.0121
   87CHL1  H12B 8877   3.816   2.754   7.449  1.3871  1.2653  0.7571
   87CHL1   C11 8878   3.822   2.551   7.362  0.1186  0.3757 -0.3656
   87CHL1  H11A 8879   3.815   2.452   7.412  0.9119  0.7067  0.4182
   87CHL1  H11B 8880   3.725   2.583   7.318  1.1151  0.3916 -2.6061
   87CHL1    C9 8881   3.931   2.542   7.248 -0.2615 -0.5399 -0.5987
   87CHL1    H9 8882   3.921   2.637   7.191  0.6572 -0.0592  0.0322
   87CHL1   C10 8883   3.909   2.421   7.150 -1.1867  0.1207  0.0227
   87CHL1   C19 8884   3.895   2.292   7.233  0.1547 -0.2819 -0.7043
   87CHL1  H19A 8885   3.962   2.302   7.321  1.1849  0.5525 -1.5654
   87CHL1  H19B 8886   3.791   2.289   7.274  0.3239  0.7542 -0.1560
   87CHL1  H19C 8887   3.914   2.201   7.173  0.4208  0.6098 -1.9729
   87CHL1    C1 8888   3.779   2.453   7.069  0.1136  0.6613 -0.0137
   87CHL1   H1A 8889   3.695   2.445   7.142 -1.6738  0.0568 -2.0882
   87CHL1   H1B 8890   3.779   2.558   7.031 -1.6324  0.3619 -0.9007
   87CHL1    C2 8891   3.740   2.363   6.956 -0.5094 -0.3735 -0.1803
   87CHL1   H2A 8892   3.660   2.414   6.897  0.2379  0.0439 -0.8408
   87CHL1   H2B 8893   3.724   2.263   7.002 -0.1915  0.2925  1.3955
   87CHL1   C20 8894   4.008   2.767   7.766 -0.2849  0.1581 -0.2967
   87CHL1   H20 8895   4.076   2.687   7.801 -0.9421 -0.5918 -0.6971
   87CHL1   C21 8896   3.864   2.726   7.811  0.1840  1.1250  0.7722
   87CHL1  H21A 8897   3.836   2.628   7.767  0.4804  1.4785 -0.2162
   87CHL1  H21B 8898   3.797   2.808   7.777 -3.3163 -1.3121  1.5014
   87CHL1  H21C 8899   3.860   2.714   7.921 -0.4506  1.4222  0.7872
   87CHL1   C22 8900   4.053   2.899   7.838 -0.6506 -0.2775  0.9810
   87CHL1  H22A 8901   4.159   2.921   7.812 -0.4834 -1.3911  0.6812
   87CHL1  H22B 8902   3.990   2.981   7.800 -1.2445 -0.2431  2.0247
   87CHL1   C23 8903   4.055   2.909   7.989  1.1788  0.5721  0.7569
   87CHL1  H23A 8904   3.951   2.900   8.029  1.2369 -0.5372  0.6856
   87CHL1  H23B 8905   4.124   2.834   8.033  1.7425  0.1758 -0.7737
   87CHL1   C24 8906   4.096   3.051   8.041  0.2342 -0.3656  0.0449
   87CHL1  H24A 8907   4.199   3.070   8.005  0.2058 -1.9807 -0.9152
   87CHL1  H24B 8908   4.041   3.142   8.008 -1.3651 -1.3573 -0.0416
   87CHL1   C25 8909   4.083   3.049   8.202 -0.2417  0.3027 -0.5077
   87CHL1   H25 8910   4.128   2.951   8.229  2.2054  1.5603  0.0335
   87CHL1   C26 8911   4.171   3.163   8.263  0.3123  0.6202 -0.0568
   87CHL1  H26A 8912   4.150   3.265   8.224 -1.7966  0.2278  0.0029
   87CHL1  H26B 8913   4.173   3.169   8.374  0.2167 -0.6674  0.0135
   87CHL1  H26C 8914   4.280   3.146   8.248 -0.0294 -0.7572 -1.0611
   87CHL1   C27 8915   3.937   3.065   8.250 -0.3479 -0.4058 -0.2833
   87CHL1  H27A 8916   3.931   3.056   8.360 -1.0973 -1.1514 -0.3824
   87CHL1  H27B 8917   3.910   3.171   8.229  0.8436 -0.0599 -0.1477
   87CHL1  H27C 8918   3.864   2.992   8.210 -0.7905  1.4629 -3.0140
   88CHL1    C3 8919   2.031   0.999   6.799  0.1599 -0.4410 -0.4338
   88CHL1    H3 8920   2.111   1.067   6.837 -0.3551 -0.2018  0.2199
   88CHL1    O3 8921   2.047   0.976   6.660  1.0742 -0.4854  0.3708
   88CHL1   H3' 8922   1.967   0.931   6.632  1.3722 -1.1147  0.5288
   88CHL1    C4 8923   2.067   0.856   6.867  0.3360  0.6959  0.9764
   88CHL1   H4A 8924   1.987   0.783   6.842 -1.1689  1.9844  1.9319
   88CHL1   H4B 8925   2.160   0.818   6.821 -0.2985  0.9057 -0.5285
   88CHL1    C5 8926   2.065   0.871   7.018  0.0465  1.2883  0.6714
   88CHL1    C6 8927   2.180   0.849   7.080 -0.1735 -0.4978  0.5439
   88CHL1    H6 8928   2.269   0.809   7.030  0.7138  0.8438  1.0031
   88CHL1    C7 8929   2.194   0.876   7.229  0.0986 -0.7917 -0.0028
   88CHL1   H7A 8930   2.266   0.803   7.272 -0.6874 -0.8938  1.1611
   88CHL1   H7B 8931   2.241   0.974   7.254 -2.0497  0.3650 -0.4182
   88CHL1    C8 8932   2.063   0.878   7.302  0.0991  0.6130 -0.1820
   88CHL1    H8 8933   2.012   0.779   7.298 -0.1698  0.7521 -0.1975
   88CHL1   C14 8934   2.074   0.917   7.449 -0.0563  0.5928 -0.1941
   88CHL1   H14 8935   2.117   1.019   7.461 -0.8003  0.8169  0.6853
   88CHL1   C15 8936   2.163   0.832   7.547 -0.0003 -0.1146  0.4631
   88CHL1  H15A 8937   2.153   0.727   7.512 -1.6389  0.2598 -0.2581
   88CHL1  H15B 8938   2.269   0.860   7.532 -0.2194 -0.0662 -1.0670
   88CHL1   C16 8939   2.111   0.850   7.688 -0.2469 -0.9339 -0.5667
   88CHL1  H16A 8940   2.099   0.756   7.745  1.6054 -2.2628 -2.2898
   88CHL1  H16B 8941   2.191   0.909   7.738 -1.7776  1.0295 -0.3845
   88CHL1   C17 8942   1.991   0.951   7.675 -0.0723  0.2714  0.0158
   88CHL1   H17 8943   2.035   1.052   7.687  0.0765  0.1468  0.5424
   88CHL1   C13 8944   1.942   0.938   7.529 -0.2062  0.1366  0.5854
   88CHL1   C18 8945   1.853   0.808   7.524  0.7040 -0.6666 -0.6238
   88CHL1  H18A 8946   1.824   0.798   7.417 -2.8698  1.2054  0.0865
   88CHL1  H18B 8947   1.910   0.719   7.558  2.4203  0.1384 -1.3851
   88CHL1  H18C 8948   1.752   0.822   7.569  0.3781  2.2866 -2.1930
   88CHL1   C12 8949   1.883   1.061   7.457 -0.1839 -0.0113  0.4232
   88CHL1  H12A 8950   1.784   1.083   7.502  0.1228  2.5409 -0.0402
   88CHL1  H12B 8951   1.938   1.156   7.476 -0.5411  0.8491 -2.5680
   88CHL1   C11 8952   1.857   1.038   7.311 -0.0998  0.2646  0.1570
   88CHL1  H11A 8953   1.778   0.960   7.314  0.0757  0.0207 -1.1470
   88CHL1  H11B 8954   1.815   1.127   7.259 -2.0027 -0.8134 -0.1857
   88CHL1    C9 8955   1.977   0.988   7.229  0.2451 -0.0587  0.0056
   88CHL1    H9 8956   2.046   1.074   7.224  1.9218 -1.4743 -1.8054
   88CHL1   C10 8957   1.943   0.937   7.082 -0.3602  1.2588 -0.5880
   88CHL1   C19 8958   1.836   0.833   7.090 -0.3492 -0.0563  0.6885
   88CHL1  H19A 8959   1.737   0.882   7.099  0.6328  1.9227  0.8415
   88CHL1  H19B 8960   1.836   0.763   7.004  0.3067  0.2299  0.4561
   88CHL1  H19C 8961   1.845   0.774   7.184  1.0565 -1.1834 -0.1302
   88CHL1    C1 8962   1.887   1.067   7.002  0.2589 -0.2547 -0.1258
   88CHL1   H1A 8963   1.783   1.092   7.030  0.4223 -1.5367  1.7161
   88CHL1   H1B 8964   1.961   1.147   7.024  0.1475 -0.4565  0.9903
   88CHL1    C2 8965   1.888   1.047   6.845 -0.2308 -0.8260 -0.2630
   88CHL1   H2A 8966   1.856   1.138   6.789 -1.6498 -1.2760 -0.2251
   88CHL1   H2B 8967   1.808   0.973   6.820 -1.5129 -0.2258  1.9113
   88CHL1   C20 8968   1.893   0.939   7.796 -0.5942  0.5718 -0.4807
   88CHL1   H20 8969   1.862   0.833   7.804  0.4266  0.3779  1.1811
   88CHL1   C21 8970   1.761   1.024   7.776 -0.3149  0.3988  0.7590
   88CHL1  H21A 8971   1.726   1.003   7.672 -1.8670 -1.2044  1.5848
   88CHL1  H21B 8972   1.785   1.132   7.769 -1.2811  0.6093  0.6454
   88CHL1  H21C 8973   1.685   1.005   7.854 -0.0035  3.1419  1.7547
   88CHL1   C22 8974   1.968   0.977   7.923 -0.1552  0.0020 -0.5181
   88CHL1  H22A 8975   2.076   0.956   7.930 -0.2785 -0.6829 -0.6341
   88CHL1  H22B 8976   1.946   1.084   7.941 -5.1747 -0.6791 -1.7268
   88CHL1   C23 8977   1.903   0.915   8.053  0.0820 -0.5831  0.2604
   88CHL1  H23A 8978   1.794   0.928   8.036 -0.2078  0.4954  2.7771
   88CHL1  H23B 8979   1.926   0.807   8.052  1.6973 -0.2645  1.6464
   88CHL1   C24 8980   1.953   0.975   8.193 -0.3279  0.5518  0.4612
   88CHL1  H24A 8981   2.064   0.978   8.192 -0.3414  1.4089 -2.3611
   88CHL1  H24B 8982   1.928   1.083   8.188  0.2236  0.6462 -0.3150
   88CHL1   C25 8983   1.895   0.912   8.320 -0.3572 -0.3389  0.0795
   88CHL1   H25 8984   1.785   0.928   8.316 -0.2447  0.7219  0.9732
   88CHL1   C26 8985   1.929   0.764   8.338  0.2215 -0.5981  0.0565
   88CHL1  H26A 8986   1.871   0.700   8.268  1.6611 -2.0933  0.2100
   88CHL1  H26B 8987   2.035   0.732   8.336  0.3185 -0.5271  2.3421
   88CHL1  H26C 8988   1.891   0.728   8.436 -3.7640 -0.7751 -1.4281
   88CHL1   C27 8989   1.953   0.979   8.443  0.2829 -0.2806 -0.9717
   88CHL1  H27A 8990   2.064   0.972   8.454  0.1583 -0.3862  0.2367
   88CHL1  H27B 8991   1.923   1.086   8.438  3.7632  0.8134  0.0295
   88CHL1  H27C 8992   1.902   0.943   8.535  1.5412  0.0138 -0.1354
   89CHL1    C3 8993   4.123   3.780   7.182  0.4400  0.4200  0.9406
   89CHL1    H3 8994   4.047   3.706   7.217  0.1372  0.5930  0.6540
   89CHL1    O3 8995   4.097   3.806   7.046  0.5470  0.4452  0.1858
   89CHL1   H3' 8996   4.070   3.899   7.046  2.6625  1.0925  1.0284
   89CHL1    C4 8997   4.113   3.910   7.268 -0.0086 -0.0782  0.0405
   89CHL1   H4A 8998   4.188   3.982   7.228  0.3220  1.0900  2.6313
   89CHL1   H4B 8999   4.012   3.952   7.249  0.2265  0.0429 -0.9798
   89CHL1    C5 9000   4.152   3.886   7.414 -0.0149  0.5633 -0.2355
   89CHL1    C6 9001   4.060   3.924   7.509 -0.2021  0.4887  0.2661
   89CHL1    H6 9002   3.968   3.979   7.482 -1.2026 -1.3636 -0.2254
   89CHL1    C7 9003   4.077   3.883   7.654  0.3586 -0.4145  0.3092
   89CHL1   H7A 9004   4.038   3.964   7.719 -0.7627 -1.0576  0.4495
   89CHL1   H7B 9005   4.016   3.790   7.651  0.5661 -0.5239 -2.9706
   89CHL1    C8 9006   4.222   3.843   7.690  0.5722 -0.2763 -0.4015
   89CHL1    H8 9007   4.282   3.936   7.697 -1.1102  0.9079 -1.1832
   89CHL1   C14 9008   4.221   3.779   7.823  0.7799 -0.2425 -0.2030
   89CHL1   H14 9009   4.149   3.694   7.818 -0.1530  0.5863 -0.9432
   89CHL1   C15 9010   4.149   3.860   7.939 -0.2232  0.2143  0.0909
   89CHL1  H15A 9011   4.170   3.968   7.925  0.1260  0.0361 -0.7679
   89CHL1  H15B 9012   4.040   3.839   7.944 -0.1371 -0.5770 -1.2658
   89CHL1   C16 9013   4.215   3.794   8.070  0.6824  0.2424  0.2721
   89CHL1  H16A 9014   4.276   3.867   8.127  1.1230 -1.6601  2.2936
   89CHL1  H16B 9015   4.126   3.769   8.133  0.7132 -0.7736 -0.0774
   89CHL1   C17 9016   4.298   3.672   8.019  0.1713  0.6876  0.0621
   89CHL1   H17 9017   4.231   3.586   7.997 -0.4309  1.4446 -1.0952
   89CHL1   C13 9018   4.352   3.717   7.881 -0.4709 -0.7917 -0.3135
   89CHL1   C18 9019   4.459   3.830   7.891  0.1917 -0.0068 -0.2977
   89CHL1  H18A 9020   4.559   3.784   7.906 -0.0366 -0.2994  0.3743
   89CHL1  H18B 9021   4.465   3.891   7.799  0.3979  0.2974 -0.0814
   89CHL1  H18C 9022   4.422   3.890   7.977  1.6426  0.2227  0.1712
   89CHL1   C12 9023   4.394   3.612   7.775  0.0106 -0.3208  0.4261
   89CHL1  H12A 9024   4.487   3.556   7.795  0.8070  1.1022  0.8032
   89CHL1  H12B 9025   4.309   3.541   7.760  0.8860 -0.8246 -2.4834
   89CHL1   C11 9026   4.412   3.676   7.633  0.2734 -0.1571 -0.1100
   89CHL1  H11A 9027   4.477   3.766   7.639 -2.0135  1.5377 -0.3928
   89CHL1  H11B 9028   4.446   3.588   7.574 -0.2787 -1.5055  1.5465
   89CHL1    C9 9029   4.276   3.745   7.583 -0.4261 -0.1462 -0.6863
   89CHL1    H9 9030   4.205   3.660   7.596  1.6750 -1.5092  2.6230
   89CHL1   C10 9031   4.285   3.801   7.437 -0.8412  0.1731  0.5183
   89CHL1   C19 9032   4.400   3.906   7.425 -1.4144 -0.6553 -0.3156
   89CHL1  H19A 9033   4.388   3.985   7.503 -2.6052 -1.0026 -0.1378
   89CHL1  H19B 9034   4.494   3.848   7.436 -0.4328  0.3605 -2.8635
   89CHL1  H19C 9035   4.401   3.960   7.328 -0.4360  2.1350  1.1908
   89CHL1    C1 9036   4.291   3.681   7.332 -0.3346 -0.5965 -0.2082
   89CHL1   H1A 9037   4.388   3.630   7.351 -0.0503  0.2598  0.6755
   89CHL1   H1B 9038   4.215   3.604   7.357 -2.2701  1.2413 -0.3135
   89CHL1    C2 9039   4.262   3.724   7.185 -0.0867  0.4676 -0.1784
   89CHL1   H2A 9040   4.297   3.648   7.112  0.6508  0.5341  0.0934
   89CHL1   H2B 9041   4.330   3.808   7.156  0.5854  1.1241  3.0727
   89CHL1   C20 9042   4.402   3.628   8.123 -0.0981  0.5965  0.4835
   89CHL1   H20 9043   4.499   3.683   8.123 -0.0638  0.5480  1.8326
   89CHL1   C21 9044   4.442   3.482   8.089  0.0772  0.4018  0.1923
   89CHL1  H21A 9045   4.366   3.411   8.128  0.8700 -1.8042 -2.1502
   89CHL1  H21B 9046   4.547   3.464   8.119 -0.0303 -1.7648 -0.6901
   89CHL1  H21C 9047   4.429   3.471   7.979 -1.5422  1.1714  0.2807
   89CHL1   C22 9048   4.354   3.629   8.271 -0.3216  0.0197  0.3211
   89CHL1  H22A 9049   4.320   3.733   8.290  0.1906  0.2422  0.0330
   89CHL1  H22B 9050   4.264   3.564   8.284 -0.4404  0.7972  3.8758
   89CHL1   C23 9051   4.460   3.580   8.369  0.3178  0.1135  0.4936
   89CHL1  H23A 9052   4.482   3.472   8.353 -0.5811  0.1528 -1.1127
   89CHL1  H23B 9053   4.557   3.628   8.345 -1.4644  3.0103 -1.1400
   89CHL1   C24 9054   4.435   3.603   8.513  0.1013 -0.2287 -0.8612
   89CHL1  H24A 9055   4.401   3.707   8.533  0.6731 -0.0985 -0.5265
   89CHL1  H24B 9056   4.344   3.544   8.535  0.8534 -0.9911  0.3177
   89CHL1   C25 9057   4.539   3.554   8.611 -0.2838 -0.8394  0.9092
   89CHL1   H25 9058   4.571   3.452   8.581 -0.6572 -1.6229  3.0377
   89CHL1   C26 9059   4.657   3.651   8.607 -0.2989 -0.3170  0.2722
   89CHL1  H26A 9060   4.711   3.608   8.520  0.7220 -1.2083  1.3462
   89CHL1  H26B 9061   4.629   3.756   8.582  1.2823 -0.1259 -0.7562
   89CHL1  H26C 9062   4.713   3.636   8.701  0.8089 -0.2126 -0.3583
   89CHL1   C27 9063   4.490   3.545   8.755 -0.3653 -0.6450  0.8672
   89CHL1  H27A 9064   4.561   3.488   8.819 -0.8596 -1.3005  0.8393
   89CHL1  H27B 9065   4.475   3.648   8.795 -1.9016 -1.1113  1.5396
   89CHL1  H27C 9066   4.396   3.486   8.756 -1.1027  0.4394 -1.9159
   90CHL1    C3 9067   4.527   5.615   7.126 -0.1660 -0.6087  0.3678
   90CHL1    H3 9068   4.625   5.574   7.158 -0.5123  0.3165  2.7228
   90CHL1    O3 9069   4.522   5.611   6.981  0.2929 -0.6061 -0.2100
   90CHL1   H3' 9070   4.562   5.694   6.954  0.4935 -1.2932 -2.0847
   90CHL1    C4 9071   4.412   5.524   7.186 -0.5136 -0.5397  0.3060
   90CHL1   H4A 9072   4.314   5.548   7.141 -0.2028  0.7265  0.2659
   90CHL1   H4B 9073   4.423   5.417   7.160  2.6582 -0.7350  2.1123
   90CHL1    C5 9074   4.409   5.537   7.333 -0.8712 -0.2861 -0.1015
   90CHL1    C6 9075   4.435   5.431   7.416  0.1218 -0.0237  0.6010
   90CHL1    H6 9076   4.443   5.337   7.360  0.2856  0.9612 -1.0660
   90CHL1    C7 9077   4.429   5.441   7.565  0.2365 -0.6151 -0.5344
   90CHL1   H7A 9078   4.381   5.349   7.603  2.6345 -1.0242  1.6344
   90CHL1   H7B 9079   4.537   5.441   7.591  0.3996  1.9471 -1.1025
   90CHL1    C8 9080   4.347   5.566   7.614 -0.5623 -0.5917 -0.7649
   90CHL1    H8 9081   4.244   5.552   7.575 -0.2767 -1.1421 -1.3260
   90CHL1   C14 9082   4.358   5.584   7.769  0.1390 -0.5081  0.1394
   90CHL1   H14 9083   4.467   5.594   7.788  0.1681  2.4633 -1.2635
   90CHL1   C15 9084   4.313   5.466   7.854 -0.0059 -0.1017  0.2581
   90CHL1  H15A 9085   4.237   5.409   7.797  0.4208 -1.4368  0.9855
   90CHL1  H15B 9086   4.389   5.385   7.861  1.0730  1.0525  2.8155
   90CHL1   C16 9087   4.273   5.533   7.983 -0.3952  0.0000  0.6430
   90CHL1  H16A 9088   4.163   5.518   7.981 -0.5149  0.9204 -0.3876
   90CHL1  H16B 9089   4.303   5.483   8.077  0.5482  0.3183  0.5096
   90CHL1   C17 9090   4.313   5.685   7.976  0.2663  0.1092 -0.0462
   90CHL1   H17 9091   4.423   5.690   7.987  0.3552 -1.6995  0.1115
   90CHL1   C13 9092   4.298   5.712   7.823  0.3006 -0.0055 -0.5615
   90CHL1   C18 9093   4.148   5.715   7.786  0.2475  0.5431  0.5700
   90CHL1  H18A 9094   4.116   5.707   7.680  1.2805 -2.5503  0.4360
   90CHL1  H18B 9095   4.082   5.639   7.833  1.8108 -1.6714 -0.6752
   90CHL1  H18C 9096   4.113   5.812   7.825  0.1123  1.1480 -1.0149
   90CHL1   C12 9097   4.372   5.831   7.764 -0.6678 -0.9609  0.1277
   90CHL1  H12A 9098   4.334   5.926   7.807 -0.7807  1.1351 -4.3073
   90CHL1  H12B 9099   4.476   5.840   7.802  0.0992  1.1884 -2.3102
   90CHL1   C11 9100   4.362   5.832   7.608 -0.2908 -0.1284 -0.0058
   90CHL1  H11A 9101   4.253   5.842   7.587 -0.2727  0.2245  0.0668
   90CHL1  H11B 9102   4.424   5.911   7.561 -1.4512 -0.3600 -2.0125
   90CHL1    C9 9103   4.401   5.694   7.547 -1.0430  0.3448  0.2444
   90CHL1    H9 9104   4.506   5.684   7.581 -1.6069  0.2641  2.0093
   90CHL1   C10 9105   4.379   5.677   7.391 -0.1108 -0.0550  0.7232
   90CHL1   C19 9106   4.236   5.713   7.356  0.3145  0.3439  0.5199
   90CHL1  H19A 9107   4.223   5.701   7.247 -0.8379 -1.2595  0.8018
   90CHL1  H19B 9108   4.161   5.641   7.397  0.3273  0.9643  1.6612
   90CHL1  H19C 9109   4.213   5.819   7.379  2.9932  0.6641  1.9376
   90CHL1    C1 9110   4.477   5.769   7.320 -0.0478 -0.4456 -0.3409
   90CHL1   H1A 9111   4.454   5.877   7.332 -0.2945 -0.4931 -0.3714
   90CHL1   H1B 9112   4.578   5.755   7.365 -1.8235 -1.1464  3.6618
   90CHL1    C2 9113   4.494   5.754   7.169 -0.6577 -0.4347  0.3415
   90CHL1   H2A 9114   4.565   5.827   7.125 -2.0523  1.6215  1.4377
   90CHL1   H2B 9115   4.396   5.779   7.125 -1.1627 -0.7448  1.2830
   90CHL1   C20 9116   4.258   5.783   8.082 -0.0709 -0.2942  0.7169
   90CHL1   H20 9117   4.156   5.811   8.048 -0.2702 -1.5025  0.2964
   90CHL1   C21 9118   4.354   5.909   8.089 -0.2835  0.2459  0.1253
   90CHL1  H21A 9119   4.458   5.883   8.118 -0.6572 -0.9670  0.3976
   90CHL1  H21B 9120   4.318   5.983   8.163  2.0485  1.2499  0.3214
   90CHL1  H21C 9121   4.361   5.961   7.991 -1.3318 -0.4779 -0.3385
   90CHL1   C22 9122   4.242   5.720   8.227 -0.1450 -0.3909  0.1032
   90CHL1  H22A 9123   4.305   5.629   8.224  1.9796  1.0323 -0.6032
   90CHL1  H22B 9124   4.284   5.796   8.296 -1.0189  0.5295 -0.3656
   90CHL1   C23 9125   4.099   5.678   8.275 -0.2364 -0.1898  0.1085
   90CHL1  H23A 9126   4.057   5.777   8.305  0.1103  0.0440 -0.1693
   90CHL1  H23B 9127   4.046   5.620   8.196 -0.3048  0.7855 -0.5811
   90CHL1   C24 9128   4.095   5.594   8.403 -0.4306 -0.1324 -0.1070
   90CHL1  H24A 9129   4.115   5.487   8.381  0.3163  0.0423 -0.2845
   90CHL1  H24B 9130   4.161   5.634   8.483 -0.8860  1.8423 -0.6812
   90CHL1   C25 9131   3.955   5.605   8.466  0.2272 -0.2513  0.3967
   90CHL1   H25 9132   3.929   5.712   8.475 -2.7184 -0.8431 -0.6009
   90CHL1   C26 9133   3.850   5.532   8.388  0.1507  0.2114  0.0223
   90CHL1  H26A 9134   3.755   5.526   8.445  0.6783 -2.2656  0.6901
   90CHL1  H26B 9135   3.835   5.564   8.283  1.6580 -1.3815 -0.7175
   90CHL1  H26C 9136   3.871   5.423   8.380 -0.5280  0.0975 -0.3224
   90CHL1   C27 9137   3.956   5.553   8.606  0.1652 -0.5154  0.5760
   90CHL1  H27A 9138   3.995   5.630   8.676  0.7003 -2.8714  2.9404
   90CHL1  H27B 9139   3.854   5.520   8.635 -0.2951  1.5788  1.4180
   90CHL1  H27C 9140   4.017   5.460   8.615 -1.1523 -1.4029  0.4896
   91CHL1    C3 9141   6.163   6.633   7.448  0.1706 -0.0257  0.1118
   91CHL1    H3 9142   6.074   6.567   7.457  0.0281  0.1513  0.0119
   91CHL1    O3 9143   6.179   6.642   7.308 -0.5964 -0.1060  0.5278
   91CHL1   H3' 9144   6.100   6.689   7.278 -0.3585 -1.4765 -2.3893
   91CHL1    C4 9145   6.133   6.773   7.498 -0.0951  0.5961  0.0463
   91CHL1   H4A 9146   6.207   6.852   7.475 -0.8698  1.3963  0.2687
   91CHL1   H4B 9147   6.041   6.800   7.441  0.4535 -0.2906 -1.2928
   91CHL1    C5 9148   6.117   6.774   7.650 -0.3197  0.2485 -0.0879
   91CHL1    C6 9149   6.019   6.830   7.709  0.2898 -0.1647 -0.1912
   91CHL1    H6 9150   5.957   6.896   7.646 -1.3463  1.1760  2.7332
   91CHL1    C7 9151   6.012   6.841   7.855  0.2518  0.0703 -0.7774
   91CHL1   H7A 9152   5.975   6.944   7.871  0.1889 -0.3170  1.9333
   91CHL1   H7B 9153   5.936   6.769   7.894  1.6657 -1.0435  0.0138
   91CHL1    C8 9154   6.138   6.806   7.940  0.2766 -0.3821  0.1457
   91CHL1    H8 9155   6.203   6.895   7.932  1.2955 -1.0354  1.0429
   91CHL1   C14 9156   6.094   6.767   8.087 -0.7620  0.8631  0.2350
   91CHL1   H14 9157   6.033   6.676   8.069  2.0187 -0.9779 -0.3341
   91CHL1   C15 9158   6.002   6.858   8.160  0.4159 -0.4615 -0.5366
   91CHL1  H15A 9159   6.047   6.959   8.146  2.7818 -1.6379 -1.8474
   91CHL1  H15B 9160   5.897   6.870   8.126 -0.3630 -2.2686  1.1562
   91CHL1   C16 9161   6.018   6.811   8.302 -0.8198 -0.9274  0.1635
   91CHL1  H16A 9162   6.051   6.895   8.366 -2.0431  0.0124 -0.4243
   91CHL1  H16B 9163   5.926   6.765   8.344 -3.2874  1.5628 -2.3379
   91CHL1   C17 9164   6.137   6.713   8.307 -0.6543  0.2623  0.2303
   91CHL1   H17 9165   6.084   6.615   8.301  1.1598 -0.6861 -0.6673
   91CHL1   C13 9166   6.215   6.731   8.175 -0.0798 -0.4557 -0.2095
   91CHL1   C18 9167   6.303   6.856   8.185  0.4309 -0.7695 -1.0542
   91CHL1  H18A 9168   6.260   6.947   8.232  0.1728 -1.3595 -0.1405
   91CHL1  H18B 9169   6.398   6.836   8.240  0.5695 -1.6926 -1.6171
   91CHL1  H18C 9170   6.330   6.881   8.080  0.5102 -1.2979 -1.1601
   91CHL1   C12 9171   6.295   6.612   8.112 -0.6364 -0.0650  0.4873
   91CHL1  H12A 9172   6.394   6.585   8.155  0.1997  2.5358  0.2581
   91CHL1  H12B 9173   6.228   6.524   8.112 -0.1321 -0.5005 -3.0080
   91CHL1   C11 9174   6.327   6.627   7.965  0.3629 -0.5644 -0.3595
   91CHL1  H11A 9175   6.415   6.696   7.973  0.6168 -1.0702  1.5759
   91CHL1  H11B 9176   6.365   6.533   7.921 -0.5883 -1.1260  0.0173
   91CHL1    C9 9177   6.210   6.688   7.879  0.3412 -0.0994 -0.3046
   91CHL1    H9 9178   6.132   6.609   7.883  1.1875 -0.9544 -0.6641
   91CHL1   C10 9179   6.236   6.700   7.729 -0.2514  0.5104  0.2734
   91CHL1   C19 9180   6.351   6.803   7.710 -0.5361  0.2839 -0.1789
   91CHL1  H19A 9181   6.329   6.899   7.761 -3.9618 -0.9186  0.7388
   91CHL1  H19B 9182   6.443   6.765   7.758 -1.5493 -0.9603  0.8236
   91CHL1  H19C 9183   6.371   6.826   7.603 -1.5289 -1.2198 -0.7033
   91CHL1    C1 9184   6.279   6.569   7.659 -0.4334  0.1384 -0.1557
   91CHL1   H1A 9185   6.372   6.531   7.707 -0.9666 -0.2106  0.6064
   91CHL1   H1B 9186   6.194   6.499   7.677  0.4483 -0.4714  1.7585
   91CHL1    C2 9187   6.291   6.572   7.508  0.0358 -0.3512  0.4373
   91CHL1   H2A 9188   6.297   6.464   7.481  0.5089 -0.1887 -0.0980
   91CHL1   H2B 9189   6.376   6.629   7.464 -1.0426  0.5717 -0.4817
   91CHL1   C20 9190   6.220   6.721   8.439 -0.0510 -0.1104 -0.3985
   91CHL1   H20 9191   6.269   6.821   8.445  1.5373 -0.6811 -3.0648
   91CHL1   C21 9192   6.323   6.604   8.437  0.2798 -0.7978  0.5374
   91CHL1  H21A 9193   6.270   6.514   8.400  0.1308 -0.5098  0.0366
   91CHL1  H21B 9194   6.375   6.597   8.535 -0.3173  0.3234  0.9476
   91CHL1  H21C 9195   6.403   6.616   8.361 -0.7537 -2.3679 -0.8351
   91CHL1   C22 9196   6.121   6.708   8.553 -0.1389 -0.0725  0.5175
   91CHL1  H22A 9197   6.029   6.771   8.555 -0.3833 -0.3164 -1.8968
   91CHL1  H22B 9198   6.084   6.606   8.532  0.0589 -0.1052  0.3340
   91CHL1   C23 9199   6.184   6.713   8.692 -0.0956 -0.7275 -0.4345
   91CHL1  H23A 9200   6.261   6.633   8.702  0.0126 -0.5999 -0.2419
   91CHL1  H23B 9201   6.228   6.813   8.714 -0.3667 -1.1739  2.3284
   91CHL1   C24 9202   6.080   6.697   8.802 -0.0013 -0.1273 -0.3789
   91CHL1  H24A 9203   6.129   6.687   8.901 -0.2552 -2.6794 -0.4691
   91CHL1  H24B 9204   6.013   6.785   8.790  0.2783  0.2147  0.5191
   91CHL1   C25 9205   5.995   6.573   8.808  0.4247 -0.1451 -0.6886
   91CHL1   H25 9206   5.919   6.583   8.728 -1.3582  1.7477  1.1611
   91CHL1   C26 9207   6.069   6.438   8.788  0.0468 -0.0446 -0.3091
   91CHL1  H26A 9208   6.098   6.447   8.681 -1.6156 -0.6253 -0.8428
   91CHL1  H26B 9209   6.158   6.440   8.853 -1.6508  1.9419  2.0535
   91CHL1  H26C 9210   6.003   6.353   8.819 -0.0152  0.5872  1.3337
   91CHL1   C27 9211   5.932   6.575   8.946  0.7628 -0.2314 -0.6373
   91CHL1  H27A 9212   5.855   6.496   8.960  0.4055  0.2770  0.3594
   91CHL1  H27B 9213   6.007   6.556   9.026  0.1740  1.0218  0.2366
   91CHL1  H27C 9214   5.884   6.675   8.961  0.2759 -0.7658  1.5382
   92CHL1    C3 9215   1.781   2.181   6.841 -0.2585 -0.1560 -0.0704
   92CHL1    H3 9216   1.831   2.276   6.870 -0.2710  0.0793 -0.8112
   92CHL1    O3 9217   1.770   2.190   6.703 -0.4110  0.1660  0.0047
   92CHL1   H3' 9218   1.690   2.241   6.689 -0.8699 -0.5743 -0.1090
   92CHL1    C4 9219   1.880   2.068   6.887 -0.2122 -0.3533  0.2193
   92CHL1   H4A 9220   1.845   1.968   6.854 -0.0445 -0.3063 -0.1081
   92CHL1   H4B 9221   1.977   2.089   6.837 -1.6520  1.0692 -2.0797
   92CHL1    C5 9222   1.890   2.067   7.036  0.6158  0.0039  0.4785
   92CHL1    C6 9223   2.010   2.071   7.092 -0.3615 -0.1296  0.4121
   92CHL1    H6 9224   2.103   2.080   7.034 -0.9683 -1.1994 -0.7253
   92CHL1    C7 9225   2.013   2.051   7.241 -0.0708 -0.3151 -0.2206
   92CHL1   H7A 9226   2.103   1.994   7.275 -0.2998 -1.7669 -1.9914
   92CHL1   H7B 9227   2.023   2.153   7.283  0.2832 -0.3044 -0.3244
   92CHL1    C8 9228   1.894   1.990   7.315 -0.7226 -0.4998  1.0655
   92CHL1    H8 9229   1.897   1.882   7.287  1.3140 -0.3900  0.8015
   92CHL1   C14 9230   1.893   1.995   7.465 -0.2710 -0.3038 -0.1181
   92CHL1   H14 9231   1.909   2.105   7.478  1.3696 -0.3915 -1.1849
   92CHL1   C15 9232   2.020   1.955   7.542 -0.6670 -0.3043 -0.5591
   92CHL1  H15A 9233   2.069   1.863   7.502 -0.3749 -0.4793  0.1771
   92CHL1  H15B 9234   2.097   2.035   7.545  0.7062 -1.6568  2.5762
   92CHL1   C16 9235   1.963   1.947   7.687 -0.8023  0.4783 -0.2031
   92CHL1  H16A 9236   1.984   1.841   7.713  0.6209  1.0365  0.9431
   92CHL1  H16B 9237   2.011   2.018   7.756  1.4959 -1.2566  0.0312
   92CHL1   C17 9238   1.809   1.982   7.683 -0.6260 -0.0575 -0.5996
   92CHL1   H17 9239   1.819   2.088   7.715  0.6990 -0.0732 -0.9478
   92CHL1   C13 9240   1.764   1.961   7.540 -0.7742  0.4217 -0.1846
   92CHL1   C18 9241   1.745   1.805   7.520 -0.1203  0.1778 -0.4393
   92CHL1  H18A 9242   1.753   1.784   7.412 -1.0567 -1.6905 -0.1502
   92CHL1  H18B 9243   1.824   1.744   7.569 -2.7841 -0.7652  2.8617
   92CHL1  H18C 9244   1.646   1.775   7.561  1.4790 -1.2886  2.5578
   92CHL1   C12 9245   1.640   2.037   7.490 -0.1696  0.3574 -0.0772
   92CHL1  H12A 9246   1.556   1.981   7.537  1.5359 -2.1848  0.0715
   92CHL1  H12B 9247   1.657   2.139   7.530  4.8410 -1.8008  4.0577
   92CHL1   C11 9248   1.636   2.024   7.338 -0.4131 -0.2688 -1.0983
   92CHL1  H11A 9249   1.601   1.920   7.324 -1.4592 -0.1899  0.6996
   92CHL1  H11B 9250   1.556   2.086   7.291 -0.1162  0.9342 -0.0634
   92CHL1    C9 9251   1.768   2.059   7.264  0.1254  0.6123 -0.5076
   92CHL1    H9 9252   1.785   2.167   7.284  0.3587  0.3763  0.6249
   92CHL1   C10 9253   1.758   2.056   7.106 -0.2140  0.2910 -0.1512
   92CHL1   C19 9254   1.699   1.916   7.063 -0.1756 -0.7925  0.0042
   92CHL1  H19A 9255   1.606   1.879   7.109 -1.0040  0.4920 -0.6091
   92CHL1  H19B 9256   1.688   1.902   6.954 -1.7633 -1.5690  0.2595
   92CHL1  H19C 9257   1.767   1.839   7.106 -0.8293 -0.3824  1.8394
   92CHL1    C1 9258   1.660   2.167   7.061 -0.1464 -0.0634  0.2962
   92CHL1   H1A 9259   1.560   2.159   7.108 -0.3831  1.7932  0.1184
   92CHL1   H1B 9260   1.699   2.261   7.105  2.3999  0.5682 -3.0887
   92CHL1    C2 9261   1.646   2.175   6.908 -0.1667 -0.1374 -0.0588
   92CHL1   H2A 9262   1.577   2.262   6.896 -0.3427 -0.1757  0.6367
   92CHL1   H2B 9263   1.583   2.096   6.862  1.9293 -1.5220 -0.6165
   92CHL1   C20 9264   1.721   1.931   7.797 -0.1092  0.0869  0.0518
   92CHL1   H20 9265   1.677   1.834   7.766  0.2916 -0.0297 -0.1589
   92CHL1   C21 9266   1.613   2.040   7.820  0.1567 -1.0392  0.5379
   92CHL1  H21A 9267   1.560   2.064   7.725  1.0252  4.5122  1.3326
   92CHL1  H21B 9268   1.668   2.128   7.860  0.2100  0.1344 -2.0257
   92CHL1  H21C 9269   1.541   2.010   7.899 -0.7986  0.9691  0.4496
   92CHL1   C22 9270   1.805   1.910   7.929  0.1293 -0.1612  0.5696
   92CHL1  H22A 9271   1.888   1.839   7.911  1.2599  1.2140  0.2489
   92CHL1  H22B 9272   1.847   2.010   7.955  1.0283 -0.1264 -0.9931
   92CHL1   C23 9273   1.710   1.852   8.035  0.2567 -0.2378  0.0722
   92CHL1  H23A 9274   1.653   1.933   8.084 -0.4886  0.2346 -1.5494
   92CHL1  H23B 9275   1.639   1.779   7.991 -0.2559  0.8518 -0.8902
   92CHL1   C24 9276   1.789   1.785   8.146  0.2094 -0.1828 -0.9764
   92CHL1  H24A 9277   1.719   1.747   8.223  0.5500  0.8385 -0.1465
   92CHL1  H24B 9278   1.846   1.704   8.096 -1.4199 -1.2926 -1.0596
   92CHL1   C25 9279   1.899   1.885   8.204  0.1274 -0.2667  0.3066
   92CHL1   H25 9280   1.957   1.931   8.121 -1.5554 -0.0549 -0.7739
   92CHL1   C26 9281   1.829   2.000   8.279 -0.0688 -0.1349  0.1351
   92CHL1  H26A 9282   1.771   2.062   8.207  0.3025  2.5671  2.0890
   92CHL1  H26B 9283   1.767   1.967   8.365  1.4914  2.2200  2.2437
   92CHL1  H26C 9284   1.905   2.067   8.325 -0.4753 -0.9625  2.0229
   92CHL1   C27 9285   1.992   1.809   8.301 -0.1631 -0.3312 -0.5124
   92CHL1  H27A 9286   1.935   1.758   8.382  0.1198  0.6402  0.2986
   92CHL1  H27B 9287   2.049   1.724   8.257  2.7457  0.9677  0.6657
   92CHL1  H27C 9288   2.057   1.894   8.331 -2.7496  1.1304  1.1632
   93CHL1    C3 9289   1.335   0.127   7.115 -0.3728 -0.3278  0.3279
   93CHL1    H3 9290   1.400   0.037   7.120 -1.3656 -1.0434  0.5666
   93CHL1    O3 9291   1.314   0.156   6.978 -0.0933 -0.6020  0.2130
   93CHL1   H3' 9292   1.225   0.125   6.960 -0.0927 -0.7056  0.3910
   93CHL1    C4 9293   1.202   0.102   7.182  0.6662  0.1749  0.1041
   93CHL1   H4A 9294   1.126   0.177   7.152 -1.3562 -1.1222  1.8329
   93CHL1   H4B 9295   1.170   0.001   7.150  0.4099 -0.1865  1.4513
   93CHL1    C5 9296   1.198   0.116   7.335  0.2166  0.1539 -0.4034
   93CHL1    C6 9297   1.135   0.023   7.408 -0.3427 -0.0011  0.0097
   93CHL1    H6 9298   1.095  -0.060   7.347  2.4625 -0.5300 -1.2289
   93CHL1    C7 9299   1.130   0.012   7.559  0.5298  0.4194 -0.5427
   93CHL1   H7A 9300   1.041  -0.035   7.606  1.0893  1.4502  1.6410
   93CHL1   H7B 9301   1.214  -0.057   7.579 -0.4103 -1.2756 -2.2212
   93CHL1    C8 9302   1.155   0.147   7.617  0.1541  0.0991  0.3840
   93CHL1    H8 9303   1.066   0.212   7.608  0.8129  1.2381  1.8016
   93CHL1   C14 9304   1.184   0.130   7.773  0.9696  0.8594  0.1399
   93CHL1   H14 9305   1.262   0.051   7.771 -0.5155 -0.6573 -4.0967
   93CHL1   C15 9306   1.070   0.073   7.863  0.7178  0.1424 -0.1334
   93CHL1  H15A 9307   0.974   0.126   7.842  0.3953 -0.8581 -1.1920
   93CHL1  H15B 9308   1.064  -0.036   7.845  0.6616  0.1916 -0.4145
   93CHL1   C16 9309   1.119   0.102   8.006 -0.3171  0.4774 -0.2129
   93CHL1  H16A 9310   1.035   0.151   8.060 -1.1815 -0.7404 -0.4550
   93CHL1  H16B 9311   1.147   0.013   8.066  0.2741  2.0747  1.9471
   93CHL1   C17 9312   1.247   0.187   7.996  0.4899 -0.0026 -0.0789
   93CHL1   H17 9313   1.334   0.118   7.994  0.5658  0.1019 -0.3853
   93CHL1   C13 9314   1.233   0.245   7.850  0.7299 -0.1765  0.4177
   93CHL1   C18 9315   1.130   0.364   7.847  0.2712 -0.0944  0.3322
   93CHL1  H18A 9316   1.037   0.349   7.905  0.7263  0.7581  1.3042
   93CHL1  H18B 9317   1.175   0.457   7.887  0.0237 -1.0415  2.8645
   93CHL1  H18C 9318   1.104   0.383   7.740 -0.4917  0.1547  0.5615
   93CHL1   C12 9319   1.364   0.283   7.785  1.1390  0.3791  0.4123
   93CHL1  H12A 9320   1.379   0.386   7.823  1.9479 -0.2305  1.7823
   93CHL1  H12B 9321   1.440   0.204   7.804 -2.0798 -3.8319 -3.2248
   93CHL1   C11 9322   1.340   0.319   7.639 -0.3920  0.2663 -0.2194
   93CHL1  H11A 9323   1.273   0.407   7.637 -3.0993 -1.7193 -1.4904
   93CHL1  H11B 9324   1.435   0.348   7.590  3.1670 -3.9836  3.6685
   93CHL1    C9 9325   1.280   0.204   7.556 -0.2144 -0.5169  0.3367
   93CHL1    H9 9326   1.369   0.137   7.565  0.6172  0.4326 -0.6312
   93CHL1   C10 9327   1.277   0.232   7.399  0.0400  0.1768  0.1421
   93CHL1   C19 9328   1.208   0.370   7.386 -1.3838 -0.3929  0.6302
   93CHL1  H19A 9329   1.280   0.448   7.419 -0.2939 -1.4525  0.7858
   93CHL1  H19B 9330   1.195   0.392   7.278 -1.0505 -0.0770  0.6559
   93CHL1  H19C 9331   1.103   0.375   7.424 -1.9285 -0.8080 -0.7773
   93CHL1    C1 9332   1.412   0.238   7.327 -0.6378  0.5162  0.1230
   93CHL1   H1A 9333   1.468   0.331   7.349 -1.9998  1.2614  0.5210
   93CHL1   H1B 9334   1.474   0.151   7.357  2.4149  1.3868 -3.3355
   93CHL1    C2 9335   1.413   0.243   7.175  0.8780  1.0695  0.2288
   93CHL1   H2A 9336   1.520   0.242   7.144  1.0734 -2.4148  0.8067
   93CHL1   H2B 9337   1.363   0.335   7.139  1.0707  0.3733 -1.8728
   93CHL1   C20 9338   1.283   0.291   8.100  0.4607 -0.2013  0.5227
   93CHL1   H20 9339   1.307   0.384   8.045  1.2075  1.2624  3.2226
   93CHL1   C21 9340   1.410   0.258   8.176 -0.2018  0.0860 -0.2645
   93CHL1  H21A 9341   1.455   0.353   8.211 -1.7141  0.7258 -0.0371
   93CHL1  H21B 9342   1.484   0.194   8.122 -0.1045 -0.5364  0.5884
   93CHL1  H21C 9343   1.389   0.212   8.275  0.5115  0.5351  0.0987
   93CHL1   C22 9344   1.165   0.316   8.200 -0.2885  0.8059  0.2227
   93CHL1  H22A 9345   1.062   0.321   8.157 -0.8828 -0.6559  1.4218
   93CHL1  H22B 9346   1.166   0.234   8.275 -1.9746  0.2635 -0.3279
   93CHL1   C23 9347   1.182   0.442   8.285 -0.6306 -0.1902 -0.0903
   93CHL1  H23A 9348   1.271   0.433   8.351 -0.7187 -0.8378 -0.0492
   93CHL1  H23B 9349   1.213   0.522   8.215  1.5601 -1.5188 -0.6690
   93CHL1   C24 9350   1.052   0.480   8.357  0.3453  0.0740  0.3110
   93CHL1  H24A 9351   0.984   0.502   8.271  0.2831 -0.1086  0.3139
   93CHL1  H24B 9352   1.021   0.389   8.412 -1.2109 -1.1276 -2.4584
   93CHL1   C25 9353   1.056   0.603   8.453  0.5018 -0.5662  0.3266
   93CHL1   H25 9354   1.127   0.577   8.535  0.0611  0.1973  0.9623
   93CHL1   C26 9355   1.106   0.732   8.383  0.7721 -0.9184  0.1083
   93CHL1  H26A 9356   1.212   0.708   8.360  1.8139  1.0749  2.5774
   93CHL1  H26B 9357   1.045   0.745   8.291  1.1008 -0.1836  0.0003
   93CHL1  H26C 9358   1.116   0.817   8.454  1.5838 -0.6525 -0.3222
   93CHL1   C27 9359   0.911   0.636   8.513  0.2245  0.5869  0.3492
   93CHL1  H27A 9360   0.907   0.736   8.561 -2.5483 -0.4537  2.4377
   93CHL1  H27B 9361   0.844   0.637   8.425  1.8849 -1.4070 -0.9906
   93CHL1  H27C 9362   0.882   0.559   8.588  2.6359 -0.7909 -0.0538
   94CHL1    C3 9363   2.694   2.658   6.947 -0.6186  0.4752 -0.1549
   94CHL1    H3 9364   2.659   2.554   6.961 -0.4823  0.6456  1.5844
   94CHL1    O3 9365   2.721   2.679   6.809 -0.2780  0.0116 -0.2691
   94CHL1   H3' 9366   2.753   2.769   6.806 -0.0385 -0.0751 -0.2775
   94CHL1    C4 9367   2.596   2.762   7.001  0.6015 -0.2293 -0.3147
   94CHL1   H4A 9368   2.645   2.858   6.972 -1.3560  0.8020 -0.2476
   94CHL1   H4B 9369   2.508   2.752   6.935 -0.0672 -0.3923  0.5984
   94CHL1    C5 9370   2.563   2.746   7.147 -0.2525 -0.2821  0.0084
   94CHL1    C6 9371   2.439   2.724   7.192 -0.5277  0.2640 -0.3273
   94CHL1    H6 9372   2.357   2.728   7.118 -0.9630  2.8568  0.2735
   94CHL1    C7 9373   2.399   2.709   7.341  0.2898 -0.5227 -1.1710
   94CHL1   H7A 9374   2.314   2.771   7.377  0.2948 -1.3158  0.2376
   94CHL1   H7B 9375   2.379   2.602   7.360 -0.0101 -0.0516  1.4418
   94CHL1    C8 9376   2.512   2.755   7.440 -0.9227 -0.7224  0.0196
   94CHL1    H8 9377   2.511   2.866   7.433 -2.2326 -0.8034 -1.4697
   94CHL1   C14 9378   2.483   2.712   7.579  1.0223 -0.4671  0.1816
   94CHL1   H14 9379   2.479   2.602   7.569 -1.1925 -0.3131 -0.9282
   94CHL1   C15 9380   2.343   2.746   7.627  0.0224  0.0027  0.0218
   94CHL1  H15A 9381   2.323   2.854   7.609  0.3012  0.3125  1.5421
   94CHL1  H15B 9382   2.268   2.679   7.579  0.3827 -0.0503 -0.4754
   94CHL1   C16 9383   2.357   2.732   7.777 -0.1884 -0.3612 -0.3956
   94CHL1  H16A 9384   2.314   2.822   7.826  1.3668  0.8108 -1.1315
   94CHL1  H16B 9385   2.295   2.644   7.806 -0.1807 -0.5614 -0.9881
   94CHL1   C17 9386   2.507   2.698   7.811  0.6642 -0.0220  0.3639
   94CHL1   H17 9387   2.509   2.587   7.807 -3.7653 -0.1711 -0.7544
   94CHL1   C13 9388   2.580   2.744   7.686 -0.6210  0.0826  0.2429
   94CHL1   C18 9389   2.608   2.900   7.702  0.6358 -0.0514  0.0158
   94CHL1  H18A 9390   2.536   2.939   7.778 -0.8776 -0.8093 -1.0022
   94CHL1  H18B 9391   2.716   2.916   7.722  1.2855 -3.6975 -0.1877
   94CHL1  H18C 9392   2.579   2.959   7.613 -0.2654  1.0853  1.0400
   94CHL1   C12 9393   2.710   2.670   7.641 -0.3708  0.8077 -0.7708
   94CHL1  H12A 9394   2.788   2.685   7.719  1.7858  1.7602 -3.0328
   94CHL1  H12B 9395   2.684   2.562   7.633  1.7659  0.2700 -0.8976
   94CHL1   C11 9396   2.755   2.716   7.500 -0.8753  0.1999  0.5174
   94CHL1  H11A 9397   2.787   2.821   7.512  0.0283 -0.2098  1.8184
   94CHL1  H11B 9398   2.846   2.656   7.477 -0.4868  0.9710  0.0251
   94CHL1    C9 9399   2.641   2.700   7.387  0.0064  0.5016 -0.7247
   94CHL1    H9 9400   2.624   2.590   7.387  0.5606  0.4116 -1.4072
   94CHL1   C10 9401   2.685   2.747   7.245 -0.0745 -0.5148 -0.3294
   94CHL1   C19 9402   2.736   2.901   7.244 -0.6325  0.1313  0.0164
   94CHL1  H19A 9403   2.656   2.972   7.272 -0.2866  0.9272 -0.9726
   94CHL1  H19B 9404   2.829   2.899   7.306  0.3376  2.8482 -1.2605
   94CHL1  H19C 9405   2.769   2.933   7.143  2.2741 -3.9737 -0.4617
   94CHL1    C1 9406   2.786   2.651   7.186  0.4817  0.0143 -0.1360
   94CHL1   H1A 9407   2.887   2.650   7.233  0.4776 -0.4622 -0.1285
   94CHL1   H1B 9408   2.743   2.548   7.189 -1.1035  0.6727  0.4109
   94CHL1    C2 9409   2.827   2.661   7.031 -0.4663  0.2466 -0.4395
   94CHL1   H2A 9410   2.903   2.588   6.997  0.6451  1.1488  0.0709
   94CHL1   H2B 9411   2.870   2.762   7.011 -0.7789  0.7568  1.4096
   94CHL1   C20 9412   2.545   2.742   7.954  0.5175  0.0896  0.3510
   94CHL1   H20 9413   2.548   2.853   7.967  0.9637  0.2423 -0.9614
   94CHL1   C21 9414   2.684   2.682   7.991  0.2249  0.1496 -0.0653
   94CHL1  H21A 9415   2.752   2.738   7.923  0.5556 -0.2215 -0.0415
   94CHL1  H21B 9416   2.687   2.572   7.979 -0.0854  0.1556 -0.1995
   94CHL1  H21C 9417   2.714   2.719   8.092  0.4212  1.2418 -0.5166
   94CHL1   C22 9418   2.447   2.697   8.072  0.2081 -0.9207  0.1867
   94CHL1  H22A 9419   2.387   2.611   8.033  1.0806  0.0620 -3.5689
   94CHL1  H22B 9420   2.500   2.662   8.164 -0.7471  3.2628  2.4208
   94CHL1   C23 9421   2.352   2.813   8.126  0.1154 -0.2253  0.7921
   94CHL1  H23A 9422   2.407   2.908   8.137 -1.5661  0.8777 -0.0662
   94CHL1  H23B 9423   2.280   2.836   8.044  1.9091 -0.7455 -0.9532
   94CHL1   C24 9424   2.269   2.770   8.249 -0.5844  0.6104  0.4502
   94CHL1  H24A 9425   2.213   2.677   8.226  0.5979  0.4920 -2.1876
   94CHL1  H24B 9426   2.333   2.740   8.334 -0.8686  0.3496  0.5730
   94CHL1   C25 9427   2.181   2.884   8.301 -0.5417 -0.2082 -0.6451
   94CHL1   H25 9428   2.123   2.906   8.209 -0.4839  0.1796 -0.5853
   94CHL1   C26 9429   2.089   2.836   8.414  1.1459  0.4464 -0.1880
   94CHL1  H26A 9430   2.150   2.824   8.507  0.3004  0.2275  0.3466
   94CHL1  H26B 9431   2.006   2.910   8.417  1.3488  0.6755 -0.1707
   94CHL1  H26C 9432   2.048   2.735   8.391 -0.6638  1.2577 -0.6308
   94CHL1   C27 9433   2.262   3.008   8.346  0.2600  0.0874  0.1796
   94CHL1  H27A 9434   2.319   3.053   8.262 -1.9224  2.3783 -0.1386
   94CHL1  H27B 9435   2.188   3.084   8.378 -1.8959 -1.6126 -0.6802
   94CHL1  H27C 9436   2.334   2.981   8.426 -0.0173  0.3863  0.5301
   95CHL1    C3 9437   2.901   1.591   6.689  0.2191  0.0759 -0.2627
   95CHL1    H3 9438   2.869   1.697   6.676 -1.9287 -0.3205  1.3612
   95CHL1    O3 9439   2.928   1.530   6.560  0.0507 -0.3995 -0.6842
   95CHL1   H3' 9440   2.913   1.436   6.573 -0.9035 -0.0507  0.8168
   95CHL1    C4 9441   3.024   1.575   6.782 -0.2758  0.3256 -0.4521
   95CHL1   H4A 9442   3.053   1.468   6.785 -1.8352 -0.1387 -1.2084
   95CHL1   H4B 9443   3.107   1.635   6.740 -1.0111  1.1183 -0.7912
   95CHL1    C5 9444   3.002   1.623   6.921  0.2875 -0.5575 -0.7240
   95CHL1    C6 9445   3.076   1.718   6.970  0.7561  0.0219 -0.3471
   95CHL1    H6 9446   3.165   1.755   6.917  1.2049  0.2861  0.5657
   95CHL1    C7 9447   3.056   1.770   7.110 -0.1962  0.0721  0.2871
   95CHL1   H7A 9448   3.157   1.792   7.152 -1.3907  1.3006  2.5973
   95CHL1   H7B 9449   2.998   1.865   7.107  3.1820  2.2841  1.7211
   95CHL1    C8 9450   2.979   1.670   7.199 -0.3266 -0.0747  0.2874
   95CHL1    H8 9451   3.051   1.587   7.212 -0.3304 -0.0522  0.4516
   95CHL1   C14 9452   2.947   1.744   7.326 -0.0672 -0.0131 -0.3409
   95CHL1   H14 9453   2.874   1.821   7.292 -0.4864 -0.2516  0.0121
   95CHL1   C15 9454   3.064   1.821   7.401  0.1879 -0.3849 -0.7582
   95CHL1  H15A 9455   3.147   1.752   7.427 -0.6035 -0.7131  0.9739
   95CHL1  H15B 9456   3.100   1.909   7.343  2.3740  0.0464  1.1797
   95CHL1   C16 9457   2.986   1.856   7.534  0.0893  0.4007 -0.4350
   95CHL1  H16A 9458   3.043   1.851   7.629 -1.2122  2.3674  0.4828
   95CHL1  H16B 9459   2.945   1.958   7.520  0.6568  0.9155  1.4941
   95CHL1   C17 9460   2.860   1.762   7.537 -0.6174 -0.1367  0.2604
   95CHL1   H17 9461   2.780   1.826   7.494  0.4904  0.5686 -0.7807
   95CHL1   C13 9462   2.878   1.653   7.427 -0.3579  0.1776  0.3559
   95CHL1   C18 9463   2.979   1.538   7.480  0.8679 -0.8776 -0.0452
   95CHL1  H18A 9464   3.067   1.592   7.520  1.0246  0.3103 -1.9201
   95CHL1  H18B 9465   2.937   1.474   7.560 -0.3714  0.4332  0.3624
   95CHL1  H18C 9466   3.003   1.479   7.389 -1.4488 -3.1931  0.7697
   95CHL1   C12 9467   2.749   1.585   7.376 -0.0701 -0.8366 -0.0401
   95CHL1  H12A 9468   2.719   1.515   7.456  0.7680 -0.0023  1.0230
   95CHL1  H12B 9469   2.671   1.664   7.363 -0.0250 -0.7181  0.3989
   95CHL1   C11 9470   2.772   1.522   7.234  0.6437 -0.0272  1.0010
   95CHL1  H11A 9471   2.832   1.431   7.259  1.9512  0.3609 -0.6438
   95CHL1  H11B 9472   2.672   1.500   7.190  0.6014  1.8718  0.1255
   95CHL1    C9 9473   2.846   1.619   7.135 -0.6000  0.4047 -0.5435
   95CHL1    H9 9474   2.790   1.712   7.108 -2.1911  0.0708  1.4702
   95CHL1   C10 9475   2.885   1.557   6.999 -0.4645  0.4457  0.1655
   95CHL1   C19 9476   2.912   1.412   7.016 -0.1899 -0.9403  0.7531
   95CHL1  H19A 9477   2.940   1.357   6.923  0.0516 -1.6221  1.2173
   95CHL1  H19B 9478   3.003   1.399   7.080  0.9121 -1.4056 -0.8850
   95CHL1  H19C 9479   2.831   1.350   7.060  0.3787 -0.8252  2.0134
   95CHL1    C1 9480   2.759   1.573   6.900  0.0478 -0.2775 -0.1430
   95CHL1   H1A 9481   2.673   1.524   6.950 -0.4302 -0.3090 -0.9675
   95CHL1   H1B 9482   2.736   1.682   6.899  1.9814  0.1511  0.3222
   95CHL1    C2 9483   2.779   1.519   6.755 -0.0711  0.2060  1.1133
   95CHL1   H2A 9484   2.693   1.550   6.692 -0.3811  2.7822  2.7311
   95CHL1   H2B 9485   2.784   1.408   6.748  1.3413  0.4061 -2.2561
   95CHL1   C20 9486   2.818   1.722   7.681  0.2121 -0.7037 -0.6319
   95CHL1   H20 9487   2.905   1.660   7.709  0.2663 -1.3797 -2.2884
   95CHL1   C21 9488   2.689   1.640   7.676 -0.4562 -0.8234 -0.2575
   95CHL1  H21A 9489   2.706   1.533   7.651  1.2707 -0.8827  1.1368
   95CHL1  H21B 9490   2.600   1.677   7.621 -0.9645  1.7995  2.2304
   95CHL1  H21C 9491   2.662   1.634   7.784 -2.5434  1.5505 -0.5986
   95CHL1   C22 9492   2.795   1.837   7.785  0.2496  0.0293 -0.7102
   95CHL1  H22A 9493   2.871   1.916   7.765  1.0009 -0.2285  1.0529
   95CHL1  H22B 9494   2.694   1.883   7.773  1.8600  3.5254 -1.5747
   95CHL1   C23 9495   2.811   1.791   7.933 -0.3740 -0.6774  0.2555
   95CHL1  H23A 9496   2.771   1.691   7.960 -0.6233 -0.4295  0.8114
   95CHL1  H23B 9497   2.921   1.785   7.950 -0.0940  0.8785 -0.7830
   95CHL1   C24 9498   2.760   1.896   8.033 -0.0692  0.0487  0.3670
   95CHL1  H24A 9499   2.784   1.996   7.991 -1.2591  0.0655 -0.3128
   95CHL1  H24B 9500   2.651   1.887   8.051 -0.3857  2.3772 -0.2276
   95CHL1   C25 9501   2.823   1.881   8.176  0.1737 -0.3595 -0.8433
   95CHL1   H25 9502   2.823   1.773   8.203 -0.8054 -0.0036  0.6647
   95CHL1   C26 9503   2.966   1.939   8.183  0.2526 -0.5123  0.1627
   95CHL1  H26A 9504   2.987   1.961   8.290 -2.8686 -2.4687  1.2443
   95CHL1  H26B 9505   3.038   1.864   8.144  0.8458 -0.0979  0.4516
   95CHL1  H26C 9506   2.978   2.032   8.124 -1.8150 -1.5317 -1.9568
   95CHL1   C27 9507   2.726   1.956   8.278 -0.4327 -0.1537 -0.5864
   95CHL1  H27A 9508   2.710   2.060   8.243  1.6789  0.0494 -0.9874
   95CHL1  H27B 9509   2.629   1.901   8.264 -1.5835  1.6679  0.1148
   95CHL1  H27C 9510   2.758   1.953   8.384  0.0728 -0.5500 -0.7469
   96CHL1    C3 9511   3.563   1.282   6.530  0.5184  0.1160  0.3731
   96CHL1    H3 9512   3.668   1.251   6.549  1.2857  2.7986  0.6771
   96CHL1    O3 9513   3.531   1.255   6.399 -0.1259  0.1112  0.4573
   96CHL1   H3' 9514   3.436   1.267   6.390  0.0664  1.6463  0.2426
   96CHL1    C4 9515   3.466   1.207   6.627  0.4631  1.3991 -0.1682
   96CHL1   H4A 9516   3.361   1.209   6.589  0.4461  0.4147 -0.1705
   96CHL1   H4B 9517   3.501   1.102   6.624  2.8742  2.0548  2.9374
   96CHL1    C5 9518   3.463   1.247   6.771 -0.1613  0.3710  0.4257
   96CHL1    C6 9519   3.464   1.153   6.868 -0.0738 -0.5358 -0.0110
   96CHL1    H6 9520   3.459   1.046   6.847  3.2083 -1.0365  1.4368
   96CHL1    C7 9521   3.458   1.177   7.019 -0.0801 -0.1798  0.0085
   96CHL1   H7A 9522   3.366   1.133   7.061 -0.4056  0.2722 -0.2264
   96CHL1   H7B 9523   3.551   1.139   7.066 -0.6113 -3.2364 -1.2890
   96CHL1    C8 9524   3.443   1.330   7.044  0.9311 -0.4529 -0.2761
   96CHL1    H8 9525   3.337   1.348   7.018  0.1772  0.0402  2.9815
   96CHL1   C14 9526   3.481   1.359   7.185 -0.2988 -0.2408 -0.1817
   96CHL1   H14 9527   3.587   1.329   7.202  0.3814  1.3280 -1.4689
   96CHL1   C15 9528   3.412   1.284   7.300  0.1152 -0.1550  0.0422
   96CHL1  H15A 9529   3.304   1.287   7.276 -0.5682 -2.4744  2.5823
   96CHL1  H15B 9530   3.444   1.177   7.306  2.1213  0.4490  0.5765
   96CHL1   C16 9531   3.441   1.368   7.428 -0.5394 -0.0413 -0.0476
   96CHL1  H16A 9532   3.345   1.392   7.480 -1.2109 -0.8930 -0.8875
   96CHL1  H16B 9533   3.509   1.310   7.494  1.0128 -0.0194 -1.6009
   96CHL1   C17 9534   3.512   1.500   7.381 -0.4936  0.2375  0.0414
   96CHL1   H17 9535   3.622   1.485   7.388 -0.7967 -1.5813  1.0789
   96CHL1   C13 9536   3.475   1.509   7.231  0.3855  0.3417 -0.2065
   96CHL1   C18 9537   3.332   1.565   7.230  0.1857 -0.2712 -0.0503
   96CHL1  H18A 9538   3.335   1.674   7.247  2.6245 -0.1264 -1.2343
   96CHL1  H18B 9539   3.279   1.554   7.133 -1.1812 -1.0527  0.7567
   96CHL1  H18C 9540   3.267   1.529   7.313  3.6937 -1.6242  2.1914
   96CHL1   C12 9541   3.569   1.592   7.131  1.2240  0.2101 -0.1261
   96CHL1  H12A 9542   3.575   1.699   7.158 -1.3423 -0.0675  1.6910
   96CHL1  H12B 9543   3.670   1.548   7.150  0.5491 -0.8093  1.2232
   96CHL1   C11 9544   3.531   1.573   6.985 -1.0033 -0.1530  0.1889
   96CHL1  H11A 9545   3.431   1.616   6.966  0.4448  2.4179 -1.9961
   96CHL1  H11B 9546   3.601   1.642   6.932  0.8296 -2.4176 -0.4430
   96CHL1    C9 9547   3.528   1.420   6.946 -0.6705  0.4055 -0.0503
   96CHL1    H9 9548   3.636   1.397   6.949 -0.8100 -0.7036 -2.2904
   96CHL1   C10 9549   3.473   1.400   6.803 -0.1260 -0.8702  0.4397
   96CHL1   C19 9550   3.339   1.468   6.772 -0.6453  0.0482 -0.9259
   96CHL1  H19A 9551   3.264   1.423   6.840  0.4438  0.0471  0.2984
   96CHL1  H19B 9552   3.344   1.578   6.785  0.2786  0.2077 -2.5033
   96CHL1  H19C 9553   3.315   1.454   6.664 -0.5513  1.1971 -1.1048
   96CHL1    C1 9554   3.584   1.461   6.707  0.6276  0.5220 -0.0818
   96CHL1   H1A 9555   3.590   1.571   6.719 -0.3491  0.5699  0.0694
   96CHL1   H1B 9556   3.682   1.415   6.732 -0.4580 -0.2828  2.8977
   96CHL1    C2 9557   3.563   1.437   6.553 -0.4658  0.4373 -0.2994
   96CHL1   H2A 9558   3.638   1.489   6.491 -2.0023  0.4862 -2.1566
   96CHL1   H2B 9559   3.464   1.469   6.513 -1.3023  0.0579  1.4044
   96CHL1   C20 9560   3.486   1.618   7.477 -0.0564 -0.3069 -0.2754
   96CHL1   H20 9561   3.388   1.668   7.462  0.1350  0.1251 -0.0970
   96CHL1   C21 9562   3.606   1.721   7.475  0.1322  0.2694  0.4727
   96CHL1  H21A 9563   3.597   1.817   7.529  0.3056  0.6069 -0.0982
   96CHL1  H21B 9564   3.627   1.722   7.366  0.5800 -2.0372  0.5035
   96CHL1  H21C 9565   3.700   1.677   7.516  1.6086  2.1165 -0.8123
   96CHL1   C22 9566   3.489   1.573   7.628  0.0392 -0.4288  0.2108
   96CHL1  H22A 9567   3.415   1.491   7.639  0.6861 -1.0288  0.1029
   96CHL1  H22B 9568   3.591   1.533   7.647 -1.0422 -2.9058  0.9897
   96CHL1   C23 9569   3.448   1.686   7.726 -0.5805  0.4482  0.4546
   96CHL1  H23A 9570   3.499   1.662   7.821  2.4024  0.9892 -0.9279
   96CHL1  H23B 9571   3.495   1.784   7.700  1.8181 -0.6861  0.3001
   96CHL1   C24 9572   3.301   1.715   7.732 -0.6198  0.0109  0.2340
   96CHL1  H24A 9573   3.274   1.769   7.639  0.8994  1.2286  0.4849
   96CHL1  H24B 9574   3.241   1.622   7.727 -0.7209  0.0715  0.3120
   96CHL1   C25 9575   3.260   1.804   7.855 -0.4959  0.3441 -0.3777
   96CHL1   H25 9576   3.154   1.781   7.878 -0.6401  1.2871 -0.0971
   96CHL1   C26 9577   3.335   1.788   7.985  0.9056 -0.9388 -0.0043
   96CHL1  H26A 9578   3.295   1.863   8.057  0.6701 -2.6925  1.7392
   96CHL1  H26B 9579   3.316   1.686   8.026 -1.3441 -0.0243  1.3901
   96CHL1  H26C 9580   3.443   1.812   7.975  0.8180 -0.9400 -0.9545
   96CHL1   C27 9581   3.267   1.948   7.807  0.1552 -0.1983 -0.0485
   96CHL1  H27A 9582   3.206   1.958   7.715 -0.2028  0.4604  0.2581
   96CHL1  H27B 9583   3.231   2.017   7.887  1.1356 -1.4033  1.4639
   96CHL1  H27C 9584   3.374   1.976   7.796 -0.7364  3.0264 -1.0302
   97OSM      N 9585   6.352   2.599  11.309  0.0820  0.6084 -0.5913
   97OSM    C15 9586   6.378   2.715  11.394 -0.1253 -0.3990 -0.2678
   97OSM   H15A 9587   6.484   2.728  11.406 -0.2680  1.6807 -1.1023
   97OSM   H15B 9588   6.323   2.709  11.487  1.2716 -0.2734  0.5842
   97OSM   H15C 9589   6.342   2.802  11.343  1.7515 -0.2190 -1.3376
   97OSM    C14 9590   6.208   2.568  11.304 -0.2586 -0.0805 -0.6227
   97OSM   H14A 9591   6.192   2.489  11.232 -1.9255 -1.2177  0.9376
   97OSM   H14B 9592   6.144   2.649  11.272  1.5650  1.3214 -0.7397
   97OSM   H14C 9593   6.165   2.536  11.398 -0.3095  2.3564  0.2066
   97OSM    C13 9594   6.393   2.634  11.170  0.5667 -0.0162 -0.5049
   97OSM   H13A 9595   6.342   2.564  11.104  0.7482  0.3392 -1.0243
   97OSM   H13B 9596   6.500   2.629  11.159  0.3192 -2.7527 -2.1983
   97OSM   H13C 9597   6.361   2.730  11.133 -1.1317 -0.1423  0.5731
   97OSM    C12 9598   6.418   2.476  11.356 -0.0225  0.1742  0.0891
   97OSM   H12A 9599   6.384   2.394  11.294 -1.7079  3.0454 -2.8928
   97OSM   H12B 9600   6.390   2.464  11.460  2.0959 -1.9287  0.4688
   97OSM    C11 9601   6.580   2.476  11.354  0.7536  0.7536 -0.1088
   97OSM   H11A 9602   6.603   2.383  11.409 -0.5552  0.0379 -0.7392
   97OSM   H11B 9603   6.620   2.565  11.407  0.2685 -0.0327  1.5806
   97OSM      P 9604   6.794   2.469  11.214  0.2423  0.3282 -0.5695
   97OSM    O13 9605   6.846   2.591  11.155 -0.1563  0.1779 -0.1533
   97OSM    O14 9606   6.859   2.438  11.345  0.3762 -0.0036 -0.3588
   97OSM    O11 9607   6.812   2.348  11.115 -0.7511 -0.0014  0.0387
   97OSM    O12 9608   6.634   2.477  11.219 -0.2216  0.3855 -0.2572
   97OSM    C1S 9609   6.764   2.343  10.980 -0.0619  0.3859 -0.1526
   97OSM    H1S 9610   6.672   2.404  10.973  0.7360  1.9563  2.4060
   97OSM    H1T 9611   6.740   2.236  10.959  3.6448 -0.8222  1.3587
   97OSM     NF 9612   6.810   2.383  10.743 -0.3708 -0.6059  0.2201
   97OSM    HNF 9613   6.854   2.314  10.686  1.9540 -0.0231  1.2664
   97OSM    C2S 9614   6.865   2.396  10.881 -0.0195  0.2262  0.2196
   97OSM    H2S 9615   6.881   2.505  10.895  0.0006  0.1626  0.7038
   97OSM    C3S 9616   7.002   2.325  10.895  0.1760 -0.4341  0.3363
   97OSM    H3S 9617   6.974   2.218  10.902  2.0585 -1.0572 -1.4444
   97OSM     O3 9618   7.070   2.344  11.021  0.1258 -0.3994  0.3385
   97OSM    HO3 9619   6.995   2.365  11.079 -0.1957  1.1509 -0.6003
   97OSM    C4S 9620   7.097   2.357  10.785  0.3417  0.4757  0.1752
   97OSM    H4S 9621   7.103   2.274  10.713  0.4888 -0.5617  1.3763
   97OSM    C5S 9622   7.188   2.458  10.773  0.0027 -0.0273 -0.2044
   97OSM    H5S 9623   7.181   2.541  10.845 -3.0261 -1.6057  1.4652
   97OSM    C6S 9624   7.291   2.480  10.671 -0.2779 -0.7544  0.2789
   97OSM    H6S 9625   7.395   2.454  10.702  0.6906  2.8113  0.2135
   97OSM    H6T 9626   7.287   2.589  10.651 -0.6380 -0.5696  1.3273
   97OSM    C7S 9627   7.267   2.416  10.528  0.3397 -0.2036  0.4436
   97OSM    H7S 9628   7.273   2.306  10.537  1.0685 -0.2403 -0.3540
   97OSM    H7T 9629   7.353   2.439  10.461  0.6357  0.4490  1.0403
   97OSM    C8S 9630   7.137   2.473  10.465 -0.0821 -0.9066 -0.0681
   97OSM    H8S 9631   7.165   2.573  10.426 -1.2234 -0.4798  0.2102
   97OSM    H8T 9632   7.060   2.487  10.544  2.3650  2.7711  1.8277
   97OSM    C9S 9633   7.070   2.386  10.360 -0.4665 -0.1901  0.3016
   97OSM    H9S 9634   6.971   2.423  10.326  0.3629  2.4112  0.5921
   97OSM    H9T 9635   7.041   2.287  10.400 -2.4413 -0.3552 -1.4197
   97OSM   C10S 9636   7.164   2.370  10.241 -0.4019 -0.4065 -0.0698
   97OSM   H10S 9637   7.254   2.308  10.259  0.6349  0.4482 -2.0782
   97OSM   H10T 9638   7.200   2.472  10.215  0.7914 -0.4974  1.1855
   97OSM   C11S 9639   7.090   2.313  10.117 -0.5919 -0.8150 -0.8734
   97OSM   H11S 9640   6.989   2.360  10.118  1.2500  3.3824 -0.7912
   97OSM   H11T 9641   7.083   2.205  10.141 -0.6090 -0.6531 -0.1148
   97OSM   C12S 9642   7.139   2.339   9.984 -0.1926 -0.0751  0.0449
   97OSM   H12S 9643   7.249   2.322   9.982 -0.3732 -1.4165  0.7970
   97OSM   H12T 9644   7.124   2.447   9.961  1.2417 -0.0230 -0.6895
   97OSM   C13S 9645   7.073   2.257   9.883  0.1785  0.3129 -0.5272
   97OSM   H13S 9646   6.964   2.265   9.905  0.4397  2.5437  0.1777
   97OSM   H13T 9647   7.099   2.153   9.909 -1.2743 -0.2897 -1.3979
   97OSM   C14S 9648   7.098   2.298   9.740  0.0830  0.5955  0.5439
   97OSM   H14S 9649   7.073   2.406   9.733  1.4916  0.9719  1.3061
   97OSM   H14T 9650   7.023   2.244   9.678  0.5990  0.3821  0.1052
   97OSM   C15S 9651   7.239   2.266   9.698  0.3646  0.7911 -0.3167
   97OSM   H15S 9652   7.257   2.157   9.708 -0.5648  0.5226 -1.5224
   97OSM   H15T 9653   7.311   2.312   9.770 -0.9756  2.8727 -0.2704
   97OSM   C16S 9654   7.265   2.308   9.557 -0.2741  0.5552  0.5726
   97OSM   H16S 9655   7.242   2.417   9.548  0.5817  0.7703  0.9051
   97OSM   H16T 9656   7.217   2.244   9.481 -0.3348 -2.8336  3.3553
   97OSM   C17S 9657   7.417   2.275   9.537  0.2385  0.4499  0.9632
   97OSM   H17S 9658   7.432   2.165   9.541 -2.2021 -0.0016 -0.7191
   97OSM   H17T 9659   7.484   2.306   9.620  1.7644  1.4930 -0.6322
   97OSM   C18S 9660   7.472   2.335   9.406  0.5627  0.6143 -0.8376
   97OSM   H18S 9661   7.405   2.305   9.322 -0.3524 -0.8950  0.4095
   97OSM   H18T 9662   7.570   2.284   9.392  1.6645  1.9073  1.9616
   97OSM   H18U 9663   7.482   2.445   9.411  0.4049  0.5748  0.4613
   97OSM    C1F 9664   6.698   2.438  10.697  0.8142 -0.1738 -0.6323
   97OSM     OF 9665   6.653   2.546  10.734  0.4505  0.2392  0.6518
   97OSM    C2F 9666   6.645   2.371  10.577 -0.2976 -0.7434  0.9143
   97OSM    H2F 9667   6.585   2.290  10.622 -1.5012 -1.0637 -1.1899
   97OSM    H2G 9668   6.734   2.330  10.525  1.2348  1.2227  1.8753
   97OSM    C3F 9669   6.555   2.457  10.492  0.3774  0.2468  0.0004
   97OSM    H3F 9670   6.605   2.551  10.458  3.1835 -0.8706  0.9851
   97OSM    H3G 9671   6.468   2.496  10.549 -1.0260  0.4994 -2.2130
   97OSM    C4F 9672   6.505   2.386  10.368 -0.2981  0.1253 -0.0729
   97OSM    H4F 9673   6.429   2.451  10.320  0.0206  1.1743  0.8308
   97OSM    H4G 9674   6.456   2.288  10.389  2.4213 -1.4411 -0.7393
   97OSM    C5F 9675   6.608   2.372  10.257 -0.4798 -0.8302 -0.4494
   97OSM    H5F 9676   6.695   2.315  10.295 -0.9230 -0.0820  1.7524
   97OSM    H5G 9677   6.632   2.472  10.214 -2.4072  0.2765  0.9884
   97OSM    C6F 9678   6.561   2.286  10.139  0.0664  0.4191  0.2158
   97OSM    H6F 9679   6.470   2.336  10.099  2.3938  2.4188 -2.9332
   97OSM    H6G 9680   6.548   2.179  10.164  1.9576 -0.6265 -2.8887
   97OSM    C7F 9681   6.669   2.277  10.026  0.8602  0.3622 -0.1994
   97OSM    H7F 9682   6.636   2.195   9.959 -0.7943  1.0807 -0.2961
   97OSM    H7G 9683   6.765   2.243  10.070 -0.5687  0.0569  2.8130
   97OSM    C8F 9684   6.685   2.403   9.933 -0.2627 -0.2199  0.2303
   97OSM    H8F 9685   6.781   2.391   9.879 -0.3410 -1.4643  0.3559
   97OSM    H8G 9686   6.706   2.492   9.996 -1.2963 -1.1387  1.9268
   97OSM    C9F 9687   6.561   2.428   9.850 -0.1675  0.2804  1.3408
   97OSM    H9F 9688   6.493   2.497   9.901 -1.9043  1.3566 -2.2807
   97OSM   C10F 9689   6.530   2.389   9.731  0.2343  0.2428 -0.1521
   97OSM   H10F 9690   6.447   2.438   9.677 -0.3529 -1.3303 -0.7042
   97OSM   C11F 9691   6.623   2.306   9.642  0.4644 -0.5397  0.7225
   97OSM   H11F 9692   6.576   2.234   9.571 -0.3963 -0.4365  1.1811
   97OSM   H11G 9693   6.687   2.237   9.701 -1.6535 -2.9986  0.2606
   97OSM   C12F 9694   6.706   2.401   9.566 -0.0611 -0.1823 -1.3133
   97OSM   H12F 9695   6.761   2.468   9.635 -0.3346 -2.0711  0.7991
   97OSM   H12G 9696   6.634   2.464   9.509 -0.2524  0.7488 -0.0485
   97OSM   C13F 9697   6.805   2.335   9.466 -0.7640  0.2799 -0.4257
   97OSM   H13F 9698   6.745   2.270   9.399  1.8637  0.7811 -3.3750
   97OSM   H13G 9699   6.882   2.278   9.523  0.2343  1.4991 -0.5167
   97OSM   C14F 9700   6.887   2.439   9.384  0.3312 -0.1903  0.2280
   97OSM   H14F 9701   6.940   2.499   9.461  0.4434 -0.4700  0.3673
   97OSM   H14G 9702   6.804   2.499   9.340  0.3531 -0.4367 -0.1522
   97OSM   C15F 9703   6.988   2.378   9.284  0.8561 -0.2908  0.7738
   97OSM   H15F 9704   6.921   2.322   9.215 -1.0142  1.6929  0.9403
   97OSM   H15G 9705   7.056   2.304   9.331  1.7497 -0.7522 -1.1937
   97OSM   C16F 9706   7.059   2.483   9.202 -0.2293  0.1361  0.4579
   97OSM   H16F 9707   7.142   2.518   9.267 -0.3206  0.4758  0.3937
   97OSM   H16G 9708   6.997   2.575   9.194 -1.1702 -0.3517  2.0437
   97OSM   C17F 9709   7.120   2.450   9.059 -0.4206  0.3143 -0.4116
   97OSM   H17F 9710   7.043   2.415   8.987 -1.9338 -0.8707  1.7222
   97OSM   H17G 9711   7.198   2.371   9.058 -0.1227  0.6146 -1.1047
   97OSM   C18F 9712   7.199   2.574   9.003  0.3006 -0.4285 -0.0521
   97OSM   H18F 9713   7.147   2.670   9.022 -0.6033 -1.1437  1.1279
   97OSM   H18G 9714   7.230   2.556   8.898  1.7559  1.1425  0.0881
   97OSM   H18H 9715   7.290   2.582   9.066 -0.1047 -0.2646  0.5146
   98OSM      N 9716   0.044   2.032  11.325 -0.1308 -0.1973  0.3368
   98OSM    C15 9717   0.042   2.012  11.474 -0.1052 -0.2078 -0.3902
   98OSM   H15A 9718   0.024   2.102  11.532 -2.1132 -1.7922  1.5387
   98OSM   H15B 9719   0.129   1.957  11.507 -1.8818 -2.9913 -0.1984
   98OSM   H15C 9720  -0.042   1.950  11.504  1.9078 -3.1846 -0.6874
   98OSM    C14 9721  -0.092   2.087  11.288  1.1713  0.0741  0.7149
   98OSM   H14A 9722  -0.172   2.033  11.337  1.2305 -3.2071 -2.5631
   98OSM   H14B 9723  -0.105   2.078  11.182  0.8169 -1.6130  0.8757
   98OSM   H14C 9724  -0.094   2.194  11.300 -0.1847  0.1376 -0.0450
   98OSM    C13 9725   0.151   2.134  11.287  0.6967  0.3052  0.6304
   98OSM   H13A 9726   0.133   2.181  11.191  0.6177 -1.7861 -0.4028
   98OSM   H13B 9727   0.251   2.094  11.293  0.2798 -0.4341  3.4907
   98OSM   H13C 9728   0.148   2.217  11.356 -0.7458  0.0815  0.8489
   98OSM    C12 9729   0.067   1.900  11.252 -0.1612  0.5994 -0.8114
   98OSM   H12A 9730  -0.005   1.825  11.282  1.4081 -0.0598  1.4184
   98OSM   H12B 9731   0.168   1.868  11.272 -0.4240  0.7073  0.7832
   98OSM    C11 9732   0.064   1.908  11.098 -0.9874 -1.0857 -0.1645
   98OSM   H11A 9733   0.105   1.816  11.052 -3.0195 -2.0299 -0.1573
   98OSM   H11B 9734   0.120   1.994  11.058 -0.0124 -1.2377  0.8368
   98OSM      P 9735  -0.146   1.790  10.994  0.5370  0.3430  0.4137
   98OSM    O13 9736  -0.094   1.657  11.035  0.3522  1.1498  0.0792
   98OSM    O14 9737  -0.286   1.821  11.039 -0.9020 -0.1568 -0.2233
   98OSM    O11 9738  -0.137   1.801  10.833 -0.0728 -0.1301 -1.1314
   98OSM    O12 9739  -0.062   1.911  11.047  0.3888  0.8539 -0.4943
   98OSM    C1S 9740  -0.227   1.717  10.756 -0.2796  0.4572  0.2204
   98OSM    H1S 9741  -0.333   1.747  10.766 -0.8237 -1.5698  0.8485
   98OSM    H1T 9742  -0.230   1.614  10.800  0.7625  1.2071  2.0919
   98OSM     NF 9743  -0.296   1.720  10.524  0.4851 -0.9986 -0.9735
   98OSM    HNF 9744  -0.324   1.635  10.480  1.5909 -0.2937 -3.1410
   98OSM    C2S 9745  -0.179   1.695  10.609  0.7293 -0.2213  0.3482
   98OSM    H2S 9746  -0.105   1.774  10.586  1.2993 -0.2945  1.9124
   98OSM    C3S 9747  -0.107   1.559  10.598  0.2915  0.6130  0.3426
   98OSM    H3S 9748  -0.178   1.479  10.627 -0.1692  0.2914 -1.5781
   98OSM     O3 9749  -0.002   1.539  10.693 -0.1489 -0.2163 -0.7923
   98OSM    HO3 9750  -0.012   1.617  10.747  1.8426 -0.3211 -0.2253
   98OSM    C4S 9751  -0.069   1.535  10.454 -0.1160 -0.1740 -0.3364
   98OSM    H4S 9752  -0.139   1.472  10.397 -0.6626  0.9924 -0.9730
   98OSM    C5S 9753   0.047   1.558  10.390 -0.4031  0.9044  0.1940
   98OSM    H5S 9754   0.133   1.598  10.445 -0.0127  0.3458 -0.0014
   98OSM    C6S 9755   0.074   1.516  10.246  0.2885  0.8293 -0.3470
   98OSM    H6S 9756   0.155   1.440  10.243  0.0144  0.4961  0.4970
   98OSM    H6T 9757   0.106   1.606  10.189  0.6334  1.8755  1.4616
   98OSM    C7S 9758  -0.042   1.456  10.164 -0.4220 -0.0691 -0.7477
   98OSM    H7S 9759  -0.121   1.535  10.164 -0.6626 -0.2905  1.0783
   98OSM    H7T 9760  -0.088   1.362  10.201  0.6194 -1.1438 -2.1399
   98OSM    C8S 9761  -0.001   1.415  10.022  0.2777 -0.9638 -1.3136
   98OSM    H8S 9762   0.082   1.341  10.024  1.2232  0.0701 -1.9960
   98OSM    H8T 9763   0.053   1.496   9.970  0.3721 -0.2353 -0.1202
   98OSM    C9S 9764  -0.123   1.380   9.929 -0.3741  0.1506  0.6311
   98OSM    H9S 9765  -0.207   1.453   9.928 -1.7988 -1.4696  0.7013
   98OSM    H9T 9766  -0.151   1.278   9.963  0.1323 -0.3298 -0.3817
   98OSM   C10S 9767  -0.071   1.355   9.784 -0.1842 -0.3746 -0.3414
   98OSM   H10S 9768   0.028   1.304   9.794 -0.7056 -1.5909 -1.2829
   98OSM   H10T 9769  -0.056   1.453   9.734  0.5777 -0.1725  0.2804
   98OSM   C11S 9770  -0.159   1.265   9.698 -0.1313  0.3488  0.4635
   98OSM   H11S 9771  -0.258   1.314   9.686  0.0735  0.7507  0.4028
   98OSM   H11T 9772  -0.180   1.164   9.738 -0.8503  0.6568  0.8725
   98OSM   C12S 9773  -0.095   1.237   9.561  0.2091 -0.1493 -0.4674
   98OSM   H12S 9774   0.006   1.190   9.557  1.1777  1.8114  0.0075
   98OSM   H12T 9775  -0.078   1.339   9.520  0.6064 -0.5024 -1.1983
   98OSM   C13S 9776  -0.203   1.171   9.467  0.8456 -0.1896 -0.6554
   98OSM   H13S 9777  -0.294   1.236   9.470 -0.3386 -1.8217 -0.4646
   98OSM   H13T 9778  -0.232   1.070   9.502 -1.7391  0.6992 -0.0882
   98OSM   C14S 9779  -0.153   1.152   9.324  0.5526  0.0654  0.8669
   98OSM   H14S 9780  -0.060   1.092   9.337  0.0797 -0.5989  1.2292
   98OSM   H14T 9781  -0.124   1.236   9.259 -0.3712 -0.3871 -0.1495
   98OSM   C15S 9782  -0.259   1.082   9.229 -0.9107 -0.2989 -0.8614
   98OSM   H15S 9783  -0.360   1.127   9.232 -0.3845  0.7985  0.9488
   98OSM   H15T 9784  -0.284   0.985   9.277 -0.9052 -0.2881 -0.8369
   98OSM   C16S 9785  -0.203   1.045   9.086 -0.3018 -0.5695  0.3039
   98OSM   H16S 9786  -0.270   0.968   9.044  0.9101 -0.8768 -1.0834
   98OSM   H16T 9787  -0.099   1.007   9.097  0.0611  0.4787  0.5630
   98OSM   C17S 9788  -0.202   1.167   8.991  0.2349 -0.2606 -0.1384
   98OSM   H17S 9789  -0.140   1.246   9.038 -1.3700  0.2700  1.1101
   98OSM   H17T 9790  -0.303   1.213   8.986  0.7882  1.0327  0.4728
   98OSM   C18S 9791  -0.158   1.139   8.846 -0.3950 -0.9000 -0.5031
   98OSM   H18S 9792  -0.222   1.075   8.782 -0.8091 -1.4800  0.4907
   98OSM   H18T 9793  -0.062   1.083   8.852  1.0607  1.6385  0.8872
   98OSM   H18U 9794  -0.131   1.230   8.788  0.4135  0.1198  1.4408
   98OSM    C1F 9795  -0.375   1.825  10.518  0.0252 -0.3356  0.2366
   98OSM     OF 9796  -0.361   1.936  10.573 -0.4500  0.6507  0.0906
   98OSM    C2F 9797  -0.508   1.803  10.439 -0.5052 -0.0092 -0.5944
   98OSM    H2F 9798  -0.583   1.807  10.521  1.3448  2.5256  1.0601
   98OSM    H2G 9799  -0.498   1.699  10.399 -1.7114 -0.0949 -0.6930
   98OSM    C3F 9800  -0.541   1.918  10.344  0.3355  0.3706 -0.4539
   98OSM    H3F 9801  -0.526   2.006  10.409  1.2180  1.1954 -1.7554
   98OSM    H3G 9802  -0.649   1.897  10.328  0.6310 -0.6130 -1.2934
   98OSM    C4F 9803  -0.447   1.937  10.225  0.3651  0.6996  0.0507
   98OSM    H4F 9804  -0.347   1.971  10.260  0.4583  0.5606 -0.0807
   98OSM    H4G 9805  -0.497   2.014  10.163 -0.5066  1.5735  1.8115
   98OSM    C5F 9806  -0.445   1.816  10.138 -0.4466  0.4248  0.6192
   98OSM    H5F 9807  -0.544   1.771  10.119  1.2107 -3.1909  0.1107
   98OSM    H5G 9808  -0.380   1.742  10.189 -1.8283 -0.9603  0.3898
   98OSM    C6F 9809  -0.385   1.826   9.993  0.8810 -0.3830 -0.8889
   98OSM    H6F 9810  -0.390   1.725   9.947  0.8519 -0.3502 -0.9579
   98OSM    H6G 9811  -0.277   1.853  10.003  0.9264 -0.6650 -0.5902
   98OSM    C7F 9812  -0.456   1.926   9.900 -0.4192 -0.0238 -0.3964
   98OSM    H7F 9813  -0.414   2.022   9.934  2.3103 -1.4719  0.4430
   98OSM    H7G 9814  -0.567   1.921   9.902 -0.7051  3.6688 -2.6974
   98OSM    C8F 9815  -0.403   1.900   9.757 -0.2672  0.1690 -0.1583
   98OSM    H8F 9816  -0.440   1.798   9.733 -4.1163  0.8169  2.4345
   98OSM    H8G 9817  -0.293   1.891   9.764 -0.4228 -3.7713 -1.6142
   98OSM    C9F 9818  -0.449   2.004   9.653  0.5462  0.0247 -0.3607
   98OSM    H9F 9819  -0.483   2.104   9.685  0.3900  0.6117 -2.2950
   98OSM   C10F 9820  -0.440   1.972   9.523  0.2903  0.5927 -0.1972
   98OSM   H10F 9821  -0.485   2.048   9.458 -1.5056 -0.9956 -0.8509
   98OSM   C11F 9822  -0.379   1.850   9.461  0.0154  0.3080 -0.5682
   98OSM   H11F 9823  -0.458   1.772   9.458 -0.4616  0.8088 -1.3103
   98OSM   H11G 9824  -0.295   1.806   9.519 -0.8492 -0.6322 -0.0063
   98OSM   C12F 9825  -0.337   1.873   9.316  0.5392 -0.3828  0.6753
   98OSM   H12F 9826  -0.247   1.938   9.309  1.3865 -1.4345  1.4965
   98OSM   H12G 9827  -0.424   1.915   9.262  1.7435  2.1053  0.5957
   98OSM   C13F 9828  -0.299   1.742   9.258  0.5743  0.0185 -0.3348
   98OSM   H13F 9829  -0.274   1.762   9.152  0.4580 -0.1790 -0.4006
   98OSM   H13G 9830  -0.381   1.667   9.264  1.7729 -1.1683  2.4268
   98OSM   C14F 9831  -0.180   1.665   9.322 -0.1419 -0.4146  0.4362
   98OSM   H14F 9832  -0.229   1.594   9.392  0.2845  2.4679  3.8019
   98OSM   H14G 9833  -0.117   1.740   9.373 -0.8945 -1.4103  2.9081
   98OSM   C15F 9834  -0.086   1.589   9.221  0.0417 -0.1889  0.3946
   98OSM   H15F 9835  -0.153   1.525   9.160 -0.7531  0.1160  0.9451
   98OSM   H15G 9836  -0.028   1.516   9.282 -1.2371  0.1354  2.0363
   98OSM   C16F 9837   0.005   1.676   9.139 -0.0320 -0.1392 -0.0433
   98OSM   H16F 9838   0.036   1.749   9.217 -0.1267 -0.7817  0.5981
   98OSM   H16G 9839  -0.046   1.722   9.051  0.2317 -1.6256 -0.9759
   98OSM   C17F 9840   0.127   1.607   9.073  0.5948 -0.0138  0.0171
   98OSM   H17F 9841   0.170   1.541   9.152 -0.3432 -0.6425  0.0045
   98OSM   H17G 9842   0.206   1.676   9.035 -0.0721  0.9529  0.3587
   98OSM   C18F 9843   0.092   1.520   8.952  0.1051  0.5957  0.1297
   98OSM   H18F 9844   0.029   1.568   8.875 -0.6849 -0.9410 -0.2064
   98OSM   H18G 9845   0.046   1.425   8.987 -1.5112  0.9849 -0.9183
   98OSM   H18H 9846   0.181   1.485   8.895 -0.0468 -0.1785  0.3586
   99OSM      N 9847   1.571   2.975  10.862  0.1022  0.7146 -0.0644
   99OSM    C15 9848   1.564   2.891  10.980  0.5029  0.0367  0.3261
   99OSM   H15A 9849   1.474   2.910  11.037  0.4928 -0.5256  0.4986
   99OSM   H15B 9850   1.641   2.915  11.052 -0.0291 -3.0923  2.0127
   99OSM   H15C 9851   1.571   2.785  10.960 -0.5984 -0.0679  0.4643
   99OSM    C14 9852   1.488   2.923  10.752  0.4945  0.6324 -1.1861
   99OSM   H14A 9853   1.385   2.910  10.782  0.2262  2.2145 -1.3597
   99OSM   H14B 9854   1.517   2.826  10.714 -1.0442 -0.2458 -0.1608
   99OSM   H14C 9855   1.495   2.993  10.670  0.3958  1.3553 -0.5887
   99OSM    C13 9856   1.521   3.112  10.894  0.2201  0.5228  0.3708
   99OSM   H13A 9857   1.600   3.165  10.946 -0.0474  0.3408  0.9656
   99OSM   H13B 9858   1.433   3.105  10.955  0.8135  0.4175  1.2274
   99OSM   H13C 9859   1.504   3.166  10.802  0.3726  1.5531  0.9324
   99OSM    C12 9860   1.713   2.998  10.813  0.3003  0.4688 -0.3289
   99OSM   H12A 9861   1.709   3.080  10.743  0.8194 -0.9949 -2.1192
   99OSM   H12B 9862   1.754   2.913  10.761  0.1418 -1.1864  2.2100
   99OSM    C11 9863   1.830   3.024  10.913  0.5674  0.4038  0.4245
   99OSM   H11A 9864   1.929   3.012  10.864  0.2467  1.2055 -0.4291
   99OSM   H11B 9865   1.828   2.940  10.986 -1.1567 -0.1253 -0.2119
   99OSM      P 9866   1.825   3.292  10.923  0.5175 -0.4447  0.0274
   99OSM    O13 9867   1.697   3.366  10.946 -0.4210 -0.5456 -1.0751
   99OSM    O14 9868   1.952   3.353  10.969  0.1795 -0.1854  0.2962
   99OSM    O11 9869   1.835   3.262  10.768 -0.0688  0.1388  0.4484
   99OSM    O12 9870   1.820   3.143  10.993 -0.0412  0.2082  0.6496
   99OSM    C1S 9871   1.962   3.239  10.701  0.5084  0.2521  0.0210
   99OSM    H1S 9872   2.020   3.157  10.747  0.8846  0.3515 -0.2728
   99OSM    H1T 9873   2.015   3.336  10.691  1.7079 -0.3960  0.1105
   99OSM     NF 9874   2.033   3.121  10.483 -0.5691  0.3215  0.3144
   99OSM    HNF 9875   2.078   3.167  10.407 -0.3272 -1.9298 -0.9467
   99OSM    C2S 9876   1.917   3.191  10.551 -0.7772 -0.3114  0.1962
   99OSM    H2S 9877   1.825   3.130  10.566  0.0260 -1.8148 -0.9157
   99OSM    C3S 9878   1.869   3.318  10.481  0.7805 -0.3625 -0.1957
   99OSM    H3S 9879   1.948   3.392  10.504 -0.0433  0.9158 -1.4417
   99OSM     O3 9880   1.749   3.375  10.534  0.1263  0.5690 -0.2778
   99OSM    HO3 9881   1.736   3.325  10.615 -2.0919 -2.0372 -2.1805
   99OSM    C4S 9882   1.847   3.307  10.332  0.2390  0.7728  0.0985
   99OSM    H4S 9883   1.914   3.363  10.265 -1.2054  3.0647  0.4906
   99OSM    C5S 9884   1.749   3.250  10.259  0.2509  0.2152 -0.5724
   99OSM    H5S 9885   1.667   3.193  10.305  0.6596 -0.6591 -0.9076
   99OSM    C6S 9886   1.746   3.263  10.109 -0.0132  0.9062 -0.5723
   99OSM    H6S 9887   1.638   3.280  10.091 -0.4607  0.3911  1.4341
   99OSM    H6T 9888   1.760   3.158  10.078  0.9253  0.4731  1.2612
   99OSM    C7S 9889   1.842   3.354  10.034 -0.6203 -0.2485 -0.8715
   99OSM    H7S 9890   1.947   3.329  10.060 -0.7183  0.4027  0.1826
   99OSM    H7T 9891   1.833   3.456  10.078  0.9578 -0.7226  0.6017
   99OSM    C8S 9892   1.820   3.356   9.886  0.5074  0.2788 -0.0646
   99OSM    H8S 9893   1.902   3.422   9.850  0.3480  1.0284  0.9293
   99OSM    H8T 9894   1.727   3.405   9.851 -0.4863 -0.4699  1.4976
   99OSM    C9S 9895   1.837   3.219   9.815 -0.5625 -0.4422 -0.3955
   99OSM    H9S 9896   1.755   3.144   9.813 -0.9068 -0.0487 -1.7433
   99OSM    H9T 9897   1.917   3.174   9.877 -0.8233  4.1446  3.5521
   99OSM   C10S 9898   1.898   3.232   9.667 -0.3898  0.3573 -0.2366
   99OSM   H10S 9899   2.003   3.268   9.679 -0.7078  0.6331  1.8817
   99OSM   H10T 9900   1.834   3.309   9.619 -0.2078  0.9106  0.4066
   99OSM   C11S 9901   1.873   3.109   9.575 -0.4554  0.2485  0.4280
   99OSM   H11S 9902   1.766   3.080   9.575  0.2829 -2.8869 -3.6094
   99OSM   H11T 9903   1.934   3.024   9.611 -0.6036 -1.0008 -2.1603
   99OSM   C12S 9904   1.913   3.136   9.428 -0.6249  0.1230 -0.5910
   99OSM   H12S 9905   1.849   3.205   9.369 -2.4274 -2.0923 -1.2733
   99OSM   H12T 9906   2.020   3.164   9.413 -0.1138 -1.3212  0.2396
   99OSM   C13S 9907   1.902   3.006   9.343  0.3725 -0.5579  0.3818
   99OSM   H13S 9908   1.799   2.968   9.353  0.8873 -2.2376 -0.5175
   99OSM   H13T 9909   1.960   2.922   9.386 -1.3646 -1.7785  0.3572
   99OSM   C14S 9910   1.931   3.034   9.195 -0.3676 -0.1975  0.1506
   99OSM   H14S 9911   2.019   3.101   9.204 -0.4831  0.1045 -0.8996
   99OSM   H14T 9912   1.841   3.086   9.155 -0.2610  0.3508  0.6230
   99OSM   C15S 9913   1.971   2.914   9.109  0.0597 -0.2507 -0.4383
   99OSM   H15S 9914   1.891   2.839   9.126  0.6562 -0.2253  2.7904
   99OSM   H15T 9915   2.071   2.888   9.150 -0.0821  0.2351  0.2293
   99OSM   C16S 9916   1.987   2.939   8.950  0.1674 -0.1350 -0.1540
   99OSM   H16S 9917   1.885   2.967   8.917  0.6448  0.6559 -0.9696
   99OSM   H16T 9918   2.001   2.837   8.906 -2.0299 -1.7504  2.7083
   99OSM   C17S 9919   2.093   3.039   8.910  0.2909 -0.5723  0.5734
   99OSM   H17S 9920   2.182   2.974   8.925 -0.4045 -1.5348  0.5682
   99OSM   H17T 9921   2.097   3.131   8.972  0.3172 -0.3386  0.2277
   99OSM   C18S 9922   2.082   3.085   8.761 -0.3243  0.3064 -0.3106
   99OSM   H18S 9923   2.121   3.009   8.690 -1.1344  1.5947 -2.1684
   99OSM   H18T 9924   2.150   3.171   8.744  0.6854 -0.7805 -1.8869
   99OSM   H18U 9925   1.980   3.126   8.743 -0.2204  0.6053 -0.2118
   99OSM    C1F 9926   2.083   3.001  10.527 -0.6173 -0.4611 -0.1670
   99OSM     OF 9927   2.013   2.935  10.601 -0.1633  0.7457 -0.0395
   99OSM    C2F 9928   2.224   2.962  10.493  0.3379  0.6913 -0.0937
   99OSM    H2F 9929   2.284   2.918  10.575  0.9952 -1.3819 -1.6393
   99OSM    H2G 9930   2.281   3.048  10.453  0.3243  1.7408  2.0840
   99OSM    C3F 9931   2.212   2.864  10.377  0.0903 -0.2075  0.6168
   99OSM    H3F 9932   2.315   2.825  10.362 -0.3425 -1.0154 -0.2552
   99OSM    H3G 9933   2.153   2.774  10.405 -3.3684  1.4071 -1.1138
   99OSM    C4F 9934   2.142   2.904  10.245  0.2670  0.8845 -0.6047
   99OSM    H4F 9935   2.034   2.904  10.270  0.7509  2.6793  1.6844
   99OSM    H4G 9936   2.171   2.829  10.168 -0.1655  1.7816 -1.6539
   99OSM    C5F 9937   2.201   3.036  10.193  0.5688  0.4483  0.0283
   99OSM    H5F 9938   2.311   3.031  10.197  0.5663 -1.9909 -1.7437
   99OSM    H5G 9939   2.167   3.115  10.263 -0.0361 -1.0409  1.4734
   99OSM    C6F 9940   2.151   3.070  10.050 -0.1292 -0.4179 -0.5528
   99OSM    H6F 9941   2.194   3.170  10.030 -0.0704 -0.9806 -3.4013
   99OSM    H6G 9942   2.042   3.080  10.033 -0.3595 -1.1698  0.4057
   99OSM    C7F 9943   2.208   2.976   9.947  0.0747 -0.8297  0.4304
   99OSM    H7F 9944   2.129   2.899   9.948 -0.0160 -0.7400  0.2709
   99OSM    H7G 9945   2.308   2.940   9.978  0.6850  0.0276 -0.4867
   99OSM    C8F 9946   2.223   3.051   9.809 -0.9620  0.9835  0.2935
   99OSM    H8F 9947   2.129   3.105   9.783  0.5589  2.2209 -2.9266
   99OSM    H8G 9948   2.230   2.983   9.722 -0.7930  1.2260  0.1182
   99OSM    C9F 9949   2.336   3.148   9.806  0.2817  0.1804  0.1946
   99OSM    H9F 9950   2.360   3.205   9.897 -1.0025 -0.3234  0.8650
   99OSM   C10F 9951   2.427   3.165   9.710 -0.3971  0.2500  0.1659
   99OSM   H10F 9952   2.508   3.238   9.724 -1.0927  0.7840  1.4430
   99OSM   C11F 9953   2.435   3.091   9.576  0.1738 -0.4501 -0.2276
   99OSM   H11F 9954   2.376   2.997   9.569 -0.7157  0.0993 -0.2537
   99OSM   H11G 9955   2.541   3.061   9.561 -0.8167 -3.3249 -2.0357
   99OSM   C12F 9956   2.396   3.173   9.451 -0.2051 -0.0058 -0.6391
   99OSM   H12F 9957   2.439   3.274   9.465 -0.4807 -0.3431  3.0804
   99OSM   H12G 9958   2.286   3.192   9.452 -0.3680 -0.9294 -0.7554
   99OSM   C13F 9959   2.443   3.110   9.319 -0.2041 -0.0421  0.6708
   99OSM   H13F 9960   2.398   3.014   9.288  2.1342  0.0466 -3.2154
   99OSM   H13G 9961   2.553   3.100   9.316 -0.2789 -0.4777 -0.9053
   99OSM   C14F 9962   2.411   3.212   9.202 -0.5028  0.3310 -0.6709
   99OSM   H14F 9963   2.435   3.317   9.229  1.5832  0.3798 -2.5271
   99OSM   H14G 9964   2.303   3.214   9.178 -1.5176  0.6416  3.5935
   99OSM   C15F 9965   2.502   3.177   9.082  0.1486  0.6219  0.0630
   99OSM   H15F 9966   2.487   3.071   9.053 -0.7380  0.4359  1.1715
   99OSM   H15G 9967   2.608   3.191   9.112 -0.0241  2.7269 -0.2535
   99OSM   C16F 9968   2.457   3.258   8.967 -0.4536  0.3393  0.2355
   99OSM   H16F 9969   2.495   3.362   8.973 -0.9261  0.6601 -1.9258
   99OSM   H16G 9970   2.347   3.271   8.973 -0.4805  0.8292 -1.2185
   99OSM   C17F 9971   2.491   3.195   8.831 -0.5326 -0.1769 -0.3545
   99OSM   H17F 9972   2.435   3.099   8.831  1.2554 -1.2346  0.9963
   99OSM   H17G 9973   2.597   3.167   8.811 -1.2808 -1.1148 -3.3487
   99OSM   C18F 9974   2.451   3.284   8.714  0.0737  0.2268 -0.5331
   99OSM   H18F 9975   2.340   3.297   8.714 -0.0997 -1.1432 -1.9933
   99OSM   H18G 9976   2.480   3.241   8.616  0.0074  0.8582 -0.8335
   99OSM   H18H 9977   2.497   3.384   8.732 -0.9023  0.2397  2.1551
  100OSM      N 9978   3.941   3.218  10.935  0.9243  0.2294  0.1432
  100OSM    C15 9979   3.945   3.175  10.796 -0.2463 -0.1458  0.2656
  100OSM   H15A 9980   4.013   3.092  10.795 -0.9024 -0.6970  0.9149
  100OSM   H15B 9981   3.977   3.248  10.723 -1.7077  1.7289  1.4551
  100OSM   H15C 9982   3.849   3.131  10.772  0.0640 -0.9816  0.5389
  100OSM    C14 9983   3.860   3.347  10.963 -0.0699  0.0762  0.1497
  100OSM   H14A 9984   3.755   3.336  10.939 -0.4156  2.0061  0.6648
  100OSM   H14B 9985   3.894   3.429  10.901  1.3292 -0.1932  0.5440
  100OSM   H14C 9986   3.865   3.379  11.066  0.6465  0.9807 -0.1633
  100OSM    C13 9987   3.869   3.107  10.999  0.4208  0.1627  0.2864
  100OSM   H13A 9988   3.924   3.015  10.995  1.2745  0.6762  0.0971
  100OSM   H13B 9989   3.781   3.085  10.940  0.0155  2.7438 -0.1504
  100OSM   H13C 9990   3.845   3.122  11.104  2.0022 -0.5364  0.7620
  100OSM    C12 9991   4.084   3.238  10.995 -0.1013 -0.5994  0.6045
  100OSM   H12A 9992   4.124   3.138  10.989 -2.0377 -1.3331 -0.7861
  100OSM   H12B 9993   4.068   3.266  11.098 -1.8717  2.5368 -0.4503
  100OSM    C11 9994   4.176   3.346  10.923  1.1196  0.4527  0.5098
  100OSM   H11A 9995   4.190   3.301  10.822 -2.6338 -0.5670  0.3726
  100OSM   H11B 9996   4.273   3.339  10.976  0.5229 -0.3570  1.5035
  100OSM      P 9997   4.138   3.578  10.815  0.2349 -0.1668 -0.4501
  100OSM    O13 9998   4.032   3.534  10.717 -0.0988  0.3588  0.5864
  100OSM    O14 9999   4.150   3.719  10.845 -0.0288 -0.0605  0.2062
  100OSM    O1110000   4.271   3.535  10.742 -0.1541 -0.6069  0.3070
  100OSM    O1210001   4.132   3.482  10.944  0.3671  0.4824  0.0719
  100OSM    C1S10002   4.284   3.469  10.614  0.4568  0.1976  0.4154
  100OSM    H1S10003   4.191   3.415  10.587 -0.6844  1.2096  2.2448
  100OSM    H1T10004   4.358   3.386  10.625  0.5620  0.1035 -0.9213
  100OSM     NF10005   4.361   3.476  10.381  0.0493 -0.2113 -0.1268
  100OSM    HNF10006   4.460   3.468  10.365 -0.0544  0.1187 -0.9615
  100OSM    C2S10007   4.337   3.562  10.499  0.2767  0.3472 -0.6382
  100OSM    H2S10008   4.250   3.627  10.476  0.8371  1.2325 -0.2787
  100OSM    C3S10009   4.462   3.643  10.544 -0.5237 -0.4639  0.4864
  100OSM    H3S10010   4.540   3.584  10.595  2.4165  0.5183 -2.6550
  100OSM     O310011   4.430   3.746  10.642  0.0890  0.4638 -0.3626
  100OSM    HO310012   4.358   3.708  10.694 -1.3505  1.3175 -1.6859
  100OSM    C4S10013   4.520   3.709  10.426  0.1585  0.1789 -0.1301
  100OSM    H4S10014   4.455   3.794  10.402  0.4115  1.1388  2.4170
  100OSM    C5S10015   4.642   3.695  10.364 -0.2803 -0.6378  0.4515
  100OSM    H5S10016   4.712   3.618  10.401  1.0552  1.1545  1.7270
  100OSM    C6S10017   4.696   3.774  10.246 -0.4798  0.1569 -0.3949
  100OSM    H6S10018   4.799   3.815  10.253 -0.6926  0.4441  1.3492
  100OSM    H6T10019   4.633   3.866  10.246 -2.9165 -1.4713  0.2515
  100OSM    C7S10020   4.668   3.703  10.112  0.1472  0.7793 -0.0997
  100OSM    H7S10021   4.573   3.647  10.127  0.7224 -0.6804 -1.8697
  100OSM    H7T10022   4.746   3.625  10.117  2.0866  2.6437 -0.4953
  100OSM    C8S10023   4.648   3.783   9.987 -0.5486  0.7408  0.1069
  100OSM    H8S10024   4.721   3.866   9.983 -1.1210  1.2646  0.3750
  100OSM    H8T10025   4.548   3.831   9.998  0.0706  2.0262  0.2180
  100OSM    C9S10026   4.669   3.698   9.856  0.3356  0.2561 -0.0892
  100OSM    H9S10027   4.778   3.675   9.857  0.6628  1.4710 -2.7128
  100OSM    H9T10028   4.675   3.760   9.763  0.5563 -0.4742 -0.5650
  100OSM   C10S10029   4.578   3.582   9.826  0.6103  0.0139 -0.1308
  100OSM   H10S10030   4.476   3.622   9.843  0.6453  0.1425 -0.2239
  100OSM   H10T10031   4.599   3.510   9.909 -0.8521  0.8819  1.0145
  100OSM   C11S10032   4.590   3.526   9.687 -0.3680 -0.2113  0.8458
  100OSM   H11S10033   4.520   3.439   9.684  0.4763 -0.8675 -0.4294
  100OSM   H11T10034   4.690   3.478   9.678 -0.3806 -0.0940  0.0453
  100OSM   C12S10035   4.555   3.618   9.569  0.3037 -0.3237 -0.1237
  100OSM   H12S10036   4.635   3.691   9.541 -1.1208  1.6411  0.8568
  100OSM   H12T10037   4.474   3.692   9.588  0.1886 -0.2302 -0.9643
  100OSM   C13S10038   4.515   3.532   9.448  0.5824 -0.4207  0.0915
  100OSM   H13S10039   4.464   3.589   9.368 -2.3825 -0.5754  1.8006
  100OSM   H13T10040   4.449   3.450   9.483  1.6301 -1.1187  0.4651
  100OSM   C14S10041   4.639   3.463   9.384 -0.1533  0.2352  0.0134
  100OSM   H14S10042   4.674   3.374   9.441  0.1417  1.9010  2.5272
  100OSM   H14T10043   4.725   3.532   9.379 -1.1056  1.4956  0.5769
  100OSM   C15S10044   4.610   3.405   9.247 -0.4624 -0.0853  0.0415
  100OSM   H15S10045   4.592   3.483   9.170 -1.4345  1.1774  1.5143
  100OSM   H15T10046   4.516   3.347   9.240 -1.3766  1.4490 -0.7458
  100OSM   C16S10047   4.716   3.300   9.205 -0.2884 -0.2817 -0.0395
  100OSM   H16S10048   4.717   3.214   9.276  1.8526  0.1484  0.4844
  100OSM   H16T10049   4.821   3.337   9.207 -0.1204 -0.7761  2.0664
  100OSM   C17S10050   4.701   3.237   9.065  0.2862  0.3046 -0.1110
  100OSM   H17S10051   4.712   3.324   8.998  0.3602 -0.5765 -1.2483
  100OSM   H17T10052   4.596   3.205   9.049 -0.3954  2.0097  0.8940
  100OSM   C18S10053   4.796   3.127   9.029 -0.0610 -0.6832  0.3353
  100OSM   H18S10054   4.894   3.169   8.999 -1.0484 -0.3705 -2.6895
  100OSM   H18T10055   4.765   3.058   8.946  0.9659  2.3442 -2.6712
  100OSM   H18U10056   4.811   3.059   9.115  0.1295 -1.8964 -0.6405
  100OSM    C1F10057   4.270   3.429  10.299  0.2975  0.4089  0.0183
  100OSM     OF10058   4.151   3.451  10.314  0.2396 -0.0780  0.0235
  100OSM    C2F10059   4.330   3.371  10.172 -0.0955 -0.5412  0.5206
  100OSM    H2F10060   4.392   3.280  10.189  0.2846 -0.2036  0.9395
  100OSM    H2G10061   4.412   3.437  10.139 -0.9305 -0.0246 -0.5588
  100OSM    C3F10062   4.227   3.342  10.069  0.4779  0.7543 -0.2893
  100OSM    H3F10063   4.154   3.425  10.060  0.8450  1.2140  0.9179
  100OSM    H3G10064   4.158   3.260  10.097  1.4391 -0.9248 -2.6744
  100OSM    C4F10065   4.303   3.277   9.943 -0.1341  0.2191  0.4551
  100OSM    H4F10066   4.334   3.173   9.965 -0.2080 -0.2373 -1.5773
  100OSM    H4G10067   4.386   3.340   9.905  0.5099 -0.7759  0.1934
  100OSM    C5F10068   4.205   3.265   9.831  0.3028 -0.1832 -0.1371
  100OSM    H5F10069   4.127   3.188   9.846 -0.4180  0.3106 -1.3243
  100OSM    H5G10070   4.267   3.216   9.752  1.6766  0.5554  0.4673
  100OSM    C6F10071   4.147   3.392   9.774  0.0330  0.4584 -0.0817
  100OSM    H6F10072   4.232   3.449   9.729  1.3922 -2.8443 -1.8658
  100OSM    H6G10073   4.096   3.458   9.847 -1.0536  0.1971 -0.5935
  100OSM    C7F10074   4.055   3.371   9.658  0.2840 -0.4078  0.5553
  100OSM    H7F10075   4.031   3.475   9.626  1.3484  0.8627  3.6428
  100OSM    H7G10076   3.957   3.338   9.699 -1.1360  0.4805 -2.0120
  100OSM    C8F10077   4.116   3.280   9.545  0.0837  0.6006 -0.0217
  100OSM    H8F10078   4.128   3.183   9.597 -1.9726  0.3363  0.0064
  100OSM    H8G10079   4.216   3.306   9.504  0.3265 -1.6979 -0.9431
  100OSM    C9F10080   4.011   3.254   9.437 -0.2657  0.5507  0.5624
  100OSM    H9F10081   3.945   3.170   9.464 -0.3142  0.3173 -0.2539
  100OSM   C10F10082   3.984   3.327   9.324  0.1241  0.5221  0.3603
  100OSM   H10F10083   3.910   3.297   9.248 -1.0874  1.1147  1.2703
  100OSM   C11F10084   4.074   3.434   9.276  0.1566 -0.0218  0.2045
  100OSM   H11F10085   4.130   3.489   9.356 -0.8527 -0.1275  0.9913
  100OSM   H11G10086   4.012   3.518   9.240  0.0145 -1.1644 -2.2631
  100OSM   C12F10087   4.162   3.399   9.157 -0.0357  0.2721 -0.6835
  100OSM   H12F10088   4.194   3.294   9.172 -2.7910 -0.2373  2.1699
  100OSM   H12G10089   4.252   3.462   9.142  0.0691  0.5021  0.8502
  100OSM   C13F10090   4.090   3.414   9.022  0.5305 -0.0042  0.8209
  100OSM   H13F10091   4.040   3.513   9.027 -0.1998 -0.3035 -0.4172
  100OSM   H13G10092   4.009   3.339   9.010  0.4063 -0.1769  2.6037
  100OSM   C14F10093   4.183   3.409   8.892  0.1537  0.7628 -0.1799
  100OSM   H14F10094   4.226   3.307   8.884  1.4348  0.9095  3.8050
  100OSM   H14G10095   4.267   3.474   8.924 -0.3995  2.1626 -1.5313
  100OSM   C15F10096   4.122   3.468   8.761 -0.2272  0.4577 -0.5802
  100OSM   H15F10097   4.202   3.484   8.686 -2.1779  0.1579 -2.7885
  100OSM   H15G10098   4.074   3.562   8.795 -3.1690 -1.0716 -0.3275
  100OSM   C16F10099   4.012   3.372   8.708  0.4016  0.0256  0.1649
  100OSM   H16F10100   3.940   3.352   8.790  0.2000  0.1709  0.0238
  100OSM   H16G10101   4.070   3.281   8.683  0.6838  0.4147 -0.5989
  100OSM   C17F10102   3.929   3.419   8.586 -0.6905 -0.9865 -0.5557
  100OSM   H17F10103   3.886   3.520   8.603  0.1723 -0.7343  0.1453
  100OSM   H17G10104   3.840   3.352   8.576 -2.0085  0.4644  1.1084
  100OSM   C18F10105   4.014   3.434   8.465  0.6016 -0.3831 -0.0898
  100OSM   H18F10106   3.957   3.452   8.372  1.3388  0.1211 -0.4487
  100OSM   H18G10107   4.057   3.334   8.445 -1.7585 -1.4397 -0.0997
  100OSM   H18H10108   4.089   3.515   8.469  1.2462 -1.0212  1.0186
  101OSM      N10109   6.523   3.345  10.967 -0.0427 -0.8246 -0.2620
  101OSM    C1510110   6.534   3.215  10.904  0.0573  0.6880 -0.6022
  101OSM   H15A10111   6.638   3.192  10.884  0.7518  1.7403  1.6517
  101OSM   H15B10112   6.483   3.209  10.809  0.6405 -0.3655 -0.8616
  101OSM   H15C10113   6.498   3.137  10.969  2.1390 -0.4012 -0.7218
  101OSM    C1410114   6.380   3.358  10.998  0.4717 -0.6043 -0.5511
  101OSM   H14A10115   6.313   3.336  10.917  2.3813 -0.1176 -2.2871
  101OSM   H14B10116   6.340   3.452  11.034 -0.6171 -1.4926  0.6499
  101OSM   H14C10117   6.357   3.295  11.083  0.7965 -1.9034 -1.4307
  101OSM    C1310118   6.597   3.364  11.098 -0.5941  0.3440 -0.7634
  101OSM   H13A10119   6.703   3.358  11.083 -0.7936 -0.7939 -1.8232
  101OSM   H13B10120   6.572   3.289  11.171 -0.1806 -1.5932 -2.5801
  101OSM   H13C10121   6.587   3.467  11.129  0.0784  0.9753 -2.5793
  101OSM    C1210122   6.565   3.449  10.860 -0.1726 -0.3313  0.3085
  101OSM   H12A10123   6.533   3.550  10.881 -0.2313 -0.3035  0.0841
  101OSM   H12B10124   6.510   3.430  10.769 -0.2039 -1.0703  0.4744
  101OSM    C1110125   6.711   3.447  10.832  0.7439  0.0670  0.1566
  101OSM   H11A10126   6.717   3.487  10.729  0.1379 -1.5967 -0.5361
  101OSM   H11B10127   6.752   3.344  10.829  1.6822  0.4741 -1.0829
  101OSM      P10128   6.925   3.499  10.965 -0.1530  0.1686  0.2352
  101OSM    O1310129   6.967   3.601  11.057 -0.3628  0.1870 -0.1478
  101OSM    O1410130   6.935   3.357  11.012  1.1995  0.9811  0.0624
  101OSM    O1110131   7.016   3.515  10.836 -0.0417 -0.0080 -0.9310
  101OSM    O1210132   6.782   3.531  10.913 -0.1348 -0.1944 -0.3425
  101OSM    C1S10133   7.026   3.646  10.776 -0.6950  0.1517  0.3087
  101OSM    H1S10134   7.075   3.720  10.843  0.5715 -0.6440  0.2741
  101OSM    H1T10135   6.927   3.688  10.749  0.6587  2.7422 -0.7983
  101OSM     NF10136   7.150   3.766  10.585  0.1865 -0.3589  1.1220
  101OSM    HNF10137   7.139   3.792  10.490  1.8928 -1.0602  0.7118
  101OSM    C2S10138   7.099   3.634  10.636 -0.2035 -0.4527 -0.0756
  101OSM    H2S10139   7.192   3.574  10.643 -0.2355 -0.5871 -0.7883
  101OSM    C3S10140   6.999   3.557  10.541 -0.0042  0.1642 -1.2142
  101OSM    H3S10141   6.925   3.636  10.519 -2.3383 -1.1080  1.7536
  101OSM     O310142   6.939   3.441  10.593 -0.1940 -0.4116  0.6581
  101OSM    HO310143   6.945   3.459  10.687  0.5857 -0.4254  0.6123
  101OSM    C4S10144   7.076   3.516  10.422 -0.2395  0.3061 -0.5374
  101OSM    H4S10145   7.070   3.586  10.337 -0.2179  0.0743 -0.7312
  101OSM    C5S10146   7.153   3.406  10.398  0.2981 -0.1128 -0.3114
  101OSM    H5S10147   7.158   3.329  10.476  0.7437  0.2752  0.0523
  101OSM    C6S10148   7.239   3.381  10.275  0.0409 -0.5609  0.2964
  101OSM    H6S10149   7.267   3.274  10.279  0.7220 -0.3904  0.1722
  101OSM    H6T10150   7.334   3.438  10.283  0.0175 -0.7302  1.9687
  101OSM    C7S10151   7.169   3.402  10.141 -0.1002  0.0352 -0.4397
  101OSM    H7S10152   7.154   3.509  10.112 -0.4926 -0.3795 -1.8129
  101OSM    H7T10153   7.067   3.360  10.152  0.8714 -1.5794  2.9229
  101OSM    C8S10154   7.246   3.336  10.025  0.3802  0.2594 -0.8466
  101OSM    H8S10155   7.217   3.229  10.031 -0.5189  0.5881  1.3971
  101OSM    H8T10156   7.357   3.345  10.036  0.1861  2.0429 -0.1971
  101OSM    C9S10157   7.215   3.386   9.881 -0.2108 -0.0959 -0.2393
  101OSM    H9S10158   7.242   3.493   9.868  2.2194 -0.4395  1.6575
  101OSM    H9T10159   7.104   3.389   9.868 -0.8299 -2.2966  3.7109
  101OSM   C10S10160   7.283   3.294   9.774  0.1849  0.2705 -0.4002
  101OSM   H10S10161   7.263   3.190   9.809  1.0265 -0.3148 -1.6267
  101OSM   H10T10162   7.390   3.322   9.782  0.5983  0.2031 -4.7130
  101OSM   C11S10163   7.234   3.307   9.626 -0.3445 -0.8143 -0.0837
  101OSM   H11S10164   7.226   3.416   9.606  0.2657 -0.4592  1.4621
  101OSM   H11T10165   7.128   3.281   9.609 -0.6853  1.2893 -1.3500
  101OSM   C12S10166   7.329   3.235   9.533  0.8321  0.1704 -0.7749
  101OSM   H12S10167   7.331   3.128   9.563 -1.5793  0.7010  1.4107
  101OSM   H12T10168   7.425   3.277   9.568 -1.4489  2.6877  2.7345
  101OSM   C13S10169   7.298   3.256   9.386 -0.0325 -0.0233  0.0205
  101OSM   H13S10170   7.278   3.365   9.380 -1.8354 -0.4061 -1.4522
  101OSM   H13T10171   7.201   3.211   9.356 -1.8079  3.4515  0.2633
  101OSM   C14S10172   7.418   3.212   9.302 -0.1982  0.3984  0.2672
  101OSM   H14S10173   7.441   3.104   9.312 -1.4375  0.0941 -0.0926
  101OSM   H14T10174   7.513   3.262   9.332  0.1451  0.3951 -0.7834
  101OSM   C15S10175   7.397   3.228   9.147  0.0171  0.3557  0.8999
  101OSM   H15S10176   7.365   3.333   9.133 -1.5126  0.2484  3.1762
  101OSM   H15T10177   7.306   3.168   9.125  0.2018  1.3609 -2.9648
  101OSM   C16S10178   7.518   3.183   9.066  0.2301 -0.3887 -0.3090
  101OSM   H16S10179   7.560   3.089   9.108  0.2793 -0.7848 -1.2514
  101OSM   H16T10180   7.589   3.268   9.069 -1.0729  0.7121 -0.0498
  101OSM   C17S10181   7.474   3.150   8.923 -0.0138 -0.4466 -0.0144
  101OSM   H17S10182   7.395   3.220   8.888  1.5602  1.4245  0.0666
  101OSM   H17T10183   7.429   3.049   8.925 -0.4408 -0.2362  0.9460
  101OSM   C18S10184   7.591   3.151   8.825 -0.3912 -0.0090  0.3733
  101OSM   H18S10185   7.656   3.064   8.849 -1.2660 -0.4373  1.2076
  101OSM   H18T10186   7.641   3.250   8.826  0.3837 -0.3646 -0.8767
  101OSM   H18U10187   7.554   3.138   8.721 -0.2947 -1.7799  0.5389
  101OSM    C1F10188   7.247   3.839  10.651 -0.3321 -0.0535  0.4822
  101OSM     OF10189   7.299   3.790  10.747  0.1296 -0.0052 -0.1240
  101OSM    C2F10190   7.289   3.966  10.583  0.0470 -0.3608  0.9114
  101OSM    H2F10191   7.271   4.057  10.644  0.0312 -1.3205  2.3666
  101OSM    H2G10192   7.239   3.973  10.484  2.7522 -0.8868 -0.5427
  101OSM    C3F10193   7.437   3.981  10.542  0.0250 -0.3554  0.7457
  101OSM    H3F10194   7.505   3.968  10.629  0.3450  1.3962  0.7818
  101OSM    H3G10195   7.463   4.081  10.502  1.0420  0.3296  3.0551
  101OSM    C4F10196   7.473   3.870  10.440  0.5959  0.8507 -0.1938
  101OSM    H4F10197   7.383   3.809  10.417 -0.2017  0.3610  3.9389
  101OSM    H4G10198   7.534   3.794  10.494  2.9324  1.9839 -1.1602
  101OSM    C5F10199   7.526   3.923  10.308 -0.0392  0.2895  0.2583
  101OSM    H5F10200   7.634   3.897  10.307  0.2668  1.4538  2.2964
  101OSM    H5G10201   7.517   4.033  10.300  0.0002  0.1684 -1.7965
  101OSM    C6F10202   7.444   3.868  10.186  0.1803 -0.2108 -0.8021
  101OSM    H6F10203   7.335   3.873  10.207  0.2743  0.5666 -0.4753
  101OSM    H6G10204   7.471   3.936  10.102  1.4133  0.9321  0.4923
  101OSM    C7F10205   7.482   3.728  10.143 -0.1672  0.2440 -0.2359
  101OSM    H7F10206   7.442   3.656  10.217  1.2748  1.8651  2.1824
  101OSM    H7G10207   7.592   3.722  10.128 -0.0633  2.2528 -0.4108
  101OSM    C8F10208   7.397   3.694  10.015 -0.1358 -0.5572 -0.1914
  101OSM    H8F10209   7.293   3.700  10.054  0.9949  3.6550  2.5695
  101OSM    H8G10210   7.411   3.585   9.999  2.2038  0.2420 -4.1546
  101OSM    C9F10211   7.410   3.786   9.899  0.9515 -0.2370 -0.2573
  101OSM    H9F10212   7.343   3.873   9.907  0.7313 -0.3557 -0.8359
  101OSM   C10F10213   7.506   3.788   9.804  0.8096 -0.0111  0.0368
  101OSM   H10F10214   7.484   3.851   9.716 -1.7166 -0.6209  0.2044
  101OSM   C11F10215   7.601   3.673   9.793  0.0155  0.5430  0.1699
  101OSM   H11F10216   7.590   3.611   9.884 -0.0200 -1.3342 -1.0850
  101OSM   H11G10217   7.707   3.706   9.802  1.1485 -2.6872 -0.6781
  101OSM   C12F10218   7.591   3.581   9.671 -0.9293  0.6521  0.0420
  101OSM   H12F10219   7.498   3.520   9.666 -0.6117  0.3083 -2.2169
  101OSM   H12G10220   7.667   3.500   9.673 -2.3452 -0.7620 -1.3767
  101OSM   C13F10221   7.599   3.660   9.536  0.5725  0.4842  0.4913
  101OSM   H13F10222   7.693   3.719   9.542  0.7843  0.1587  0.3974
  101OSM   H13G10223   7.511   3.727   9.528  0.2051 -0.3071 -2.6014
  101OSM   C14F10224   7.614   3.569   9.417 -0.0917  0.1359  0.0471
  101OSM   H14F10225   7.538   3.488   9.411  0.4007 -0.2535 -1.0649
  101OSM   H14G10226   7.712   3.517   9.424  1.3369  2.9115  1.5230
  101OSM   C15F10227   7.609   3.646   9.293  0.3184  0.4241 -0.4789
  101OSM   H15F10228   7.702   3.702   9.269  0.4771 -0.1372 -1.1772
  101OSM   H15G10229   7.519   3.707   9.316  1.4983  1.5138  1.4695
  101OSM   C16F10230   7.578   3.555   9.167 -0.5038 -0.0349  0.9356
  101OSM   H16F10231   7.479   3.505   9.164 -1.6612  2.2729 -2.3171
  101OSM   H16G10232   7.664   3.485   9.164 -0.7480 -0.2941 -2.1181
  101OSM   C17F10233   7.582   3.644   9.044  0.2623 -0.3481  0.7606
  101OSM   H17F10234   7.684   3.686   9.029 -0.6824  2.3127  1.5282
  101OSM   H17G10235   7.517   3.734   9.046  1.7452  0.8077 -1.0967
  101OSM   C18F10236   7.556   3.563   8.917 -0.1851 -0.2483  0.1439
  101OSM   H18F10237   7.607   3.465   8.917 -0.5419 -0.4382 -0.5167
  101OSM   H18G10238   7.600   3.626   8.836  1.1686 -0.8684  0.3858
  101OSM   H18H10239   7.448   3.552   8.893 -0.0556 -1.9532  0.2936
  102OSM      N10240   3.209   5.235  11.016 -0.2973  0.2155  0.3378
  102OSM    C1510241   3.210   5.361  10.947  0.5588  0.6016  0.4404
  102OSM   H15A10242   3.269   5.440  10.992 -0.5671  2.1053 -0.6767
  102OSM   H15B10243   3.110   5.395  10.928  0.3000  0.3092  1.3022
  102OSM   H15C10244   3.260   5.339  10.854 -2.8390 -1.1592 -1.0539
  102OSM    C1410245   3.340   5.176  11.043 -0.9005  0.7512  0.2263
  102OSM   H14A10246   3.336   5.094  11.113  2.8823  1.9389  1.9746
  102OSM   H14B10247   3.407   5.245  11.092  1.7834 -0.4293 -1.6372
  102OSM   H14C10248   3.373   5.134  10.949  0.7690  1.4619  0.4692
  102OSM    C1310249   3.148   5.265  11.152 -0.3406 -0.3172 -0.5809
  102OSM   H13A10250   3.052   5.315  11.141  0.7547  1.9253 -0.1913
  102OSM   H13B10251   3.210   5.334  11.207 -1.1429 -1.1796  1.4411
  102OSM   H13C10252   3.131   5.172  11.205  2.2287 -0.9448 -0.7782
  102OSM    C1210253   3.113   5.134  10.953  0.0124 -0.1531  0.2112
  102OSM   H12A10254   3.148   5.045  11.004  1.0019 -0.2826 -0.6706
  102OSM   H12B10255   3.140   5.122  10.849 -1.6704 -0.0091 -0.2582
  102OSM    C1110256   2.966   5.155  10.966 -0.4531  0.6996  0.5411
  102OSM   H11A10257   2.935   5.177  11.071 -0.5736  1.0543  0.4333
  102OSM   H11B10258   2.914   5.064  10.930 -2.4332  1.7099  0.7266
  102OSM      P10259   2.779   5.301  10.858 -0.6409  0.0369  0.4728
  102OSM    O1310260   2.689   5.177  10.872 -0.2631 -0.4748 -0.2359
  102OSM    O1410261   2.749   5.402  10.955  0.2885 -0.1219  0.0814
  102OSM    O1110262   2.781   5.354  10.711  0.5600  0.1233  0.3192
  102OSM    O1210263   2.930   5.254  10.876  0.4099  0.3339 -0.1025
  102OSM    C1S10264   2.906   5.357  10.642 -0.8998  0.2610  0.1873
  102OSM    H1S10265   2.955   5.257  10.639 -0.0709  0.6468  0.5274
  102OSM    H1T10266   2.978   5.421  10.697 -1.5267  0.2914  0.9788
  102OSM     NF10267   3.030   5.377  10.417  0.3260 -0.6011 -0.1422
  102OSM    HNF10268   3.098   5.447  10.397  0.0905 -0.2843  0.1545
  102OSM    C2S10269   2.898   5.400  10.490  0.4583 -0.5388 -0.3654
  102OSM    H2S10270   2.816   5.332  10.457 -1.0398  1.8009 -1.6057
  102OSM    C3S10271   2.840   5.545  10.476 -0.3776  0.0593 -0.1662
  102OSM    H3S10272   2.914   5.615  10.520 -0.5190  1.1126 -1.5672
  102OSM     O310273   2.725   5.564  10.555 -0.5284  0.2803 -0.4242
  102OSM    HO310274   2.739   5.500  10.625  3.6911 -0.1329 -1.5072
  102OSM    C4S10275   2.827   5.577  10.334 -0.1386  1.4557 -0.2343
  102OSM    H4S10276   2.755   5.513  10.281 -1.7040  1.7171  1.5248
  102OSM    C5S10277   2.887   5.677  10.263  0.1345 -0.5993  0.1650
  102OSM    H5S10278   2.950   5.746  10.322 -0.9640  0.0699  0.5619
  102OSM    C6S10279   2.874   5.713  10.116  0.2517 -0.6948  0.8353
  102OSM    H6S10280   2.974   5.747  10.082 -0.8206  1.3022 -0.4344
  102OSM    H6T10281   2.800   5.795  10.123 -0.3743 -1.3897  2.5519
  102OSM    C7S10282   2.827   5.602  10.019  0.3771 -0.8541 -1.1152
  102OSM    H7S10283   2.736   5.554  10.062  0.5055  0.4181  0.6154
  102OSM    H7T10284   2.895   5.514  10.015  1.4447 -0.1931  1.5262
  102OSM    C8S10285   2.803   5.660   9.879 -0.3406 -0.0066  0.1332
  102OSM    H8S10286   2.803   5.579   9.803  0.7753 -0.6967  0.8671
  102OSM    H8T10287   2.885   5.728   9.846  0.2384 -1.0915 -0.6987
  102OSM    C9S10288   2.667   5.728   9.861 -0.5525  0.7408 -0.1969
  102OSM    H9S10289   2.648   5.807   9.937 -3.0904 -1.0774  1.1264
  102OSM    H9T10290   2.594   5.649   9.885 -1.2340  1.1166 -1.0202
  102OSM   C10S10291   2.644   5.778   9.716 -0.5769 -0.6072  0.2142
  102OSM   H10S10292   2.746   5.804   9.682 -0.4361 -2.7496 -1.0623
  102OSM   H10T10293   2.575   5.865   9.715  1.4808  1.0619 -2.4512
  102OSM   C11S10294   2.577   5.683   9.621  0.0249  0.9780 -0.1682
  102OSM   H11S10295   2.480   5.646   9.660  0.2497 -0.4561 -0.9178
  102OSM   H11T10296   2.646   5.597   9.605 -1.3102  0.4328 -3.4768
  102OSM   C12S10297   2.564   5.740   9.474  0.5929  0.1761  0.4973
  102OSM   H12S10298   2.646   5.810   9.446 -0.7202  1.6236  0.2356
  102OSM   H12T10299   2.472   5.801   9.466 -0.2337 -1.2330 -0.8926
  102OSM   C13S10300   2.542   5.637   9.368  0.6279  0.2698 -0.5157
  102OSM   H13S10301   2.449   5.579   9.385  0.9367 -0.2478 -0.5583
  102OSM   H13T10302   2.627   5.565   9.368 -2.2724 -3.3227 -1.3511
  102OSM   C14S10303   2.535   5.703   9.234 -0.1050  0.4151  0.6802
  102OSM   H14S10304   2.614   5.780   9.229 -0.4025  0.6908  0.1701
  102OSM   H14T10305   2.437   5.752   9.218 -0.7980 -0.3410  2.5686
  102OSM   C15S10306   2.551   5.594   9.130 -0.0369 -0.2234 -0.0900
  102OSM   H15S10307   2.482   5.512   9.158 -1.1342 -0.2782 -2.7733
  102OSM   H15T10308   2.656   5.559   9.140  0.2746  0.6461 -0.2569
  102OSM   C16S10309   2.521   5.637   8.982 -0.1436  0.2013 -0.4833
  102OSM   H16S10310   2.580   5.725   8.947  2.0310 -0.6015  1.0361
  102OSM   H16T10311   2.412   5.657   8.978 -0.1363  0.1695 -0.9155
  102OSM   C17S10312   2.555   5.527   8.890 -0.1365  0.4366 -0.0621
  102OSM   H17S10313   2.655   5.482   8.910 -0.2454  1.0107  1.8495
  102OSM   H17T10314   2.576   5.575   8.792  2.3151  1.7742  1.0461
  102OSM   C18S10315   2.462   5.402   8.870 -0.2291 -0.5824 -0.1429
  102OSM   H18S10316   2.433   5.367   8.971  0.9534  1.3106  0.8976
  102OSM   H18T10317   2.524   5.325   8.820  0.9907  0.5035 -0.3516
  102OSM   H18U10318   2.375   5.424   8.804  0.6104  0.1283 -1.0393
  102OSM    C1F10319   3.073   5.251  10.405  0.4227  0.2769  0.2348
  102OSM     OF10320   3.003   5.151  10.428  0.4087  0.7493  0.0242
  102OSM    C2F10321   3.224   5.231  10.379  0.4921 -0.9550 -0.4863
  102OSM    H2F10322   3.259   5.172  10.466  0.4436  1.8167  1.4958
  102OSM    H2G10323   3.254   5.338  10.380 -0.8253 -0.5768 -0.1003
  102OSM    C3F10324   3.248   5.175  10.234  0.1091 -0.5357  0.2335
  102OSM    H3F10325   3.205   5.073  10.232 -0.6428 -0.3245  3.1945
  102OSM    H3G10326   3.357   5.164  10.218 -0.1879 -1.8694 -0.9822
  102OSM    C4F10327   3.178   5.260  10.118  0.3628  1.3685 -0.4350
  102OSM    H4F10328   3.215   5.364  10.126 -1.2918  2.1173 -2.1953
  102OSM    H4G10329   3.069   5.261  10.141  0.2283 -0.5374 -0.9419
  102OSM    C5F10330   3.204   5.191   9.972  0.1942  0.1135  0.1032
  102OSM    H5F10331   3.155   5.092   9.976 -1.9697  1.1106 -0.9059
  102OSM    H5G10332   3.313   5.186   9.948  0.4772  0.1890  1.3476
  102OSM    C6F10333   3.125   5.281   9.873 -0.2554  0.2819 -0.1818
  102OSM    H6F10334   3.150   5.388   9.887  0.1759  0.2030 -0.3636
  102OSM    H6G10335   3.019   5.261   9.903 -0.1059 -1.4188 -0.7295
  102OSM    C7F10336   3.137   5.250   9.724 -0.0521 -0.9989  0.4386
  102OSM    H7F10337   3.122   5.140   9.714  0.9966 -1.0111 -1.1095
  102OSM    H7G10338   3.239   5.276   9.688 -0.4128 -1.6677 -1.0799
  102OSM    C8F10339   3.035   5.315   9.631  0.2794  0.0489 -0.6156
  102OSM    H8F10340   2.929   5.298   9.659  0.8036 -0.5576  1.0562
  102OSM    H8G10341   3.034   5.252   9.539  2.2127  0.2882 -0.8246
  102OSM    C9F10342   3.058   5.465   9.616  0.4562 -1.0011 -0.2692
  102OSM    H9F10343   3.098   5.512   9.707 -1.4023 -0.3967  0.2670
  102OSM   C10F10344   3.041   5.535   9.505  1.3498 -0.1678  0.4190
  102OSM   H10F10345   3.043   5.645   9.506 -2.8505  0.0356 -1.2763
  102OSM   C11F10346   2.990   5.479   9.378  0.3101  0.3439  0.9348
  102OSM   H11F10347   2.919   5.552   9.333  0.7765 -0.3592 -0.9859
  102OSM   H11G10348   2.927   5.389   9.400  0.0762  0.7209  1.8491
  102OSM   C12F10349   3.107   5.435   9.295 -0.3725 -0.4269  0.5536
  102OSM   H12F10350   3.161   5.374   9.370 -1.3603  0.5105  2.0587
  102OSM   H12G10351   3.169   5.517   9.253  0.5503 -2.0390 -1.3343
  102OSM   C13F10352   3.061   5.351   9.168 -0.7575 -0.5136 -0.1870
  102OSM   H13F10353   2.975   5.402   9.119 -1.8831 -0.9034  1.3196
  102OSM   H13G10354   3.017   5.255   9.204 -0.7456 -1.1167 -1.7581
  102OSM   C14F10355   3.169   5.317   9.073 -0.0918 -0.0121 -0.7104
  102OSM   H14F10356   3.241   5.242   9.114  1.7396  0.5623 -2.7617
  102OSM   H14G10357   3.233   5.406   9.057 -1.8092  1.7065  1.6921
  102OSM   C15F10358   3.109   5.276   8.940  0.9001  0.2032  0.1279
  102OSM   H15F10359   3.047   5.354   8.891  0.6786  0.1479  0.3177
  102OSM   H15G10360   3.034   5.198   8.967  0.2538  0.9044  0.3666
  102OSM   C16F10361   3.202   5.202   8.844  0.5734  0.3406 -0.1205
  102OSM   H16F10362   3.130   5.145   8.782 -1.3201  0.9599  1.4648
  102OSM   H16G10363   3.264   5.132   8.904  1.3098  1.0582 -0.0391
  102OSM   C17F10364   3.282   5.291   8.741 -0.0086 -0.4782 -1.1266
  102OSM   H17F10365   3.215   5.344   8.670 -1.3459  0.6299  0.9066
  102OSM   H17G10366   3.339   5.219   8.678  2.6234  0.1668  0.4371
  102OSM   C18F10367   3.376   5.399   8.797 -0.2806  0.4986  0.1779
  102OSM   H18F10368   3.438   5.337   8.866 -1.0666 -0.9182 -0.3632
  102OSM   H18G10369   3.317   5.476   8.851 -0.8644  0.5790 -0.5707
  102OSM   H18H10370   3.440   5.451   8.723 -0.5876  1.2846  0.4572
  103OSM      N10371   1.512   1.679  10.925 -0.0454 -0.0362 -1.0091
  103OSM    C1510372   1.377   1.627  10.979  0.2967  0.7435 -0.4674
  103OSM   H15A10373   1.309   1.710  10.976 -1.5662 -0.6306  1.5453
  103OSM   H15B10374   1.401   1.595  11.080 -1.1780 -0.8433 -0.6058
  103OSM   H15C10375   1.347   1.539  10.924  0.7395  0.2012  0.1453
  103OSM    C1410376   1.541   1.799  11.010 -0.7183  0.0938 -0.0101
  103OSM   H14A10377   1.640   1.843  11.004 -1.5001  1.9355  0.1844
  103OSM   H14B10378   1.521   1.786  11.115 -0.3174 -1.2942 -0.0928
  103OSM   H14C10379   1.484   1.879  10.966  1.0239  1.7631  0.6795
  103OSM    C1310380   1.616   1.580  10.960  0.2394 -0.3161 -0.0448
  103OSM   H13A10381   1.606   1.555  11.064 -4.1928  0.4199 -0.2010
  103OSM   H13B10382   1.709   1.624  10.927 -0.0168 -0.7428 -1.3902
  103OSM   H13C10383   1.605   1.486  10.908  1.4404 -1.4913  1.7917
  103OSM    C1210384   1.503   1.720  10.782 -0.2311  0.5127  0.2713
  103OSM   H12A10385   1.486   1.630  10.725  1.0563  0.3219  0.1774
  103OSM   H12B10386   1.590   1.771  10.741 -0.2672  1.6255  1.5324
  103OSM    C1110387   1.376   1.804  10.753  0.6656 -0.3315 -0.3495
  103OSM   H11A10388   1.285   1.752  10.788  1.9530 -2.0729  0.4827
  103OSM   H11B10389   1.360   1.818  10.644  0.2229 -1.1284 -0.3886
  103OSM      P10390   1.255   2.023  10.822 -0.0957 -0.4160  0.3382
  103OSM    O1310391   1.144   1.950  10.887  0.1287 -0.3097  0.3952
  103OSM    O1410392   1.288   2.147  10.885 -0.0894  0.0496 -0.3576
  103OSM    O1110393   1.208   2.050  10.675 -0.3290 -0.1502 -0.4328
  103OSM    O1210394   1.380   1.928  10.820 -0.0059 -0.4219 -0.3295
  103OSM    C1S10395   1.269   2.142  10.590 -0.3479 -0.0160 -0.3180
  103OSM    H1S10396   1.375   2.115  10.570 -0.5136 -1.2129  0.3911
  103OSM    H1T10397   1.254   2.243  10.635 -3.2831 -0.8386  0.5921
  103OSM     NF10398   1.270   2.249  10.370  0.0994  0.0128 -0.0138
  103OSM    HNF10399   1.219   2.334  10.374 -1.7733 -1.0245 -0.8547
  103OSM    C2S10400   1.210   2.143  10.446  0.5068  0.0680 -0.6825
  103OSM    H2S10401   1.229   2.044  10.400 -2.4725 -0.4867 -0.8192
  103OSM    C3S10402   1.052   2.158  10.450  0.0638 -0.5830 -0.1395
  103OSM    H3S10403   1.018   2.262  10.469  1.6672 -0.1634  0.5098
  103OSM     O310404   0.984   2.087  10.550  0.0823  0.4863 -0.4064
  103OSM    HO310405   1.064   2.054  10.591  1.1638 -0.1054 -2.9285
  103OSM    C4S10406   0.995   2.118  10.313  0.3360  0.5448  0.0111
  103OSM    H4S10407   0.983   2.205  10.247  2.4174 -0.8646 -2.3367
  103OSM    C5S10408   0.955   1.991  10.272 -0.0150  0.4221  0.6119
  103OSM    H5S10409   0.969   1.900  10.333  1.2856  0.6010  0.5945
  103OSM    C6S10410   0.907   1.957  10.129  0.3023 -0.5856 -0.4941
  103OSM    H6S10411   0.797   1.957  10.138  0.2853 -0.2740 -0.6926
  103OSM    H6T10412   0.951   1.860  10.098 -0.7371 -1.4192  0.6010
  103OSM    C7S10413   0.959   2.061  10.019  0.2352 -0.0170  0.7491
  103OSM    H7S10414   1.068   2.056  10.035  0.5509  3.9794  0.2245
  103OSM    H7T10415   0.929   2.166  10.035 -1.3204 -0.1064 -1.3214
  103OSM    C8S10416   0.915   2.016   9.882  0.1015 -0.5190  0.5349
  103OSM    H8S10417   0.805   2.025   9.877  0.2373  1.4589  0.6621
  103OSM    H8T10418   0.939   1.909   9.867 -1.3874 -0.8713  0.6898
  103OSM    C9S10419   0.964   2.104   9.776 -0.5550  0.2953  0.5645
  103OSM    H9S10420   0.942   2.208   9.811  1.3659  0.5829  0.9570
  103OSM    H9T10421   0.905   2.072   9.688 -0.4733  0.1358  0.5688
  103OSM   C10S10422   1.114   2.097   9.736  0.3488 -0.0490 -0.9322
  103OSM   H10S10423   1.136   1.990   9.716 -1.9366 -0.8428  0.5308
  103OSM   H10T10424   1.175   2.122   9.825 -1.7658 -1.1977  0.9021
  103OSM   C11S10425   1.150   2.185   9.618 -0.0134  0.5904 -0.5418
  103OSM   H11S10426   1.260   2.175   9.619 -0.1450 -1.0273  1.3268
  103OSM   H11T10427   1.116   2.288   9.642  0.9530  0.8687 -0.3742
  103OSM   C12S10428   1.105   2.147   9.480 -0.4707 -0.4069  0.3902
  103OSM   H12S10429   0.995   2.134   9.474 -0.4641 -0.0044 -0.5623
  103OSM   H12T10430   1.143   2.044   9.459  2.4934  0.9988 -1.4271
  103OSM   C13S10431   1.155   2.251   9.378  0.0961  0.1476  1.0019
  103OSM   H13S10432   1.246   2.199   9.343  0.5944  0.5812  1.6512
  103OSM   H13T10433   1.180   2.351   9.419 -0.6107 -0.5492  3.2165
  103OSM   C14S10434   1.051   2.283   9.272  0.2332 -0.2192 -0.4792
  103OSM   H14S10435   1.095   2.320   9.177 -1.9096  0.6953 -1.1415
  103OSM   H14T10436   0.987   2.369   9.300  1.0841  0.2318  0.1045
  103OSM   C15S10437   0.966   2.170   9.222  0.5276 -0.4205  0.1789
  103OSM   H15S10438   0.890   2.212   9.153  0.1716  0.7912  1.3109
  103OSM   H15T10439   0.906   2.132   9.307  1.4273 -1.4399  0.3666
  103OSM   C16S10440   1.039   2.049   9.157 -0.1404 -0.3096 -0.2049
  103OSM   H16S10441   1.101   2.007   9.239 -1.0537  0.0102  0.6587
  103OSM   H16T10442   1.109   2.084   9.078  0.1723 -1.5664 -0.4873
  103OSM   C17S10443   0.937   1.950   9.094 -0.1445 -0.3055 -0.2867
  103OSM   H17S10444   0.869   2.014   9.034 -0.4537 -2.2364 -2.0758
  103OSM   H17T10445   0.876   1.896   9.170  0.7711  0.8899  1.3227
  103OSM   C18S10446   0.996   1.850   9.003 -0.1052  0.0281 -0.5476
  103OSM   H18S10447   1.026   1.900   8.908 -0.8131  1.9365  0.2151
  103OSM   H18T10448   0.918   1.774   8.981 -0.1251 -0.0797 -0.1170
  103OSM   H18U10449   1.079   1.800   9.059 -1.9088  0.5262  2.6781
  103OSM    C1F10450   1.398   2.247  10.323  0.3678  0.9374 -0.6721
  103OSM     OF10451   1.466   2.144  10.333 -0.0192 -0.1606  0.6149
  103OSM    C2F10452   1.456   2.377  10.279  0.5348 -0.5295  0.6599
  103OSM    H2F10453   1.514   2.422  10.362  2.6492 -0.9165 -0.5701
  103OSM    H2G10454   1.372   2.445  10.255  0.4909 -1.6078 -2.4702
  103OSM    C3F10455   1.538   2.376  10.146 -0.0684 -0.1411  0.3311
  103OSM    H3F10456   1.614   2.297  10.168  0.1218 -0.2925 -0.8443
  103OSM    H3G10457   1.583   2.476  10.131 -0.7128 -0.1178 -1.6442
  103OSM    C4F10458   1.449   2.341  10.022  0.0053 -0.4837  0.6657
  103OSM    H4F10459   1.382   2.427   9.998 -0.0702 -0.1660  1.9899
  103OSM    H4G10460   1.379   2.256  10.030 -0.5411 -0.0438  0.6052
  103OSM    C5F10461   1.549   2.312   9.909  0.0524  0.5189 -0.2669
  103OSM    H5F10462   1.607   2.218   9.920  1.6424  1.6433  1.3472
  103OSM    H5G10463   1.635   2.383   9.909  1.3097 -0.9467 -2.1007
  103OSM    C6F10464   1.493   2.329   9.769  0.2658 -0.3842 -0.0956
  103OSM    H6F10465   1.479   2.438   9.751 -0.2577  0.0797  2.7997
  103OSM    H6G10466   1.399   2.272   9.754  0.4270 -0.3887 -1.1093
  103OSM    C7F10467   1.585   2.293   9.653 -0.2471  0.7071  0.5873
  103OSM    H7F10468   1.588   2.181   9.655 -1.7465  0.6757  2.4520
  103OSM    H7G10469   1.687   2.329   9.677  0.7329 -1.1273 -0.6790
  103OSM    C8F10470   1.524   2.331   9.518  0.4419  0.2232 -0.7182
  103OSM    H8F10471   1.414   2.343   9.524  0.4390  1.4793 -2.8269
  103OSM    H8G10472   1.542   2.250   9.444 -2.3639  1.9109 -3.4070
  103OSM    C9F10473   1.578   2.468   9.481  0.5010  0.2659  0.0130
  103OSM    H9F10474   1.632   2.523   9.560 -0.8671  1.4258  0.1532
  103OSM   C10F10475   1.561   2.523   9.360  0.2040 -0.0844 -0.0505
  103OSM   H10F10476   1.584   2.629   9.343  0.3152 -0.3128 -1.3846
  103OSM   C11F10477   1.484   2.460   9.246  0.6314  0.2230  0.5250
  103OSM   H11F10478   1.398   2.398   9.280  0.8131 -0.0616  0.4605
  103OSM   H11G10479   1.554   2.401   9.184  0.0954  0.6708 -0.5163
  103OSM   C12F10480   1.425   2.560   9.149 -0.2034 -0.1291  0.4727
  103OSM   H12F10481   1.423   2.514   9.048  3.4155  0.6735 -0.0329
  103OSM   H12G10482   1.488   2.648   9.125  0.0458 -0.8237 -1.4802
  103OSM   C13F10483   1.284   2.613   9.183  0.2596  0.0187 -0.7648
  103OSM   H13F10484   1.278   2.650   9.288 -1.5567 -1.6937 -0.2292
  103OSM   H13G10485   1.217   2.526   9.169  1.0897 -0.7991  0.2434
  103OSM   C14F10486   1.238   2.733   9.094  0.1409  0.0264 -0.2929
  103OSM   H14F10487   1.317   2.811   9.109 -0.9145  0.9423  0.5786
  103OSM   H14G10488   1.148   2.783   9.135 -1.0064 -3.5105  1.6330
  103OSM   C15F10489   1.207   2.691   8.948 -0.2604  0.3783  0.1268
  103OSM   H15F10490   1.153   2.594   8.954 -0.3025  0.4019  0.1250
  103OSM   H15G10491   1.306   2.665   8.905  0.4833  0.4507  1.7541
  103OSM   C16F10492   1.120   2.782   8.875 -1.2396 -0.4728 -0.3241
  103OSM   H16F10493   1.158   2.885   8.862 -1.1388 -0.7822 -2.6231
  103OSM   H16G10494   1.024   2.795   8.931 -0.1787  1.5630  1.0929
  103OSM   C17F10495   1.086   2.720   8.735 -0.5514 -0.9520 -0.2004
  103OSM   H17F10496   1.028   2.625   8.742 -2.3968  0.0508 -1.5514
  103OSM   H17G10497   1.182   2.703   8.682  0.3413  0.1435  1.0294
  103OSM   C18F10498   1.012   2.817   8.652  0.1108 -0.1833 -0.2346
  103OSM   H18F10499   1.009   2.791   8.544  0.9684  0.2729 -0.3742
  103OSM   H18G10500   1.051   2.921   8.662  0.4454 -0.3207 -0.1147
  103OSM   H18H10501   0.907   2.833   8.686 -0.7250  1.6897 -3.4864
  104OSM      N10502   2.956   1.126  11.244 -0.1541 -0.0562  0.1455
  104OSM    C1510503   2.825   1.060  11.205  0.5071 -0.6022  0.2829
  104OSM   H15A10504   2.809   1.078  11.100  0.9877 -0.0284  0.3063
  104OSM   H15B10505   2.739   1.100  11.256  0.8062  3.3283 -2.0930
  104OSM   H15C10506   2.824   0.952  11.215  0.0999 -0.7268 -1.0197
  104OSM    C1410507   2.944   1.275  11.240 -0.3115  0.1473 -0.3473
  104OSM   H14A10508   3.037   1.322  11.269 -1.1314  1.9427 -0.6037
  104OSM   H14B10509   2.864   1.300  11.308 -0.3164 -0.3696 -0.1581
  104OSM   H14C10510   2.899   1.309  11.148 -2.3392  0.6503  0.7893
  104OSM    C1310511   2.979   1.094  11.384 -1.2023  0.7433  0.8390
  104OSM   H13A10512   3.071   1.039  11.393 -1.5121 -0.2045 -1.4789
  104OSM   H13B10513   2.906   1.030  11.430 -0.7285 -0.8700 -0.6134
  104OSM   H13C10514   2.989   1.181  11.447 -0.7028  0.8201  0.6553
  104OSM    C1210515   3.074   1.084  11.160 -0.3064  0.1697  0.2605
  104OSM   H12A10516   3.074   0.976  11.156  4.4829 -0.0033  1.3435
  104OSM   H12B10517   3.167   1.102  11.213  0.8534 -2.6198 -0.7307
  104OSM    C1110518   3.097   1.139  11.016 -0.3817  0.0402 -0.0760
  104OSM   H11A10519   3.184   1.097  10.961  1.5611  1.2358  2.0048
  104OSM   H11B10520   3.113   1.248  11.031  0.6280  0.2266 -2.3024
  104OSM      P10521   2.946   0.991  10.854  0.2020  0.0739  0.1445
  104OSM    O1310522   3.037   0.880  10.902  0.4591  0.8350  0.1407
  104OSM    O1410523   2.799   0.957  10.867 -0.3879  0.6182  0.2687
  104OSM    O1110524   2.973   1.033  10.703  0.2390  0.6630 -0.3005
  104OSM    O1210525   2.981   1.128  10.933  0.7569 -0.2293 -0.1795
  104OSM    C1S10526   2.914   1.158  10.657  0.0158  0.1455 -0.1848
  104OSM    H1S10527   2.945   1.243  10.722 -1.3295  0.2499  0.3179
  104OSM    H1T10528   2.804   1.153  10.645 -0.1071  0.1139  0.9091
  104OSM     NF10529   2.911   1.319  10.471  0.6334  0.0041 -0.1393
  104OSM    HNF10530   2.832   1.309  10.411  0.7591  1.1356 -0.4931
  104OSM    C2S10531   2.979   1.199  10.520  0.1957 -0.0228  1.2725
  104OSM    H2S10532   3.088   1.215  10.529  0.1094  0.8118  0.8918
  104OSM    C3S10533   2.977   1.083  10.419 -0.1730  0.5378  0.1822
  104OSM    H3S10534   2.874   1.042  10.417  0.7855 -2.2701  2.7860
  104OSM     O310535   3.059   0.969  10.447 -0.2387 -0.3883 -0.3698
  104OSM    HO310536   3.108   1.008  10.519  2.0836 -1.6858 -1.2017
  104OSM    C4S10537   3.007   1.132  10.283  0.2137 -0.3180  0.1278
  104OSM    H4S10538   2.921   1.169  10.226  0.3989  0.7844  0.5483
  104OSM    C5S10539   3.125   1.146  10.213  0.0346 -0.5542 -0.2011
  104OSM    H5S10540   3.222   1.133  10.264  1.3627  0.4610 -2.4189
  104OSM    C6S10541   3.136   1.201  10.070  0.1731  0.1277  0.0127
  104OSM    H6S10542   3.035   1.221  10.028  1.1532  0.6907 -2.1539
  104OSM    H6T10543   3.179   1.122  10.005 -0.4976 -1.0950  1.0099
  104OSM    C7S10544   3.212   1.329  10.049 -0.1762 -0.2054 -0.7010
  104OSM    H7S10545   3.311   1.315  10.098 -0.3470 -3.7266 -1.2429
  104OSM    H7T10546   3.169   1.419  10.099  2.4030  0.3156  0.6922
  104OSM    C8S10547   3.229   1.372   9.905  0.0725 -0.1493  0.0137
  104OSM    H8S10548   3.228   1.483   9.902 -1.3450 -0.1609 -0.1778
  104OSM    H8T10549   3.140   1.343   9.846 -1.2145  2.0118  0.8230
  104OSM    C9S10550   3.361   1.338   9.843  1.0062 -0.4693  0.0072
  104OSM    H9S10551   3.441   1.367   9.915  0.6932  1.3510 -0.3693
  104OSM    H9T10552   3.380   1.400   9.753  0.3901  1.8069  1.3983
  104OSM   C10S10553   3.383   1.191   9.798 -0.3018 -0.4440  0.5460
  104OSM   H10S10554   3.285   1.139   9.792 -1.1057  1.0370  0.6034
  104OSM   H10T10555   3.455   1.147   9.871  0.3735  0.5431  0.4895
  104OSM   C11S10556   3.442   1.170   9.653  0.5693  0.2556 -0.4277
  104OSM   H11S10557   3.490   1.070   9.645  0.0927  0.0585 -0.8545
  104OSM   H11T10558   3.536   1.228   9.646  0.7944  0.1440  1.4485
  104OSM   C12S10559   3.355   1.205   9.535  0.6724  0.0020  0.1460
  104OSM   H12S10560   3.291   1.294   9.552  0.7730  0.2534 -0.7494
  104OSM   H12T10561   3.283   1.121   9.520  2.4646 -0.9707 -3.6420
  104OSM   C13S10562   3.424   1.238   9.405  0.4499  0.4148  0.1322
  104OSM   H13S10563   3.482   1.333   9.412 -0.7091  0.9428  3.3295
  104OSM   H13T10564   3.346   1.270   9.333  1.9210 -2.3394 -2.8155
  104OSM   C14S10565   3.491   1.120   9.334 -0.3061 -0.5124 -0.2921
  104OSM   H14S10566   3.575   1.078   9.394  1.4966  2.1167 -0.8848
  104OSM   H14T10567   3.533   1.163   9.241 -0.8814 -1.2621 -0.9031
  104OSM   C15S10568   3.395   1.001   9.310  0.0068  0.1185 -0.2323
  104OSM   H15S10569   3.315   1.053   9.252 -0.4759  0.1380  0.4463
  104OSM   H15T10570   3.350   0.968   9.406  0.8158 -1.3111 -0.3412
  104OSM   C16S10571   3.475   0.882   9.258  0.3996  0.1175  0.1017
  104OSM   H16S10572   3.404   0.799   9.239  0.2321  0.2081  0.3309
  104OSM   H16T10573   3.548   0.854   9.337  1.2579  1.2754 -0.2755
  104OSM   C17S10574   3.568   0.904   9.141 -0.1316 -0.2137  0.6169
  104OSM   H17S10575   3.636   0.818   9.125  2.2692  0.9064  4.2189
  104OSM   H17T10576   3.635   0.989   9.168  1.0333 -0.3999 -1.5516
  104OSM   C18S10577   3.510   0.941   9.004  0.2032 -0.4813 -1.0466
  104OSM   H18S10578   3.419   0.881   8.979  1.0606 -1.4472 -1.9263
  104OSM   H18T10579   3.591   0.917   8.931  3.3955  1.7680  1.6290
  104OSM   H18U10580   3.487   1.049   9.012  2.0177 -0.2310  1.4787
  104OSM    C1F10581   2.946   1.446  10.496  0.4689  0.3459  0.2383
  104OSM     OF10582   3.059   1.479  10.543 -0.1540  0.1815  0.3146
  104OSM    C2F10583   2.839   1.544  10.452  0.0031 -0.2591  0.0210
  104OSM    H2F10584   2.788   1.589  10.540 -0.5527  1.0394 -0.9582
  104OSM    H2G10585   2.760   1.497  10.390 -0.5454  0.5219  0.1166
  104OSM    C3F10586   2.909   1.658  10.376 -0.7371 -0.1505  0.2429
  104OSM    H3F10587   2.984   1.714  10.435 -0.6012  0.0391 -0.1177
  104OSM    H3G10588   2.819   1.722  10.364  0.5728  1.4584 -0.9476
  104OSM    C4F10589   2.974   1.619  10.235 -0.5108 -0.3035 -0.3390
  104OSM    H4F10590   3.064   1.555  10.235 -1.3717 -1.5856 -3.1887
  104OSM    H4G10591   2.995   1.715  10.184 -3.1508 -0.0451 -1.0333
  104OSM    C5F10592   2.870   1.542  10.151 -0.0402 -0.5875  0.7739
  104OSM    H5F10593   2.770   1.579  10.180  0.6502  0.0913  2.3428
  104OSM    H5G10594   2.868   1.436  10.184 -1.2148 -0.2865  1.6982
  104OSM    C6F10595   2.902   1.548  10.003  0.1442 -0.7583 -0.3451
  104OSM    H6F10596   2.843   1.469   9.953 -1.7437 -0.1206  0.7915
  104OSM    H6G10597   3.009   1.525   9.988  0.6216  2.0047 -1.4874
  104OSM    C7F10598   2.855   1.687   9.945  0.9094  0.9379  0.9371
  104OSM    H7F10599   2.930   1.762   9.978  0.6159  1.5341  0.2812
  104OSM    H7G10600   2.760   1.719   9.995  1.1721  3.3900 -0.0685
  104OSM    C8F10601   2.849   1.698   9.792  0.7582 -0.1618 -0.3759
  104OSM    H8F10602   2.826   1.805   9.772  2.1171  0.4816  1.4426
  104OSM    H8G10603   2.763   1.635   9.761  0.9889  0.0824 -1.5553
  104OSM    C9F10604   2.968   1.658   9.717 -0.1598 -0.1502  1.0397
  104OSM    H9F10605   3.047   1.735   9.717 -1.3657  1.1048 -0.0905
  104OSM   C10F10606   2.995   1.552   9.646  0.4421 -0.5249 -0.3834
  104OSM   H10F10607   3.095   1.544   9.600  1.6135 -3.5493  2.5199
  104OSM   C11F10608   2.908   1.423   9.631 -0.1974 -0.4283  0.8344
  104OSM   H11F10609   2.827   1.427   9.707  0.0690  2.2120  1.0244
  104OSM   H11G10610   2.977   1.340   9.658 -0.4201 -0.3357  1.6983
  104OSM   C12F10611   2.846   1.387   9.496  0.1621  0.7664  0.6266
  104OSM   H12F10612   2.766   1.458   9.468  2.6164  2.5354 -2.1643
  104OSM   H12G10613   2.798   1.287   9.507  0.3225  0.6778  0.5362
  104OSM   C13F10614   2.951   1.386   9.384  0.2155 -1.1133 -0.0718
  104OSM   H13F10615   3.037   1.317   9.397  2.2693  1.3990 -0.0517
  104OSM   H13G10616   2.980   1.493   9.394  0.2128 -0.9944 -1.2906
  104OSM   C14F10617   2.885   1.370   9.244 -0.4423  0.0114 -0.0309
  104OSM   H14F10618   2.817   1.452   9.209 -0.3191  0.8054  1.5311
  104OSM   H14G10619   2.837   1.271   9.235 -0.6444  0.0231  0.9172
  104OSM   C15F10620   2.989   1.377   9.130 -0.2375  0.3393  0.0875
  104OSM   H15F10621   3.042   1.474   9.129  1.6399 -0.6670 -1.7290
  104OSM   H15G10622   2.929   1.368   9.036 -1.8513  3.0501  0.8092
  104OSM   C16F10623   3.092   1.258   9.126  0.0681 -0.3367 -0.3033
  104OSM   H16F10624   3.044   1.158   9.127 -1.1770  0.2377 -0.8539
  104OSM   H16G10625   3.153   1.274   9.217  1.8065 -0.8354 -1.3617
  104OSM   C17F10626   3.185   1.268   9.005 -0.2949  0.4406  0.2232
  104OSM   H17F10627   3.270   1.202   9.030  0.2274  0.7862 -0.6377
  104OSM   H17G10628   3.227   1.371   8.999  1.2332 -0.1308  1.1039
  104OSM   C18F10629   3.126   1.219   8.868  0.0880  0.9170 -0.2733
  104OSM   H18F10630   3.043   1.272   8.817 -0.4787  0.8448  0.5656
  104OSM   H18G10631   3.097   1.113   8.885 -3.3350  1.5055 -2.1122
  104OSM   H18H10632   3.212   1.212   8.799  0.3823 -0.6373  0.2245
  105OSM      N10633   6.331   4.177  10.996 -1.1331  0.4341  0.2564
  105OSM    C1510634   6.423   4.099  11.081  0.2926 -0.6023  0.1428
  105OSM   H15A10635   6.386   4.132  11.176 -0.3915  2.7463 -1.2310
  105OSM   H15B10636   6.524   4.129  11.055  0.1699 -0.6808 -0.4269
  105OSM   H15C10637   6.404   3.993  11.071  0.2620 -0.8118  2.3184
  105OSM    C1410638   6.189   4.143  11.035 -0.6914  0.3826  1.0405
  105OSM   H14A10639   6.175   4.037  11.027 -0.7365  0.3388  1.6735
  105OSM   H14B10640   6.115   4.178  10.964  0.5952 -0.4041 -0.7188
  105OSM   H14C10641   6.156   4.172  11.134 -1.6120  1.6171  0.3841
  105OSM    C1310642   6.350   4.322  11.021 -0.1711 -0.3151 -0.4263
  105OSM   H13A10643   6.447   4.353  10.984  1.1775 -2.7680  0.9111
  105OSM   H13B10644   6.347   4.357  11.124  2.5478 -1.1973  0.0069
  105OSM   H13C10645   6.283   4.391  10.972 -0.9232  2.2766  3.9317
  105OSM    C1210646   6.360   4.139  10.846 -0.5151 -0.8206 -0.1860
  105OSM   H12A10647   6.442   4.197  10.807  0.3405 -1.2303  0.9643
  105OSM   H12B10648   6.272   4.163  10.787 -0.1799  0.8048 -0.0467
  105OSM    C1110649   6.385   3.997  10.814  0.1568  0.1032  0.7883
  105OSM   H11A10650   6.487   3.979  10.856  0.2101 -1.4841  0.0354
  105OSM   H11B10651   6.396   3.992  10.704  2.2601  0.8774  0.9303
  105OSM      P10652   6.285   3.765  10.825  0.0516 -0.0645 -0.1475
  105OSM    O1310653   6.418   3.707  10.849 -0.3884 -0.0431  0.5675
  105OSM    O1410654   6.179   3.700  10.897  0.5982  0.0648  0.3880
  105OSM    O1110655   6.262   3.772  10.665  0.0300  0.5076  0.7389
  105OSM    O1210656   6.289   3.916  10.869 -0.3486 -0.3968  0.4585
  105OSM    C1S10657   6.140   3.835  10.620  0.2351  0.5491  0.9125
  105OSM    H1S10658   6.143   3.945  10.633 -1.0124  0.6045  0.8229
  105OSM    H1T10659   6.044   3.792  10.657  0.9196 -0.7260  1.2052
  105OSM     NF10660   6.025   3.899  10.411 -0.1120 -0.3740 -0.1474
  105OSM    HNF10661   5.936   3.855  10.407 -0.4267  0.3251 -0.8282
  105OSM    C2S10662   6.135   3.821  10.461  0.6203 -0.2634 -0.6185
  105OSM    H2S10663   6.232   3.861  10.424  1.1059 -0.4532  0.4181
  105OSM    C3S10664   6.122   3.673  10.424  0.5374  0.4874  0.2927
  105OSM    H3S10665   6.024   3.639  10.463 -0.1741  2.5807  0.4217
  105OSM     O310666   6.224   3.594  10.480  0.5652 -0.0558  0.2262
  105OSM    HO310667   6.253   3.640  10.560  2.2025  2.3739 -1.7078
  105OSM    C4S10668   6.116   3.664  10.269  0.5680  0.2257  1.2001
  105OSM    H4S10669   6.215   3.671  10.222  0.9754  1.4183  2.2209
  105OSM    C5S10670   6.010   3.626  10.190  0.8145 -0.1857  0.9581
  105OSM    H5S10671   5.917   3.594  10.239 -0.0072  1.5320  0.5680
  105OSM    C6S10672   6.001   3.600  10.038  0.1253  0.0156 -0.7756
  105OSM    H6S10673   5.901   3.631   9.999  0.0779 -0.1155 -0.7564
  105OSM    H6T10674   5.995   3.491  10.016  1.9169 -0.1688 -0.3390
  105OSM    C7S10675   6.108   3.679   9.960 -0.0411  0.2373 -0.0330
  105OSM    H7S10676   6.210   3.653   9.996 -0.3431 -0.6578  0.2034
  105OSM    H7T10677   6.090   3.787   9.978 -1.6718  0.2956 -1.8498
  105OSM    C8S10678   6.104   3.647   9.814 -0.2310  0.1127 -0.4283
  105OSM    H8S10679   6.012   3.671   9.757  1.4004  0.4649 -2.9568
  105OSM    H8T10680   6.135   3.542   9.799  1.0237  0.6110 -1.4271
  105OSM    C9S10681   6.204   3.745   9.746  0.5951  1.0894  0.2129
  105OSM    H9S10682   6.304   3.741   9.795 -0.5062  0.2058  2.4658
  105OSM    H9T10683   6.172   3.849   9.767  1.3147  1.6425 -1.3440
  105OSM   C10S10684   6.210   3.740   9.594 -0.8254 -0.1398  0.8918
  105OSM   H10S10685   6.220   3.842   9.550 -0.3783 -0.6985 -0.3117
  105OSM   H10T10686   6.110   3.697   9.569  0.1810 -0.9899 -1.8133
  105OSM   C11S10687   6.328   3.654   9.544 -0.2105  0.5412  0.2248
  105OSM   H11S10688   6.329   3.549   9.581  0.0678  0.5234  0.1650
  105OSM   H11T10689   6.425   3.683   9.587 -0.2859 -0.5281  1.1478
  105OSM   C12S10690   6.335   3.661   9.389  0.0934 -0.7216 -0.4757
  105OSM   H12S10691   6.366   3.764   9.360 -0.6601 -0.1185  0.8391
  105OSM   H12T10692   6.235   3.643   9.344 -0.2268  0.0491 -0.0765
  105OSM   C13S10693   6.430   3.552   9.324 -0.1370  0.2583 -0.2176
  105OSM   H13S10694   6.401   3.448   9.351  0.4264 -0.1389 -1.1038
  105OSM   H13T10695   6.533   3.567   9.362 -0.5414 -2.4561  2.1048
  105OSM   C14S10696   6.428   3.569   9.172 -0.3317  0.2425 -0.0473
  105OSM   H14S10697   6.448   3.675   9.144  0.7483  0.7074  2.3266
  105OSM   H14T10698   6.325   3.544   9.140 -0.4422 -1.9380  1.9680
  105OSM   C15S10699   6.524   3.476   9.110 -0.5905  0.6080  0.0609
  105OSM   H15S10700   6.524   3.374   9.154 -1.4115  0.1538 -0.9739
  105OSM   H15T10701   6.630   3.510   9.101  0.3401 -1.8022  1.2999
  105OSM   C16S10702   6.480   3.459   8.964 -0.1024 -0.1309 -0.5616
  105OSM   H16S10703   6.475   3.557   8.911 -0.0606 -0.3586 -0.9823
  105OSM   H16T10704   6.378   3.419   8.978 -0.1329  0.4763  1.1383
  105OSM   C17S10705   6.562   3.363   8.877 -0.6951  0.4278  0.0502
  105OSM   H17S10706   6.499   3.319   8.797 -1.3263 -0.8877  1.2327
  105OSM   H17T10707   6.602   3.279   8.939 -0.2381  0.9984  0.5327
  105OSM   C18S10708   6.681   3.442   8.817 -0.2156  0.4158  0.5077
  105OSM   H18S10709   6.637   3.515   8.746  0.5973  0.5865  0.1677
  105OSM   H18T10710   6.749   3.376   8.759 -0.9433  0.8037 -0.7992
  105OSM   H18U10711   6.744   3.496   8.892  0.0980  3.1337 -1.6466
  105OSM    C1F10712   6.027   4.028  10.395  0.2126 -0.3747 -0.1009
  105OSM     OF10713   6.133   4.085  10.416  0.3808  0.0374  0.4339
  105OSM    C2F10714   5.898   4.096  10.364  0.3141 -0.3703  0.5969
  105OSM    H2F10715   5.874   4.151  10.457 -2.3567 -0.5913  0.0624
  105OSM    H2G10716   5.821   4.026  10.327 -1.4034  2.0910 -0.6485
  105OSM    C3F10717   5.917   4.189  10.250 -0.0962  0.1690  0.1222
  105OSM    H3F10718   5.998   4.260  10.277  1.0575 -0.5138 -1.4707
  105OSM    H3G10719   5.824   4.248  10.238  0.6816  1.3996  0.0246
  105OSM    C4F10720   5.946   4.117  10.122 -0.9113 -0.0689  0.1789
  105OSM    H4F10721   5.891   4.022  10.104 -2.9683  0.8021  1.6729
  105OSM    H4G10722   6.053   4.086  10.128 -0.4269  1.3729 -0.7550
  105OSM    C5F10723   5.941   4.215  10.003 -1.0249  0.4018  0.1056
  105OSM    H5F10724   6.023   4.289  10.020  0.8764 -1.5665 -0.2843
  105OSM    H5G10725   5.847   4.274  10.004 -0.5322  1.3168 -3.1099
  105OSM    C6F10726   5.962   4.138   9.870 -0.2039  0.0188 -0.1353
  105OSM    H6F10727   5.885   4.059   9.861  0.1335 -0.0934 -2.5602
  105OSM    H6G10728   6.066   4.099   9.862  0.5712  1.9444  0.3103
  105OSM    C7F10729   5.932   4.238   9.761  0.6215 -0.1369 -0.3685
  105OSM    H7F10730   5.995   4.328   9.780 -0.3971  0.0705  2.2551
  105OSM    H7G10731   5.828   4.274   9.779 -0.1987 -3.0138  0.9768
  105OSM    C8F10732   5.934   4.167   9.630 -0.2663 -0.0675  0.7471
  105OSM    H8F10733   5.882   4.229   9.554 -0.9441  1.2812  2.2902
  105OSM    H8G10734   5.874   4.074   9.632  0.9510 -0.9083 -0.2165
  105OSM    C9F10735   6.071   4.130   9.578 -0.1847  0.5837 -0.8522
  105OSM    H9F10736   6.153   4.119   9.650 -0.8252 -0.5205 -0.2915
  105OSM   C10F10737   6.097   4.085   9.455  0.3753  0.1681 -0.1887
  105OSM   H10F10738   6.199   4.065   9.419  0.4119 -0.0754  0.0492
  105OSM   C11F10739   5.990   4.062   9.345 -0.3481  0.0711 -0.6321
  105OSM   H11F10740   6.010   4.134   9.263 -0.5095  0.2479 -0.5167
  105OSM   H11G10741   5.883   4.067   9.376 -0.0462 -0.1254  0.4665
  105OSM   C12F10742   6.006   3.919   9.281  0.2645 -0.3653 -0.0971
  105OSM   H12F10743   5.919   3.919   9.211 -0.9852 -0.8843  1.4250
  105OSM   H12G10744   5.991   3.847   9.364  0.7954 -0.4500 -0.0738
  105OSM   C13F10745   6.142   3.899   9.208  0.4934  0.2143 -0.1134
  105OSM   H13F10746   6.146   3.795   9.171 -0.9382  0.6200 -1.4591
  105OSM   H13G10747   6.226   3.903   9.281 -0.3125 -3.6564  1.1437
  105OSM   C14F10748   6.147   3.989   9.077 -0.8222  0.0294  0.1675
  105OSM   H14F10749   6.178   4.092   9.106 -1.4406 -0.2596  1.9286
  105OSM   H14G10750   6.041   3.990   9.042 -1.2594  0.5323  1.4642
  105OSM   C15F10751   6.247   3.938   8.971 -0.7214 -0.0207 -0.0525
  105OSM   H15F10752   6.217   3.834   8.948 -0.4995 -0.7110  2.5555
  105OSM   H15G10753   6.345   3.937   9.025  0.3646  0.9874 -1.9445
  105OSM   C16F10754   6.260   4.038   8.855 -0.2074 -1.1152 -0.6071
  105OSM   H16F10755   6.282   4.134   8.906  2.7785 -2.3126  0.4784
  105OSM   H16G10756   6.161   4.036   8.806 -0.2087 -0.7058 -0.6229
  105OSM   C17F10757   6.388   4.003   8.780  0.9773  0.4488 -0.1258
  105OSM   H17F10758   6.477   4.019   8.845  0.2984 -0.2051  0.9860
  105OSM   H17G10759   6.393   4.065   8.688  0.5973  2.5121  1.1993
  105OSM   C18F10760   6.387   3.855   8.743 -0.3136 -0.5734  0.1316
  105OSM   H18F10761   6.286   3.818   8.716  0.4782 -1.8930 -1.0967
  105OSM   H18G10762   6.423   3.794   8.829  1.1104  0.2271  0.1289
  105OSM   H18H10763   6.448   3.830   8.653 -1.5435  1.3038 -1.2483
  106OSM      N10764   4.603   3.458  10.929  0.2183 -0.3516 -0.4128
  106OSM    C1510765   4.515   3.518  11.030 -0.5464  0.1832 -0.1404
  106OSM   H15A10766   4.455   3.597  10.987  0.9327  0.9475 -0.8747
  106OSM   H15B10767   4.580   3.576  11.094 -2.9933  2.0640  0.7148
  106OSM   H15C10768   4.459   3.445  11.086 -0.9150  0.3574 -0.2781
  106OSM    C1410769   4.701   3.376  11.007  0.3040 -0.7338 -0.0347
  106OSM   H14A10770   4.656   3.300  11.069  1.0940 -1.0187  0.1947
  106OSM   H14B10771   4.757   3.431  11.082 -0.0949  0.0876 -0.3306
  106OSM   H14C10772   4.776   3.335  10.940  1.0759 -0.4651  0.6523
  106OSM    C1310773   4.521   3.379  10.831 -0.3941  0.1385  1.1447
  106OSM   H13A10774   4.586   3.348  10.751  1.0778 -1.1054  2.7748
  106OSM   H13B10775   4.433   3.435  10.802 -0.9990 -0.3827  1.9488
  106OSM   H13C10776   4.480   3.292  10.880  0.9675 -0.1716  1.7765
  106OSM    C1210777   4.676   3.570  10.865 -0.1612  0.2933 -0.0880
  106OSM   H12A10778   4.726   3.627  10.942 -0.9261  0.1380  0.5301
  106OSM   H12B10779   4.602   3.629  10.813 -2.3596 -0.5914  1.9576
  106OSM    C1110780   4.789   3.531  10.759  0.6018 -0.4087  0.3033
  106OSM   H11A10781   4.820   3.621  10.702 -2.7107 -0.2562 -1.3714
  106OSM   H11B10782   4.752   3.460  10.681 -0.0063  0.3681 -0.1230
  106OSM      P10783   5.009   3.548  10.885 -0.1320  0.4351  0.1181
  106OSM    O1310784   4.943   3.655  10.965  0.6797  0.1900 -0.2669
  106OSM    O1410785   5.086   3.452  10.967 -0.0482  0.0518  0.3701
  106OSM    O1110786   5.086   3.611  10.767  0.2925 -0.5147  0.1710
  106OSM    O1210787   4.895   3.460  10.815 -0.0823 -0.1310 -0.5897
  106OSM    C1S10788   5.125   3.568  10.637  0.8057  0.7839  0.0594
  106OSM    H1S10789   5.089   3.463  10.626 -0.8163  1.3309  0.0470
  106OSM    H1T10790   5.235   3.565  10.621  0.4729 -1.7455 -2.3659
  106OSM     NF10791   5.070   3.591  10.394  0.3790 -0.0570 -0.6451
  106OSM    HNF10792   5.135   3.639  10.337 -0.3977  3.3830  1.1715
  106OSM    C2S10793   5.059   3.654  10.527 -0.4191  1.1390 -0.4077
  106OSM    H2S10794   4.953   3.665  10.556  0.3553  0.1885  3.0199
  106OSM    C3S10795   5.122   3.800  10.524 -0.4610 -0.0984  0.1679
  106OSM    H3S10796   5.226   3.788  10.489 -0.4726  1.7905 -0.5558
  106OSM     O310797   5.124   3.867  10.647 -0.8316  0.0047  0.4741
  106OSM    HO310798   5.088   3.808  10.713 -0.2369 -1.0417 -0.1329
  106OSM    C4S10799   5.042   3.873  10.423 -0.1343 -0.1948 -0.6320
  106OSM    H4S10800   4.935   3.875  10.448 -0.0532  0.1880 -0.3135
  106OSM    C5S10801   5.085   3.955  10.321  0.4932  0.8311 -0.8572
  106OSM    H5S10802   5.193   3.963  10.303  0.6244  0.1725 -0.3655
  106OSM    C6S10803   4.995   4.027  10.223  0.6443  0.7055 -0.2801
  106OSM    H6S10804   5.035   4.130  10.210 -1.3976  1.3438 -1.6879
  106OSM    H6T10805   4.892   4.027  10.264  1.2760 -2.1481  1.4949
  106OSM    C7S10806   4.984   3.946  10.087  0.5654 -0.3841 -0.1828
  106OSM    H7S10807   4.886   3.965  10.038  1.0089  0.7619 -0.6407
  106OSM    H7T10808   4.988   3.838  10.110 -1.0928 -0.5184 -0.4205
  106OSM    C8S10809   5.107   3.982   9.997 -0.2598 -0.0176 -0.3078
  106OSM    H8S10810   5.200   3.945  10.045  0.7307  2.7726 -0.0272
  106OSM    H8T10811   5.112   4.091   9.980 -1.1112 -0.3119 -2.6694
  106OSM    C9S10812   5.100   3.920   9.859  0.1725 -0.4658  0.0142
  106OSM    H9S10813   5.087   3.810   9.867  0.4147 -0.5651 -0.8934
  106OSM    H9T10814   5.200   3.944   9.817  1.1212 -1.5445  1.6205
  106OSM   C10S10815   4.986   3.964   9.765 -0.2228 -0.0661  0.1300
  106OSM   H10S10816   4.985   4.075   9.768 -0.0424 -0.0127 -1.3984
  106OSM   H10T10817   4.883   3.942   9.801 -0.6960  5.2667  2.4476
  106OSM   C11S10818   5.005   3.929   9.614  0.1602  0.3469 -0.0957
  106OSM   H11S10819   5.054   3.829   9.623  2.2388  1.4116  0.8089
  106OSM   H11T10820   5.086   3.995   9.575 -0.4955  0.6125 -1.0311
  106OSM   C12S10821   4.877   3.926   9.529  0.3190  1.2205  0.7846
  106OSM   H12S10822   4.834   4.028   9.513 -0.5491  0.7699  0.2212
  106OSM   H12T10823   4.797   3.870   9.581  1.5629 -0.6531  0.7277
  106OSM   C13S10824   4.894   3.862   9.388  0.1458 -0.1583  0.3344
  106OSM   H13S10825   4.917   3.754   9.401  0.9996  0.0729  0.7867
  106OSM   H13T10826   4.977   3.915   9.335  0.3698 -1.6624 -0.8594
  106OSM   C14S10827   4.777   3.884   9.298  0.0181 -0.1789 -0.3519
  106OSM   H14S10828   4.739   3.983   9.331  0.6162 -0.4984  1.3142
  106OSM   H14T10829   4.696   3.817   9.332 -0.5701  1.6908  2.1072
  106OSM   C15S10830   4.805   3.860   9.141 -0.2359 -0.1554 -0.4375
  106OSM   H15S10831   4.880   3.935   9.108 -1.5632  0.6209 -1.7440
  106OSM   H15T10832   4.711   3.891   9.091 -0.8445  0.5959  1.1522
  106OSM   C16S10833   4.839   3.711   9.099  0.4370  0.2128  0.0939
  106OSM   H16S10834   4.762   3.640   9.135 -1.3114  2.7860  1.5910
  106OSM   H16T10835   4.934   3.692   9.153  0.9323 -0.1181 -0.8993
  106OSM   C17S10836   4.875   3.700   8.951 -0.1503 -0.1668  0.3367
  106OSM   H17S10837   4.802   3.763   8.895 -0.2120 -0.8569 -0.3687
  106OSM   H17T10838   4.851   3.598   8.913  0.5493 -0.7646  1.4975
  106OSM   C18S10839   5.010   3.735   8.904 -0.9289  0.3439 -0.3772
  106OSM   H18S10840   5.066   3.640   8.896 -2.0531 -0.4642  1.0855
  106OSM   H18T10841   5.062   3.800   8.977 -0.4502 -0.0133 -0.3945
  106OSM   H18U10842   5.007   3.792   8.808 -0.6829  0.6661 -0.1941
  106OSM    C1F10843   5.028   3.472  10.369 -0.6705  0.2917  0.0826
  106OSM     OF10844   4.944   3.420  10.438  0.8030  0.6937 -0.4814
  106OSM    C2F10845   5.083   3.407  10.247 -0.1105 -0.7507 -0.4797
  106OSM    H2F10846   5.077   3.298  10.263 -1.5357 -0.3264  2.0313
  106OSM    H2G10847   5.191   3.430  10.235 -0.2824 -1.4805 -4.0017
  106OSM    C3F10848   5.015   3.449  10.113 -0.3819  0.2629  0.4810
  106OSM    H3F10849   5.045   3.550  10.080  2.1728 -0.7720 -0.4500
  106OSM    H3G10850   4.904   3.454  10.123 -0.3850  2.3856 -0.5289
  106OSM    C4F10851   5.060   3.377   9.986 -0.6021  0.1335 -0.6037
  106OSM    H4F10852   5.023   3.273   9.999 -1.6726  0.3876 -1.5472
  106OSM    H4G10853   5.170   3.369   9.974 -0.9343 -1.7967 -2.7987
  106OSM    C5F10854   4.998   3.438   9.855 -0.2904  0.2474 -0.1921
  106OSM    H5F10855   5.034   3.543   9.849  3.6963 -0.6637  4.2384
  106OSM    H5G10856   4.888   3.444   9.869 -0.2247 -0.8783  0.8564
  106OSM    C6F10857   5.034   3.352   9.739  0.0053  0.6434  0.2367
  106OSM    H6F10858   4.981   3.256   9.752  0.7060  0.1304 -0.6577
  106OSM    H6G10859   5.144   3.334   9.732 -0.3130 -0.6072 -1.6256
  106OSM    C7F10860   4.993   3.424   9.605 -0.2574 -0.5758  0.1903
  106OSM    H7F10861   5.038   3.525   9.600 -0.7117 -0.3043  1.3268
  106OSM    H7G10862   4.883   3.432   9.614  0.1007  3.8483  2.0304
  106OSM    C8F10863   5.047   3.341   9.486 -0.3308 -0.5095 -0.0054
  106OSM    H8F10864   4.993   3.244   9.484 -1.5200  0.1523 -0.4980
  106OSM    H8G10865   5.153   3.322   9.516  0.1982  0.7629 -1.0395
  106OSM    C9F10866   5.037   3.390   9.347 -0.1846 -0.2124  0.2695
  106OSM    H9F10867   4.964   3.472   9.349  0.1015  0.0396  0.3903
  106OSM   C10F10868   5.100   3.349   9.239  0.0625  0.2512  0.5416
  106OSM   H10F10869   5.083   3.405   9.147 -0.3019 -0.6808  0.0366
  106OSM   C11F10870   5.208   3.244   9.231  0.6107 -0.0020 -1.0145
  106OSM   H11F10871   5.215   3.172   9.315  1.3295  0.3255 -0.7831
  106OSM   H11G10872   5.303   3.301   9.239  0.2997  0.5517 -1.2166
  106OSM   C12F10873   5.197   3.157   9.113 -0.4030  0.2485 -0.3566
  106OSM   H12F10874   5.095   3.113   9.107 -1.2022  2.1732 -1.0759
  106OSM   H12G10875   5.269   3.073   9.123  2.2457  2.3624 -1.2989
  106OSM   C13F10876   5.218   3.223   8.973  0.6430 -0.3873 -0.5674
  106OSM   H13F10877   5.136   3.297   8.968 -1.1385 -2.1607  1.5861
  106OSM   H13G10878   5.201   3.144   8.896 -1.9980 -0.2684 -0.1572
  106OSM   C14F10879   5.367   3.278   8.955 -0.0577 -0.6478  0.3351
  106OSM   H14F10880   5.427   3.187   8.976 -2.4704 -2.2671  0.4754
  106OSM   H14G10881   5.395   3.355   9.029  1.8904 -1.4720  0.4796
  106OSM   C15F10882   5.386   3.351   8.822 -0.5120 -0.5045  0.0424
  106OSM   H15F10883   5.391   3.270   8.747  2.6828  0.9760 -1.4278
  106OSM   H15G10884   5.485   3.400   8.830 -0.5032  0.0275 -2.8035
  106OSM   C16F10885   5.277   3.456   8.787 -0.9871 -1.1915  0.2776
  106OSM   H16F10886   5.287   3.539   8.860  1.8461  0.7968 -2.2551
  106OSM   H16G10887   5.182   3.401   8.806 -3.2134  2.6903  1.0794
  106OSM   C17F10888   5.300   3.513   8.645  0.2474  0.2211  0.2615
  106OSM   H17F10889   5.323   3.432   8.572 -2.9654  0.7159 -1.4139
  106OSM   H17G10890   5.382   3.587   8.658 -0.5040  1.0936  0.0656
  106OSM   C18F10891   5.183   3.585   8.580 -0.4735  0.6315 -0.1314
  106OSM   H18F10892   5.203   3.645   8.488 -1.3177 -1.4129 -1.6648
  106OSM   H18G10893   5.126   3.649   8.652 -0.7267  0.8819 -0.5474
  106OSM   H18H10894   5.112   3.503   8.555 -2.0711  1.5704  1.2078
  107OSM      N10895   0.622   1.353  10.829 -0.1068 -0.3912  0.3436
  107OSM    C1510896   0.496   1.404  10.757 -0.6190  0.0974 -0.0042
  107OSM   H15A10897   0.521   1.419  10.653  0.2103 -0.4649  0.1106
  107OSM   H15B10898   0.466   1.497  10.802 -1.8962 -0.5345  0.4544
  107OSM   H15C10899   0.413   1.336  10.758 -0.0041 -0.6595 -0.3264
  107OSM    C1410900   0.591   1.313  10.970  0.1346 -0.1333  0.1401
  107OSM   H14A10901   0.538   1.392  11.021 -0.2112  1.9124 -3.2067
  107OSM   H14B10902   0.676   1.298  11.034 -3.2460 -3.3049  4.1553
  107OSM   H14C10903   0.516   1.235  10.974  0.8069 -0.8161 -0.3365
  107OSM    C1310904   0.684   1.228  10.757  0.1420 -0.1612  0.0275
  107OSM   H13A10905   0.658   1.243  10.653  2.7413  3.0534 -0.2274
  107OSM   H13B10906   0.636   1.136  10.788  1.4797 -0.8354  0.1141
  107OSM   H13C10907   0.790   1.216  10.770  0.0243 -1.6237 -0.2946
  107OSM    C1210908   0.729   1.459  10.836  0.0099  0.1963 -0.3818
  107OSM   H12A10909   0.674   1.549  10.857  1.9878  1.3992 -0.3407
  107OSM   H12B10910   0.768   1.472  10.736 -0.4067  0.2988 -0.5331
  107OSM    C1110911   0.854   1.446  10.921 -0.6837  0.3787 -0.9725
  107OSM   H11A10912   0.814   1.436  11.025  0.3527 -0.5745 -0.6541
  107OSM   H11B10913   0.899   1.547  10.917 -0.8632  0.5350  0.4191
  107OSM      P10914   1.068   1.360  10.803  0.2481  0.2035  0.0318
  107OSM    O1310915   1.181   1.405  10.879 -0.2425  0.1554  0.3627
  107OSM    O1410916   1.086   1.237  10.725  0.5016 -0.1562  0.5286
  107OSM    O1110917   1.027   1.481  10.702 -0.2387 -0.4350 -0.0237
  107OSM    O1210918   0.940   1.340  10.889  0.0177 -1.0118  0.1986
  107OSM    C1S10919   1.129   1.545  10.616 -0.2197  0.1338  0.0451
  107OSM    H1S10920   1.234   1.525  10.647 -0.1235  0.2050 -0.2332
  107OSM    H1T10921   1.120   1.654  10.634 -0.9408  0.4916 -2.2747
  107OSM     NF10922   1.237   1.575  10.392 -0.0714 -0.4113 -0.2873
  107OSM    HNF10923   1.265   1.669  10.371 -1.1100  0.2544  1.2616
  107OSM    C2S10924   1.116   1.535  10.457 -1.0181  0.1627 -0.4053
  107OSM    H2S10925   1.100   1.428  10.431  1.6116  0.0901 -1.9439
  107OSM    C3S10926   0.993   1.628  10.429  0.4233 -0.2084 -0.0810
  107OSM    H3S10927   1.030   1.727  10.463 -1.4856  0.4387  0.1418
  107OSM     O310928   0.880   1.596  10.506  0.3608 -0.5784  0.0314
  107OSM    HO310929   0.912   1.547  10.582 -0.7341 -1.3294  0.0150
  107OSM    C4S10930   0.952   1.630  10.283  0.3888 -0.4218  0.1305
  107OSM    H4S10931   1.014   1.697  10.222 -0.2406 -0.7536 -0.8850
  107OSM    C5S10932   0.859   1.563  10.212  0.2199  0.4860  1.0505
  107OSM    H5S10933   0.793   1.493  10.266  0.8014 -0.3547  0.6971
  107OSM    C6S10934   0.844   1.571  10.065 -0.0629  0.5851  0.2360
  107OSM    H6S10935   0.922   1.638  10.024  1.7811 -1.7101 -0.0446
  107OSM    H6T10936   0.750   1.630  10.056 -0.9651 -0.8982 -0.2314
  107OSM    C7S10937   0.841   1.433   9.988  0.2849  0.4304  0.0107
  107OSM    H7S10938   0.755   1.374  10.026  1.3027 -0.9662  0.1989
  107OSM    H7T10939   0.925   1.371  10.026 -0.7629  0.2032  2.0075
  107OSM    C8S10940   0.825   1.447   9.836  0.0409  0.3151 -0.5961
  107OSM    H8S10941   0.930   1.454   9.799  1.0638 -0.1760  2.0275
  107OSM    H8T10942   0.769   1.532   9.793  1.1224  1.8309  0.9402
  107OSM    C9S10943   0.768   1.322   9.758 -0.9943  0.6214 -0.7669
  107OSM    H9S10944   0.664   1.300   9.791 -0.0799  0.9345  2.5611
  107OSM    H9T10945   0.829   1.235   9.789 -0.1918  1.0616 -1.0969
  107OSM   C10S10946   0.793   1.339   9.606  0.0743 -0.0549 -0.3049
  107OSM   H10S10947   0.901   1.343   9.581  0.1744 -2.5748 -0.4122
  107OSM   H10T10948   0.758   1.443   9.589 -0.6721 -0.0371  1.2807
  107OSM   C11S10949   0.719   1.251   9.508  0.0325 -0.4784  0.3424
  107OSM   H11S10950   0.742   1.280   9.403  0.1148  3.2942  1.3146
  107OSM   H11T10951   0.610   1.273   9.512  0.0552  0.7448 -3.2541
  107OSM   C12S10952   0.751   1.105   9.526 -0.2911  0.3021 -0.0611
  107OSM   H12S10953   0.699   1.066   9.616 -1.6001  1.6441 -0.2249
  107OSM   H12T10954   0.862   1.095   9.531 -0.1768  2.4255  2.8368
  107OSM   C13S10955   0.694   1.022   9.410 -0.2528 -0.5931  0.1060
  107OSM   H13S10956   0.746   1.051   9.316 -0.2342 -1.3853 -0.1365
  107OSM   H13T10957   0.586   1.050   9.407 -0.2777 -0.7524 -0.8353
  107OSM   C14S10958   0.692   0.872   9.443  0.8657  0.0155  0.0030
  107OSM   H14S10959   0.616   0.863   9.523 -1.0128 -2.0068 -1.9348
  107OSM   H14T10960   0.783   0.840   9.498  0.8899 -1.2807 -0.7813
  107OSM   C15S10961   0.649   0.777   9.326 -0.8655  0.1941  0.2377
  107OSM   H15S10962   0.551   0.809   9.284 -0.4642  0.9127 -0.1697
  107OSM   H15T10963   0.653   0.678   9.376 -0.4339  0.1707  0.1557
  107OSM   C16S10964   0.745   0.779   9.204 -0.1910 -0.6156  0.7234
  107OSM   H16S10965   0.732   0.879   9.158  1.1606 -1.0346 -0.6362
  107OSM   H16T10966   0.712   0.701   9.131 -0.3970 -0.3230  0.5018
  107OSM   C17S10967   0.890   0.753   9.237 -0.0519  0.3602  0.6960
  107OSM   H17S10968   0.890   0.659   9.296  1.9689  1.1548  2.0124
  107OSM   H17T10969   0.927   0.836   9.302 -0.7379  1.6826 -0.5635
  107OSM   C18S10970   0.977   0.741   9.116  0.0761  0.9134 -0.4441
  107OSM   H18S10971   0.982   0.837   9.059 -0.7716 -0.5074 -2.9583
  107OSM   H18T10972   0.943   0.660   9.048  1.8884 -0.2986  0.0620
  107OSM   H18U10973   1.083   0.718   9.139  0.3455  1.7175 -0.8510
  107OSM    C1F10974   1.341   1.497  10.398  0.3351 -0.4489 -1.1853
  107OSM     OF10975   1.330   1.373  10.420 -0.2118 -0.1042  0.0158
  107OSM    C2F10976   1.473   1.559  10.391 -0.5659 -0.8898 -0.1549
  107OSM    H2F10977   1.495   1.603  10.491 -0.4297  0.9055 -0.9541
  107OSM    H2G10978   1.478   1.640  10.315 -0.7059 -2.2149 -1.6178
  107OSM    C3F10979   1.582   1.466  10.332  0.2917 -0.8065  0.0900
  107OSM    H3F10980   1.580   1.369  10.386  0.5476 -1.0452 -0.3306
  107OSM    H3G10981   1.681   1.515  10.344  0.9555 -1.3646 -2.8383
  107OSM    C4F10982   1.554   1.430  10.186  0.1056  0.1032  0.1850
  107OSM    H4F10983   1.516   1.524  10.142 -2.2856 -0.8572  0.1591
  107OSM    H4G10984   1.469   1.361  10.171 -0.4387  0.6345  0.8086
  107OSM    C5F10985   1.677   1.374  10.106 -0.7282 -0.0585  0.2530
  107OSM    H5F10986   1.703   1.279  10.158 -0.6676  0.7969  1.8198
  107OSM    H5G10987   1.760   1.447  10.116  0.4653 -1.1969 -1.0887
  107OSM    C6F10988   1.646   1.336   9.962 -0.3001 -0.4038 -0.2983
  107OSM    H6F10989   1.616   1.429   9.908  1.1527  0.4636  0.3553
  107OSM    H6G10990   1.555   1.274   9.975  0.2172 -1.2411 -0.6636
  107OSM    C7F10991   1.761   1.254   9.903 -0.6580  0.2106 -1.2236
  107OSM    H7F10992   1.786   1.183   9.985 -1.1426  1.0957 -0.2961
  107OSM    H7G10993   1.850   1.318   9.889 -0.4467  0.6869  1.9482
  107OSM    C8F10994   1.716   1.187   9.774  0.4954 -0.5819 -0.1945
  107OSM    H8F10995   1.647   1.107   9.809 -0.1945  0.0324 -0.1358
  107OSM    H8G10996   1.802   1.129   9.736  1.6497  2.3238 -2.1893
  107OSM    C9F10997   1.665   1.277   9.666 -0.1331  0.1557  0.7834
  107OSM    H9F10998   1.588   1.347   9.700 -2.1165 -1.2120 -0.7620
  107OSM   C10F10999   1.710   1.273   9.538 -0.8817 -0.1369  0.5238
  107OSM   H10F11000   1.671   1.351   9.471 -1.0406  0.0739  0.8593
  107OSM   C11F11001   1.812   1.176   9.484  0.2009  0.3223  0.0794
  107OSM   H11F11002   1.801   1.070   9.515 -1.5982 -0.4276 -2.8519
  107OSM   H11G11003   1.920   1.195   9.502  0.1773 -0.0025  0.5705
  107OSM   C12F11004   1.787   1.160   9.333  0.2094  0.0777  0.0087
  107OSM   H12F11005   1.783   1.259   9.283  0.9001  0.3755  0.5426
  107OSM   H12G11006   1.680   1.130   9.330  0.2748 -0.2663  1.0906
  107OSM   C13F11007   1.872   1.049   9.265  0.5257  0.1769  1.2788
  107OSM   H13F11008   1.872   0.954   9.322  0.5817  0.0244  1.0237
  107OSM   H13G11009   1.978   1.084   9.262  0.7429 -0.5470  0.3471
  107OSM   C14F11010   1.829   1.023   9.125  0.0473 -0.1693  0.3201
  107OSM   H14F11011   1.869   1.103   9.060  0.8910  0.6230  1.7862
  107OSM   H14G11012   1.720   1.013   9.106  0.3238  0.2355 -1.5416
  107OSM   C15F11013   1.878   0.894   9.056 -1.3364 -0.0032 -0.1182
  107OSM   H15F11014   1.831   0.803   9.100 -2.1954  0.2971 -0.4094
  107OSM   H15G11015   1.988   0.879   9.071 -1.2504  1.9844  1.4435
  107OSM   C16F11016   1.854   0.894   8.902  0.8992  0.0981  0.6500
  107OSM   H16F11017   1.887   0.993   8.863  0.4203  0.8549  2.1286
  107OSM   H16G11018   1.744   0.903   8.891  1.0582  1.3111 -0.1259
  107OSM   C17F11019   1.914   0.770   8.826  0.6050  0.4502 -0.0684
  107OSM   H17F11020   1.906   0.783   8.716 -1.2386  1.4953  0.1658
  107OSM   H17G11021   1.857   0.678   8.852  1.4596 -0.0806 -0.0374
  107OSM   C18F11022   2.058   0.734   8.850  0.3347 -0.0843  0.1421
  107OSM   H18F11023   2.116   0.824   8.882 -0.9728  0.6345  0.5628
  107OSM   H18G11024   2.109   0.699   8.758  0.4386  0.9006 -0.1809
  107OSM   H18H11025   2.073   0.651   8.923  2.4046  2.0466  2.2535
  108OSM      N11026   5.032   2.135  10.630  0.0892 -0.3467 -0.0963
  108OSM    C1511027   5.181   2.120  10.621  0.7450  0.4082  0.2676
  108OSM   H15A11028   5.212   2.059  10.537 -0.2421 -1.7917  1.4427
  108OSM   H15B11029   5.225   2.077  10.710 -1.2960  1.1499  1.6525
  108OSM   H15C11030   5.231   2.215  10.611  0.4527  0.4499 -0.7967
  108OSM    C1411031   4.978   2.000  10.637 -0.2288  0.7024  0.3552
  108OSM   H14A11032   5.004   1.946  10.727 -1.3158  2.1778  1.5873
  108OSM   H14B11033   5.010   1.944  10.550 -0.4360  1.1343 -0.0006
  108OSM   H14C11034   4.870   2.003  10.638 -0.4950 -4.2057 -0.7789
  108OSM    C1311035   5.008   2.218  10.753  0.0741 -0.0290  0.4110
  108OSM   H13A11036   5.022   2.323  10.735 -0.9119  0.2887  1.4192
  108OSM   H13B11037   5.062   2.181  10.840 -0.0954  0.5897  0.7810
  108OSM   H13C11038   4.902   2.215  10.771 -0.0363  0.9188 -0.0945
  108OSM    C1211039   4.973   2.190  10.504 -0.5697 -0.1694  0.2744
  108OSM   H12A11040   5.018   2.149  10.415 -2.8466  4.2193 -3.1016
  108OSM   H12B11041   4.995   2.296  10.496  3.1552 -0.6364  2.9363
  108OSM    C1111042   4.817   2.197  10.487 -0.1025 -0.6589 -0.1363
  108OSM   H11A11043   4.776   2.095  10.502 -0.4037 -0.4474  0.4863
  108OSM   H11B11044   4.792   2.238  10.387  0.9939 -4.1457 -1.9013
  108OSM      P11045   4.770   2.439  10.589 -0.1187 -0.1942  0.3354
  108OSM    O1311046   4.697   2.495  10.706  0.4366  0.6695 -0.2352
  108OSM    O1411047   4.912   2.472  10.567  0.1236 -0.0070  0.5197
  108OSM    O1111048   4.691   2.484  10.467  0.3791  0.8721 -0.4046
  108OSM    O1211049   4.758   2.280  10.590 -0.1120 -0.2343 -0.5042
  108OSM    C1S11050   4.560   2.552  10.477  0.0101 -0.4232 -0.0843
  108OSM    H1S11051   4.578   2.660  10.492  0.9675 -0.4090 -1.2612
  108OSM    H1T11052   4.491   2.504  10.549  0.0245 -0.6604 -0.2279
  108OSM     NF11053   4.381   2.638  10.332  0.1411  0.5582  0.2992
  108OSM    HNF11054   4.297   2.606  10.375  1.3260  1.7653  3.6593
  108OSM    C2S11055   4.498   2.549  10.336  0.2726  0.2992 -0.2559
  108OSM    H2S11056   4.568   2.583  10.257 -1.3387  0.2894 -1.7410
  108OSM    C3S11057   4.456   2.408  10.295  0.1085 -0.1238  0.7114
  108OSM    H3S11058   4.372   2.378  10.362  0.2055 -1.2052  0.3466
  108OSM     O311059   4.565   2.321  10.310  0.4939 -0.0016  0.1779
  108OSM    HO311060   4.633   2.368  10.359 -1.1395  0.1281  2.3724
  108OSM    C4S11061   4.409   2.423  10.151 -0.1117  0.6860  0.2916
  108OSM    H4S11062   4.487   2.452  10.078  0.7312 -0.1705  0.8385
  108OSM    C5S11063   4.284   2.398  10.110 -0.1438 -0.5737  0.4561
  108OSM    H5S11064   4.213   2.372  10.190  1.1839 -0.6895  1.6378
  108OSM    C6S11065   4.233   2.423   9.969  0.1667  0.4209 -0.1678
  108OSM    H6S11066   4.186   2.524   9.965  2.1135  1.4642  1.8959
  108OSM    H6T11067   4.153   2.346   9.964  0.6430 -0.1120  0.2785
  108OSM    C7S11068   4.331   2.399   9.853 -0.1977  0.2576 -0.1669
  108OSM    H7S11069   4.392   2.306   9.858 -1.3538 -0.4824  0.4824
  108OSM    H7T11070   4.403   2.483   9.856 -1.0329  0.9566  0.8071
  108OSM    C8S11071   4.265   2.416   9.717  0.4970  0.0648 -0.1926
  108OSM    H8S11072   4.246   2.525   9.707 -0.2829 -0.0614 -0.1755
  108OSM    H8T11073   4.161   2.378   9.724  0.8247 -0.9847 -0.9679
  108OSM    C9S11074   4.327   2.346   9.597  0.5677 -1.0946  0.1534
  108OSM    H9S11075   4.375   2.249   9.621  2.1854  0.0182  1.5166
  108OSM    H9T11076   4.418   2.406   9.577  2.4028 -3.3460  1.5346
  108OSM   C10S11077   4.233   2.347   9.478  0.1733  0.3701  0.4259
  108OSM   H10S11078   4.225   2.457   9.467  1.3941  0.3532 -0.8228
  108OSM   H10T11079   4.136   2.296   9.495 -0.2488  0.9268 -0.2867
  108OSM   C11S11080   4.296   2.291   9.348  1.1409  0.0484 -0.0008
  108OSM   H11S11081   4.257   2.188   9.333 -0.3965  0.4012  1.4649
  108OSM   H11T11082   4.407   2.300   9.350  0.9688  2.3407  1.0953
  108OSM   C12S11083   4.244   2.360   9.221 -0.0814 -0.2215 -0.1425
  108OSM   H12S11084   4.242   2.470   9.239 -0.8238 -0.1689 -0.5289
  108OSM   H12T11085   4.144   2.324   9.188 -0.0985  0.6250 -1.0693
  108OSM   C13S11086   4.343   2.340   9.110 -0.0480  1.1866 -0.0213
  108OSM   H13S11087   4.371   2.233   9.107 -1.3326  0.8334  0.0184
  108OSM   H13T11088   4.441   2.386   9.133  0.2286  0.2153  0.8209
  108OSM   C14S11089   4.299   2.395   8.982 -0.2958 -1.2965  0.2214
  108OSM   H14S11090   4.259   2.497   9.001 -0.1987 -1.3207  0.5546
  108OSM   H14T11091   4.211   2.332   8.958 -0.0254 -1.3276 -0.7079
  108OSM   C15S11092   4.409   2.404   8.872  0.5723 -0.5006 -0.7438
  108OSM   H15S11093   4.474   2.315   8.887  0.5606 -0.6210 -1.3903
  108OSM   H15T11094   4.473   2.494   8.884  0.1499 -0.2927 -0.0394
  108OSM   C16S11095   4.352   2.407   8.730 -0.0361  0.0288 -0.3960
  108OSM   H16S11096   4.288   2.496   8.745  1.1417  0.7521  0.4775
  108OSM   H16T11097   4.288   2.321   8.701 -1.2629  1.3111 -1.5789
  108OSM   C17S11098   4.468   2.419   8.622 -0.0718 -0.5005 -0.0239
  108OSM   H17S11099   4.530   2.329   8.637 -2.2094 -1.7880  1.3720
  108OSM   H17T11100   4.526   2.513   8.632 -0.9936  0.1093 -0.2543
  108OSM   C18S11101   4.421   2.428   8.474 -0.1127  0.0828 -0.6490
  108OSM   H18S11102   4.363   2.344   8.429  3.4599 -1.8202 -1.8925
  108OSM   H18T11103   4.509   2.441   8.408  2.3244 -0.6165  2.3376
  108OSM   H18U11104   4.352   2.515   8.472 -2.1225 -1.4820 -1.3222
  108OSM    C1F11105   4.408   2.769  10.300  0.5019 -0.1384 -0.3171
  108OSM     OF11106   4.523   2.815  10.296 -0.0036 -0.2230 -0.1184
  108OSM    C2F11107   4.290   2.867  10.289 -1.4839  0.4766  0.5591
  108OSM    H2F11108   4.312   2.950  10.359 -2.3336  0.5371  0.7616
  108OSM    H2G11109   4.199   2.806  10.309 -0.9059 -1.2487 -1.8383
  108OSM    C3F11110   4.264   2.948  10.163  0.1410  0.0959 -0.2630
  108OSM    H3F11111   4.357   2.993  10.122  0.9086  1.0072  2.3364
  108OSM    H3G11112   4.199   3.031  10.197 -0.0277  0.2360 -0.9203
  108OSM    C4F11113   4.206   2.852  10.055  0.1087  0.0498  0.7714
  108OSM    H4F11114   4.117   2.804  10.101 -0.0802 -1.2357 -0.9010
  108OSM    H4G11115   4.272   2.768  10.026 -0.2975  0.0521 -0.2080
  108OSM    C5F11116   4.159   2.926   9.925  0.1589  0.2433  0.2794
  108OSM    H5F11117   4.247   2.981   9.887 -0.8950  0.7404 -1.4632
  108OSM    H5G11118   4.078   2.998   9.952 -0.9281 -0.2863 -1.5387
  108OSM    C6F11119   4.116   2.834   9.815  1.3317 -0.0624  0.2038
  108OSM    H6F11120   4.015   2.800   9.847  1.1391 -0.8081 -1.1682
  108OSM    H6G11121   4.182   2.745   9.818  0.9892 -0.2856  1.4596
  108OSM    C7F11122   4.116   2.916   9.679 -0.3660 -0.7759  0.1888
  108OSM    H7F11123   4.217   2.954   9.654 -1.0342  1.8259  1.3042
  108OSM    H7G11124   4.060   3.012   9.685 -0.9845 -1.1746  0.8999
  108OSM    C8F11125   4.073   2.828   9.556 -0.1348  0.0371 -0.0190
  108OSM    H8F11126   3.966   2.801   9.573 -0.4002  1.4086  0.6202
  108OSM    H8G11127   4.123   2.730   9.552 -1.3499 -0.5882 -0.2786
  108OSM    C9F11128   4.078   2.901   9.433  0.3674 -0.1853 -0.3087
  108OSM    H9F11129   4.108   3.007   9.441  0.2523 -0.0989 -1.0269
  108OSM   C10F11130   4.056   2.846   9.313  0.1401 -0.7658 -0.2558
  108OSM   H10F11131   4.053   2.914   9.227 -0.3972  2.5287  2.2863
  108OSM   C11F11132   4.010   2.711   9.266  1.1142 -0.4684 -0.5757
  108OSM   H11F11133   3.905   2.700   9.301  0.9007  0.6472 -0.8435
  108OSM   H11G11134   4.070   2.640   9.327  1.2880  0.2060  0.0570
  108OSM   C12F11135   4.015   2.716   9.118 -0.5204  0.0721 -0.1447
  108OSM   H12F11136   4.012   2.611   9.082  1.7821 -0.4768  1.1547
  108OSM   H12G11137   4.116   2.748   9.086 -1.6463  3.0149 -0.9301
  108OSM   C13F11138   3.898   2.795   9.063 -0.7722 -0.1737  0.2042
  108OSM   H13F11139   3.912   2.905   9.072  0.2072 -0.3279  0.5375
  108OSM   H13G11140   3.812   2.766   9.128 -0.3130 -1.3896  0.2678
  108OSM   C14F11141   3.856   2.769   8.920 -0.4225 -0.2573  0.9431
  108OSM   H14F11142   3.821   2.664   8.911  0.9292 -0.5607 -1.1127
  108OSM   H14G11143   3.943   2.772   8.852 -1.5534  1.3402 -0.4498
  108OSM   C15F11144   3.749   2.868   8.876  0.1065 -0.2874  0.2698
  108OSM   H15F11145   3.788   2.972   8.875 -0.7191  0.0230 -2.8476
  108OSM   H15G11146   3.664   2.870   8.948 -2.6661 -1.2445 -2.8717
  108OSM   C16F11147   3.691   2.825   8.736  0.2020 -0.1262  0.1740
  108OSM   H16F11148   3.633   2.733   8.759 -2.1147  0.5177 -2.7997
  108OSM   H16G11149   3.772   2.801   8.663 -0.3923 -1.4490 -0.0631
  108OSM   C17F11150   3.596   2.929   8.663  0.7711  0.1395 -0.4664
  108OSM   H17F11151   3.520   2.951   8.741  0.0655 -2.5249 -0.3562
  108OSM   H17G11152   3.553   2.864   8.584 -1.9294  0.7391  0.4543
  108OSM   C18F11153   3.668   3.064   8.612 -0.2824  0.3021  0.0633
  108OSM   H18F11154   3.709   3.120   8.699  2.0304 -1.4588  0.1865
  108OSM   H18G11155   3.590   3.124   8.561 -1.6411 -1.5896 -0.1469
  108OSM   H18H11156   3.758   3.037   8.552 -0.3650  0.7169 -0.2433
  109OSM      N11157   2.981   0.424  11.490 -0.9936 -0.0197 -0.4643
  109OSM    C1511158   2.889   0.336  11.571 -0.3724  0.6528 -0.4689
  109OSM   H15A11159   2.904   0.229  11.568  0.3426  0.7514 -0.4948
  109OSM   H15B11160   2.785   0.353  11.546 -1.5371 -1.9686  2.2479
  109OSM   H15C11161   2.895   0.355  11.677  0.8526  0.2028 -0.4441
  109OSM    C1411162   2.941   0.562  11.545 -0.2871 -0.8662  0.2045
  109OSM   H14A11163   2.839   0.588  11.522  0.3376  0.3876 -1.2690
  109OSM   H14B11164   3.016   0.629  11.506 -1.6789  1.6825  1.8230
  109OSM   H14C11165   2.941   0.574  11.652 -0.3187  1.7379 -0.0695
  109OSM    C1311166   3.121   0.392  11.538 -0.0646  0.1919  0.6138
  109OSM   H13A11167   3.192   0.445  11.477 -1.0238 -0.2753 -0.9247
  109OSM   H13B11168   3.137   0.285  11.541 -1.0532 -0.0691 -2.2961
  109OSM   H13C11169   3.128   0.425  11.641 -0.6931 -1.7037  1.2865
  109OSM    C1211170   2.964   0.410  11.345  0.2296 -0.2623  0.2458
  109OSM   H12A11171   2.857   0.418  11.335  0.2114  2.5648  2.1816
  109OSM   H12B11172   2.996   0.311  11.315  0.2236 -0.6461  1.4726
  109OSM    C1111173   3.036   0.506  11.256 -0.1208 -0.0124 -0.5092
  109OSM   H11A11174   3.015   0.613  11.274  1.5318 -0.0057  1.5347
  109OSM   H11B11175   3.010   0.488  11.149 -0.3068  2.3602 -0.8922
  109OSM      P11176   3.257   0.367  11.204  0.4300  0.3607 -0.1833
  109OSM    O1311177   3.398   0.375  11.247  0.1184  0.3554  0.2364
  109OSM    O1411178   3.179   0.249  11.239 -0.5146  0.1784 -0.8008
  109OSM    O1111179   3.240   0.393  11.055 -0.1673 -0.4464 -0.0431
  109OSM    O1211180   3.181   0.496  11.275 -0.3155  0.3346  0.0212
  109OSM    C1S11181   3.282   0.507  10.985 -0.6660 -0.2778  0.2423
  109OSM    H1S11182   3.371   0.551  11.034 -0.2961  0.2990 -0.9277
  109OSM    H1T11183   3.205   0.586  10.995 -1.2655 -0.8531  0.2246
  109OSM     NF11184   3.416   0.568  10.783 -0.1001  0.0249 -0.1814
  109OSM    HNF11185   3.379   0.644  10.729 -0.5624 -0.3278 -0.3569
  109OSM    C2S11186   3.321   0.476  10.838  0.9168 -0.2124  0.0612
  109OSM    H2S11187   3.374   0.379  10.832  0.2606 -0.5321 -0.6674
  109OSM    C3S11188   3.187   0.464  10.766 -0.1505 -0.4635  0.2620
  109OSM    H3S11189   3.148   0.562  10.731  1.2785 -0.7678 -2.3527
  109OSM     O311190   3.078   0.404  10.838 -0.2287 -0.4295  0.6994
  109OSM    HO311191   3.120   0.395  10.924 -0.1275  2.5549  0.9962
  109OSM    C4S11192   3.203   0.381  10.636 -0.6312  0.2091 -0.6404
  109OSM    H4S11193   3.249   0.283  10.655  0.8216  1.2473  1.4453
  109OSM    C5S11194   3.174   0.425  10.511 -0.7791  0.3787 -0.5200
  109OSM    H5S11195   3.138   0.527  10.495 -2.1215  0.1865  1.1451
  109OSM    C6S11196   3.196   0.360  10.377  0.0812 -0.0888 -1.1570
  109OSM    H6S11197   3.281   0.414  10.331  1.2524  0.7398  1.8533
  109OSM    H6T11198   3.113   0.369  10.304  1.7499 -0.8754 -3.1951
  109OSM    C7S11199   3.239   0.215  10.389  0.2027 -0.2323  0.4183
  109OSM    H7S11200   3.198   0.143  10.463 -0.4981 -0.4325 -0.1546
  109OSM    H7T11201   3.348   0.218  10.413  0.1645  0.1181  0.5632
  109OSM    C8S11202   3.239   0.149  10.252  0.0946  0.2701 -0.2712
  109OSM    H8S11203   3.131   0.146  10.225 -0.0760  0.3656  0.3955
  109OSM    H8T11204   3.262   0.041  10.251  1.2516  0.4854  1.5604
  109OSM    C9S11205   3.325   0.217  10.140  0.6229 -0.1646  0.7384
  109OSM    H9S11206   3.429   0.238  10.174  0.0524 -0.0247  2.4274
  109OSM    H9T11207   3.280   0.317  10.126  0.4468 -0.5331 -1.5032
  109OSM   C10S11208   3.309   0.115  10.019  0.0423 -0.5247  0.0849
  109OSM   H10S11209   3.204   0.086   9.998 -0.4185  2.4352 -2.0705
  109OSM   H10T11210   3.361   0.022  10.050 -0.2593 -0.4781  0.7312
  109OSM   C11S11211   3.357   0.178   9.891  0.1553 -0.3691 -0.3750
  109OSM   H11S11212   3.466   0.199   9.895  0.2477 -0.5517 -1.9522
  109OSM   H11T11213   3.305   0.271   9.860  0.3601 -0.0022  0.3620
  109OSM   C12S11214   3.345   0.078   9.778  0.5914 -0.2933  0.1030
  109OSM   H12S11215   3.242   0.037   9.774  1.4843 -2.5688 -0.1403
  109OSM   H12T11216   3.416  -0.003   9.804 -0.6823 -0.8928  1.7983
  109OSM   C13S11217   3.393   0.129   9.645 -0.2037 -0.7784  0.6129
  109OSM   H13S11218   3.492   0.179   9.657 -2.0516  2.9571  0.7363
  109OSM   H13T11219   3.327   0.213   9.616 -0.5529 -2.1193 -2.6628
  109OSM   C14S11220   3.387   0.021   9.537 -0.4128 -0.3312  0.4429
  109OSM   H14S11221   3.284  -0.019   9.545 -0.1206 -1.0119  0.8417
  109OSM   H14T11222   3.463  -0.057   9.557  0.1199  0.0221 -0.1766
  109OSM   C15S11223   3.411   0.088   9.399  0.4394  0.3874  0.1991
  109OSM   H15S11224   3.518   0.116   9.390  1.0070 -1.5165  0.6187
  109OSM   H15T11225   3.365   0.188   9.391  0.5605  0.4932  0.7793
  109OSM   C16S11226   3.377   0.002   9.285  0.3515  1.0503 -0.1538
  109OSM   H16S11227   3.268  -0.019   9.286  0.1342  1.9577 -1.7631
  109OSM   H16T11228   3.416  -0.102   9.284 -0.3104  0.7765  1.5037
  109OSM   C17S11229   3.413   0.061   9.151 -0.0360 -0.1640  0.8681
  109OSM   H17S11230   3.524   0.068   9.150 -0.1635  2.1304 -0.9659
  109OSM   H17T11231   3.372   0.164   9.145  0.3265 -0.0314  0.6914
  109OSM   C18S11232   3.352  -0.008   9.032 -0.0599  0.0998  0.2971
  109OSM   H18S11233   3.400  -0.102   8.997 -0.9902  0.3204 -1.6740
  109OSM   H18T11234   3.363   0.061   8.945 -1.1210  0.3755  0.3743
  109OSM   H18U11235   3.245  -0.029   9.057 -0.2370 -0.3724 -0.8359
  109OSM    C1F11236   3.548   0.566  10.803 -0.7545  0.0332 -0.8101
  109OSM     OF11237   3.587   0.470  10.866  0.5813 -0.1858  0.1226
  109OSM    C2F11238   3.643   0.671  10.742  0.5284  0.7026  0.4347
  109OSM    H2F11239   3.681   0.733  10.826  1.6565 -0.6408  0.9220
  109OSM    H2G11240   3.578   0.727  10.671  1.8500  0.8115 -0.7123
  109OSM    C3F11241   3.761   0.608  10.653 -0.0989  0.2055 -0.2535
  109OSM    H3F11242   3.809   0.530  10.716  1.7347  1.2006 -0.3685
  109OSM    H3G11243   3.843   0.673  10.616 -0.6347  0.5969 -0.7665
  109OSM    C4F11244   3.705   0.531  10.531 -0.2277  0.3550 -0.1147
  109OSM    H4F11245   3.614   0.575  10.485 -1.1073 -2.2372 -0.9678
  109OSM    H4G11246   3.661   0.437  10.572  2.7300 -1.3456 -0.7050
  109OSM    C5F11247   3.812   0.491  10.427 -0.0229 -0.0763 -0.2349
  109OSM    H5F11248   3.899   0.441  10.474  0.1296  1.4201  1.0915
  109OSM    H5G11249   3.843   0.583  10.374 -3.0327  2.1741  1.7309
  109OSM    C6F11250   3.743   0.403  10.313  0.2963  0.3839  0.6400
  109OSM    H6F11251   3.695   0.323  10.373 -1.7544 -0.4420 -2.0339
  109OSM    H6G11252   3.817   0.352  10.249  1.0925 -2.9161  4.0369
  109OSM    C7F11253   3.632   0.480  10.233  1.0749 -1.2159 -0.1438
  109OSM    H7F11254   3.549   0.515  10.297  2.0625 -0.0933  0.5346
  109OSM    H7G11255   3.585   0.401  10.170  0.8790  0.2329 -1.8657
  109OSM    C8F11256   3.688   0.598  10.145 -0.1434  0.0051 -0.4888
  109OSM    H8F11257   3.713   0.670  10.226 -1.1762 -2.9167  2.5603
  109OSM    H8G11258   3.613   0.661  10.094 -2.0333 -2.5688 -0.9870
  109OSM    C9F11259   3.811   0.565  10.068  0.9866  0.5856  0.4222
  109OSM    H9F11260   3.907   0.592  10.113  1.8890 -2.2213  0.2335
  109OSM   C10F11261   3.817   0.485   9.958  0.1997 -0.2107 -0.2530
  109OSM   H10F11262   3.921   0.473   9.923  0.1414 -0.4137 -0.3524
  109OSM   C11F11263   3.704   0.420   9.874 -0.8132 -0.5929 -0.1864
  109OSM   H11F11264   3.611   0.476   9.896 -0.8689 -0.2302 -1.3242
  109OSM   H11G11265   3.701   0.314   9.908  0.5064 -0.6731 -0.2758
  109OSM   C12F11266   3.723   0.409   9.724  0.5041 -0.2322  0.3780
  109OSM   H12F11267   3.703   0.506   9.674 -0.6916 -0.5201  0.2717
  109OSM   H12G11268   3.658   0.333   9.676 -1.1695  0.6051  1.2722
  109OSM   C13F11269   3.867   0.368   9.683  0.0155 -0.5339  0.5705
  109OSM   H13F11270   3.885   0.267   9.725 -0.8525 -0.8561  0.1809
  109OSM   H13G11271   3.940   0.444   9.717 -0.9056 -0.3289  2.1138
  109OSM   C14F11272   3.860   0.350   9.533  0.2790  0.1357  0.8852
  109OSM   H14F11273   3.797   0.428   9.485 -1.1846 -0.6654  1.4870
  109OSM   H14G11274   3.832   0.246   9.509  4.0682 -1.1670  1.7107
  109OSM   C15F11275   4.003   0.368   9.472 -0.1218  0.2988 -0.4040
  109OSM   H15F11276   4.059   0.287   9.525 -0.3571 -0.5317 -1.3956
  109OSM   H15G11277   4.042   0.471   9.487  1.7091 -0.4998  0.5410
  109OSM   C16F11278   4.005   0.341   9.315  0.2898  0.0382  0.0095
  109OSM   H16F11279   3.916   0.398   9.281  0.6758  1.0725  0.6779
  109OSM   H16G11280   3.986   0.234   9.293  0.7389  0.2164 -1.2841
  109OSM   C17F11281   4.135   0.390   9.244 -0.4662 -0.0702 -1.0503
  109OSM   H17F11282   4.223   0.353   9.301 -2.4677 -2.1510  0.8232
  109OSM   H17G11283   4.134   0.501   9.242 -1.3320 -0.0682 -0.6692
  109OSM   C18F11284   4.150   0.342   9.104  0.7972 -0.0478 -0.0049
  109OSM   H18F11285   4.145   0.231   9.101 -0.2652 -0.0792  1.7821
  109OSM   H18G11286   4.241   0.367   9.045 -0.8519  1.0289 -2.1518
  109OSM   H18H11287   4.066   0.382   9.045  1.6350 -0.0441 -1.2017
  110OSM      N11288   4.244   6.545  10.727  0.2427  0.3616 -0.0684
  110OSM    C1511289   4.244   6.617  10.595 -0.3557 -0.4429  0.5593
  110OSM   H15A11290   4.290   6.560  10.515 -1.6458 -0.4930 -0.1574
  110OSM   H15B11291   4.292   6.714  10.602 -1.0112  0.0972 -1.8736
  110OSM   H15C11292   4.145   6.640  10.559  0.0343 -1.1398 -1.0258
  110OSM    C1411293   4.199   6.630  10.849  0.2017  0.1656 -0.5932
  110OSM   H14A11294   4.263   6.717  10.859  0.1779  0.2862 -1.4739
  110OSM   H14B11295   4.198   6.574  10.941  0.8290  0.5879 -0.3189
  110OSM   H14C11296   4.099   6.664  10.827 -0.2682 -0.9736 -0.2671
  110OSM    C1311297   4.168   6.420  10.722 -0.6342 -0.3613 -0.0697
  110OSM   H13A11298   4.173   6.362  10.813  1.9989  0.2993  0.2535
  110OSM   H13B11299   4.218   6.358  10.649  0.8967 -0.0035  0.6464
  110OSM   H13C11300   4.065   6.432  10.691 -0.5865 -0.2762 -0.1937
  110OSM    C1211301   4.394   6.525  10.748  0.8118 -0.7774 -0.6940
  110OSM   H12A11302   4.426   6.479  10.840 -0.9594  0.2014  0.4356
  110OSM   H12B11303   4.441   6.620  10.729 -1.5545  0.7800  1.0096
  110OSM    C1111304   4.450   6.413  10.655  0.4266 -0.3031  0.0997
  110OSM   H11A11305   4.560   6.423  10.667  0.2433  1.9295  0.1596
  110OSM   H11B11306   4.432   6.435  10.548  0.8923  2.3030  0.5022
  110OSM      P11307   4.459   6.219  10.821  0.4764  0.0900 -0.2662
  110OSM    O1311308   4.506   6.329  10.905 -0.3431 -0.2739 -0.3863
  110OSM    O1411309   4.370   6.118  10.878  0.3636  0.1213 -0.3487
  110OSM    O1111310   4.583   6.139  10.767  0.5144 -0.0720 -0.3820
  110OSM    O1211311   4.403   6.282  10.692 -0.1052  0.0561 -0.1408
  110OSM    C1S11312   4.563   6.055  10.650  0.1520 -0.4874 -0.1870
  110OSM    H1S11313   4.457   6.030  10.626  0.8719 -2.1056 -1.7573
  110OSM    H1T11314   4.620   5.961  10.666 -0.6783 -1.0559 -0.5564
  110OSM     NF11315   4.588   6.010  10.415  0.1691  0.3429 -0.8913
  110OSM    HNF11316   4.661   5.947  10.390 -0.0569  0.1982 -1.1875
  110OSM    C2S11317   4.611   6.110  10.517 -0.2047 -0.0104 -0.3365
  110OSM    H2S11318   4.545   6.195  10.491 -0.6138 -0.4635 -0.8161
  110OSM    C3S11319   4.756   6.144  10.525 -0.3265  0.0207  0.8201
  110OSM    H3S11320   4.813   6.053  10.552  0.8335  0.4737 -0.0799
  110OSM     O311321   4.788   6.245  10.623  0.4140  0.0122 -0.4881
  110OSM    HO311322   4.704   6.252  10.670  0.4836 -0.3181 -0.3162
  110OSM    C4S11323   4.805   6.188  10.385  0.2767  0.1138 -0.4854
  110OSM    H4S11324   4.752   6.271  10.337  1.5798  0.8494 -0.7038
  110OSM    C5S11325   4.898   6.120  10.315  0.4491 -0.2866 -0.1034
  110OSM    H5S11326   4.962   6.048  10.368 -1.5426 -1.1340  1.2113
  110OSM    C6S11327   4.941   6.140  10.174  0.5457 -0.7530  0.7033
  110OSM    H6S11328   4.901   6.237  10.138 -2.0719 -1.6431  1.1257
  110OSM    H6T11329   4.902   6.065  10.102  1.2321  0.2405 -0.7448
  110OSM    C7S11330   5.094   6.134  10.151 -0.3621 -0.2405  0.0484
  110OSM    H7S11331   5.139   6.034  10.135 -1.3607 -0.8795  1.1247
  110OSM    H7T11332   5.145   6.191  10.231 -0.0917  1.8267 -1.5615
  110OSM    C8S11333   5.121   6.218  10.020 -0.1497 -0.7227  0.4499
  110OSM    H8S11334   5.231   6.227  10.010 -0.0500 -1.7002  0.6509
  110OSM    H8T11335   5.080   6.321  10.017  1.4647 -0.1035 -1.1579
  110OSM    C9S11336   5.069   6.146   9.895  0.8341 -0.2279 -0.4642
  110OSM    H9S11337   4.981   6.201   9.856 -1.5229 -1.8740  2.2979
  110OSM    H9T11338   5.028   6.047   9.923 -0.5033  0.7450  1.0916
  110OSM   C10S11339   5.175   6.108   9.779  0.2230 -0.0028 -0.0258
  110OSM   H10S11340   5.120   6.046   9.704  1.2235  0.9304 -1.5699
  110OSM   H10T11341   5.252   6.054   9.838 -0.5836  1.1931  2.1793
  110OSM   C11S11342   5.245   6.216   9.706  0.1603  0.7312 -0.0569
  110OSM   H11S11343   5.337   6.172   9.662  0.5847  0.9171  0.6390
  110OSM   H11T11344   5.276   6.296   9.777 -0.2402  2.1175 -1.4247
  110OSM   C12S11345   5.163   6.280   9.589  0.6087  0.5546 -0.1447
  110OSM   H12S11346   5.184   6.389   9.584 -0.5900  0.7774 -0.4524
  110OSM   H12T11347   5.055   6.262   9.607  1.0008 -1.2124  0.5496
  110OSM   C13S11348   5.193   6.228   9.449  0.3458 -0.0457  0.2851
  110OSM   H13S11349   5.303   6.231   9.435  0.2736 -1.0797 -0.5597
  110OSM   H13T11350   5.151   6.296   9.372  3.3112  2.3582  0.6842
  110OSM   C14S11351   5.140   6.087   9.429 -0.0794  0.0346 -0.2750
  110OSM   H14S11352   5.031   6.083   9.449  0.4802  0.0105  3.1787
  110OSM   H14T11353   5.186   6.028   9.512  0.2826  0.2022 -0.3590
  110OSM   C15S11354   5.165   6.032   9.287 -0.5863 -0.1385  0.6013
  110OSM   H15S11355   5.194   5.924   9.291  1.4304  0.4202  1.2962
  110OSM   H15T11356   5.246   6.088   9.237  1.5875 -2.1793  1.7122
  110OSM   C16S11357   5.040   6.042   9.198 -0.3072 -0.4369  1.3654
  110OSM   H16S11358   5.005   6.140   9.158 -3.3075 -1.3698  1.5873
  110OSM   H16T11359   4.955   6.010   9.261 -1.1605 -0.9367 -0.0033
  110OSM   C17S11360   5.047   5.958   9.065 -0.0869  0.0015  0.2950
  110OSM   H17S11361   5.150   5.954   9.023 -0.5332  0.1780 -0.8378
  110OSM   H17T11362   4.971   5.989   8.990 -1.1588  0.8752  1.7154
  110OSM   C18S11363   5.014   5.804   9.075  0.3063  0.4029  0.1492
  110OSM   H18S11364   5.012   5.773   8.968  1.0620 -0.9454  0.5092
  110OSM   H18T11365   4.915   5.773   9.113  1.0649 -1.4327  0.7025
  110OSM   H18U11366   5.096   5.744   9.121  0.0402 -0.2064 -0.1610
  110OSM    C1F11367   4.459   5.991  10.362 -1.0095 -0.2129 -0.7248
  110OSM     OF11368   4.368   6.067  10.388 -0.1434  0.1784  0.0860
  110OSM    C2F11369   4.437   5.874  10.269  0.0859 -0.1061  0.3253
  110OSM    H2F11370   4.395   5.792  10.331  3.5784 -2.7804 -0.6551
  110OSM    H2G11371   4.533   5.827  10.237 -0.5367 -0.3865 -1.1722
  110OSM    C3F11372   4.342   5.899  10.148 -0.3519 -0.0040 -0.1611
  110OSM    H3F11373   4.362   5.996  10.097 -0.5198  0.5217  0.7478
  110OSM    H3G11374   4.235   5.914  10.173 -0.6532  0.0875 -1.4777
  110OSM    C4F11375   4.344   5.790  10.043 -0.2001  0.0455  0.4231
  110OSM    H4F11376   4.241   5.779  10.003  0.3907  2.4437 -1.8911
  110OSM    H4G11377   4.358   5.691  10.092 -0.6835  0.4254  1.3392
  110OSM    C5F11378   4.452   5.802   9.946 -0.1783  0.1360  0.0820
  110OSM    H5F11379   4.494   5.705   9.910  0.0959  0.7488 -1.2601
  110OSM    H5G11380   4.530   5.869   9.986 -0.3478 -0.2931  1.1409
  110OSM    C6F11381   4.408   5.865   9.817  0.4018  0.0255  0.2479
  110OSM    H6F11382   4.501   5.906   9.772 -0.3983 -0.1624 -1.6327
  110OSM    H6G11383   4.339   5.947   9.847 -0.1817 -0.3461 -0.0770
  110OSM    C7F11384   4.344   5.773   9.711 -0.5380  0.0173  0.9375
  110OSM    H7F11385   4.253   5.723   9.750 -1.4909  0.7209 -0.3380
  110OSM    H7G11386   4.416   5.689   9.698 -1.4568 -0.3528 -2.0606
  110OSM    C8F11387   4.300   5.851   9.582  0.1126  0.2341 -0.1587
  110OSM    H8F11388   4.242   5.942   9.609  0.3361  0.4264 -0.3293
  110OSM    H8G11389   4.234   5.778   9.531  0.2358 -2.5914  3.4803
  110OSM    C9F11390   4.418   5.891   9.500  0.1958 -0.8684  0.2148
  110OSM    H9F11391   4.445   5.996   9.518  1.5816 -1.2807  0.6122
  110OSM   C10F11392   4.489   5.815   9.418  0.3144  0.0702  0.3783
  110OSM   H10F11393   4.572   5.862   9.363 -0.6958  0.3429 -0.9501
  110OSM   C11F11394   4.460   5.670   9.390  0.0429 -0.3561  0.0931
  110OSM   H11F11395   4.364   5.646   9.439 -0.4745  2.3216  0.4680
  110OSM   H11G11396   4.542   5.606   9.429 -1.1590 -1.7853  0.3069
  110OSM   C12F11397   4.412   5.649   9.244 -0.2752 -0.5097 -0.0695
  110OSM   H12F11398   4.397   5.539   9.231 -1.8253 -0.6397  2.5236
  110OSM   H12G11399   4.480   5.688   9.165  1.0402  2.0623  2.2944
  110OSM   C13F11400   4.277   5.715   9.217  0.0318  0.7184 -0.2821
  110OSM   H13F11401   4.269   5.826   9.224 -3.3755  0.5622 -0.9692
  110OSM   H13G11402   4.223   5.676   9.306 -1.0668 -4.0248 -2.8538
  110OSM   C14F11403   4.202   5.660   9.094 -0.6788  0.1404  0.4991
  110OSM   H14F11404   4.201   5.549   9.103 -1.6949  0.0694 -0.4307
  110OSM   H14G11405   4.248   5.686   8.997 -2.3111 -1.0336 -0.6246
  110OSM   C15F11406   4.062   5.703   9.093 -0.1705  0.7944  0.3612
  110OSM   H15F11407   4.049   5.809   9.062  1.0175  1.2400  1.3519
  110OSM   H15G11408   4.010   5.701   9.191 -0.1621  1.3140  0.3801
  110OSM   C16F11409   3.960   5.616   9.018  1.0353  0.5601  0.3333
  110OSM   H16F11410   3.975   5.511   9.051  0.2783  0.1501 -0.6054
  110OSM   H16G11411   3.980   5.622   8.909 -0.5296 -0.7196 -0.0384
  110OSM   C17F11412   3.814   5.654   9.040 -0.2667  0.7411 -0.2682
  110OSM   H17F11413   3.789   5.755   9.000  0.6803  0.8494 -0.6104
  110OSM   H17G11414   3.787   5.655   9.148  0.6172 -1.3967 -0.0095
  110OSM   C18F11415   3.711   5.557   8.975  0.3850  0.7376 -0.0358
  110OSM   H18F11416   3.606   5.592   8.983 -0.4631 -1.1368 -2.4833
  110OSM   H18G11417   3.719   5.456   9.021 -1.3976 -0.0385 -1.3897
  110OSM   H18H11418   3.744   5.542   8.871  0.8472 -0.4831  0.2725
  111OSM      N11419   5.460   3.561  10.984  0.1741 -0.0441 -0.4684
  111OSM    C1511420   5.367   3.475  11.070  0.2603  0.3484  0.4290
  111OSM   H15A11421   5.332   3.529  11.156 -0.0705 -0.4201  0.7801
  111OSM   H15B11422   5.414   3.382  11.097  1.7519  1.7620  2.8376
  111OSM   H15C11423   5.279   3.457  11.010 -1.2153  3.3000  1.6211
  111OSM    C1411424   5.595   3.565  11.058  0.8003 -0.1191  0.6424
  111OSM   H14A11425   5.622   3.466  11.090 -0.0601 -0.7097 -0.4150
  111OSM   H14B11426   5.587   3.634  11.141  0.0568  0.6800 -0.0801
  111OSM   H14C11427   5.669   3.603  10.990  0.2669  1.7670  1.0839
  111OSM    C1311428   5.494   3.498  10.850 -0.1347  0.8650 -0.1152
  111OSM   H13A11429   5.428   3.524  10.770 -2.5242 -1.0019  1.1837
  111OSM   H13B11430   5.497   3.392  10.869 -2.4724  0.9721  1.0629
  111OSM   H13C11431   5.593   3.532  10.823  1.0441 -1.8153  0.6892
  111OSM    C1211432   5.399   3.691  10.962 -0.3445  0.3073 -0.3700
  111OSM   H12A11433   5.366   3.744  11.051  2.0244 -1.5683  1.7126
  111OSM   H12B11434   5.308   3.673  10.908  0.7161  0.7495 -2.3684
  111OSM    C1111435   5.468   3.802  10.884 -0.0062  0.4965  0.2642
  111OSM   H11A11436   5.394   3.884  10.873  0.1742  0.7424  0.8415
  111OSM   H11B11437   5.481   3.758  10.783  0.2186  0.3401  0.3596
  111OSM      P11438   5.725   3.867  10.866  0.1951  0.4607 -0.3146
  111OSM    O1311439   5.812   3.952  10.948  0.0975  0.5507 -0.7587
  111OSM    O1411440   5.768   3.732  10.827 -0.0673 -0.0700 -0.0970
  111OSM    O1111441   5.682   3.935  10.732  0.4316 -0.0469  0.0942
  111OSM    O1211442   5.592   3.847  10.940  0.5918 -0.2553  0.1488
  111OSM    C1S11443   5.599   4.049  10.726 -0.8800 -0.1284 -0.0172
  111OSM    H1S11444   5.630   4.114  10.811  0.4451 -2.3446  1.2513
  111OSM    H1T11445   5.498   4.009  10.749  0.2679 -1.7977  2.4585
  111OSM     NF11446   5.545   4.240  10.574  0.4967 -0.0317  0.1647
  111OSM    HNF11447   5.451   4.265  10.552  0.6210  1.4112  1.1870
  111OSM    C2S11448   5.593   4.103  10.581  0.1025  0.1334  0.2902
  111OSM    H2S11449   5.694   4.101  10.535 -0.1433  0.9420 -0.2934
  111OSM    C3S11450   5.498   4.011  10.497  0.1316  0.1070  0.2882
  111OSM    H3S11451   5.396   4.034  10.535  0.2229 -0.3029  0.7892
  111OSM     O311452   5.524   3.870  10.513  0.4243  0.2983 -0.2354
  111OSM    HO311453   5.599   3.861  10.571  0.4805 -1.4226 -0.5582
  111OSM    C4S11454   5.494   4.061  10.353 -0.5854  1.0077 -0.3927
  111OSM    H4S11455   5.420   4.142  10.338 -0.9953  0.6637 -0.2384
  111OSM    C5S11456   5.548   4.007  10.242  0.6971 -0.3553  0.0301
  111OSM    H5S11457   5.613   3.919  10.255 -0.4087 -0.9414  1.9183
  111OSM    C6S11458   5.530   4.056  10.098  0.0416 -0.2975  0.2201
  111OSM    H6S11459   5.509   3.971  10.029  2.3737 -1.1958  0.5781
  111OSM    H6T11460   5.627   4.091  10.058  0.8054 -2.7065 -0.1563
  111OSM    C7S11461   5.425   4.174  10.073 -0.5121  0.2149 -0.1406
  111OSM    H7S11462   5.468   4.272  10.104 -0.7518  0.4691 -0.5933
  111OSM    H7T11463   5.341   4.152  10.142  0.0409 -2.0380 -0.1579
  111OSM    C8S11464   5.371   4.179   9.931  0.2818 -0.1715 -0.7060
  111OSM    H8S11465   5.284   4.247   9.942  1.1360  0.8507 -0.1990
  111OSM    H8T11466   5.358   4.073   9.899 -1.3939 -0.3864  0.6485
  111OSM    C9S11467   5.463   4.238   9.820 -0.3899 -0.1906 -0.2669
  111OSM    H9S11468   5.556   4.177   9.808 -0.9301 -1.1462  0.2962
  111OSM    H9T11469   5.490   4.344   9.839  0.5282 -0.0835 -2.0836
  111OSM   C10S11470   5.391   4.228   9.687  1.2676  0.5920 -0.5742
  111OSM   H10S11471   5.290   4.274   9.697  0.0866 -1.6220 -1.7524
  111OSM   H10T11472   5.371   4.125   9.649  0.2981  0.9394 -1.0394
  111OSM   C11S11473   5.467   4.292   9.573  0.1460  0.2926 -0.3198
  111OSM   H11S11474   5.568   4.246   9.572 -0.6593 -1.5444  0.6361
  111OSM   H11T11475   5.478   4.400   9.599  0.3491 -0.2074  1.7578
  111OSM   C12S11476   5.399   4.262   9.439 -0.4173 -0.3821  0.2904
  111OSM   H12S11477   5.291   4.291   9.441 -0.5734 -0.8959 -0.3661
  111OSM   H12T11478   5.392   4.154   9.414  3.0674 -0.0967 -2.1884
  111OSM   C13S11479   5.465   4.329   9.324 -0.7025 -0.9102 -0.0237
  111OSM   H13S11480   5.489   4.433   9.353  1.1724 -1.1170 -0.7532
  111OSM   H13T11481   5.393   4.340   9.240  0.4996 -0.1546 -0.9851
  111OSM   C14S11482   5.603   4.283   9.279  0.5013 -0.4431  0.3290
  111OSM   H14S11483   5.618   4.180   9.318 -1.7407  0.1378  2.8836
  111OSM   H14T11484   5.687   4.339   9.325  0.6759 -1.0428  0.7393
  111OSM   C15S11485   5.609   4.305   9.123  0.2437  0.5667  0.3866
  111OSM   H15S11486   5.581   4.410   9.101 -1.4217  0.0635  0.0032
  111OSM   H15T11487   5.549   4.234   9.062 -0.9861  0.6769  1.4327
  111OSM   C16S11488   5.754   4.287   9.060  1.1375  0.3548 -0.0002
  111OSM   H16S11489   5.806   4.194   9.090  0.8827  0.0761 -0.4303
  111OSM   H16T11490   5.816   4.368   9.104 -0.2208  3.1283 -2.9728
  111OSM   C17S11491   5.738   4.309   8.911 -0.1272  0.1100 -0.5190
  111OSM   H17S11492   5.666   4.393   8.905  1.4426  1.4320 -1.2483
  111OSM   H17T11493   5.696   4.222   8.856  2.1528  0.0631 -2.2364
  111OSM   C18S11494   5.876   4.329   8.846  0.5025 -0.3106  0.6989
  111OSM   H18S11495   5.912   4.434   8.837 -1.4660  0.1356 -2.7556
  111OSM   H18T11496   5.882   4.277   8.748 -0.1963  0.0275  0.4742
  111OSM   H18U11497   5.950   4.276   8.910  0.9087  0.2135  0.6707
  111OSM    C1F11498   5.619   4.336  10.625  0.4647 -0.2881 -0.2274
  111OSM     OF11499   5.717   4.309  10.698  0.0176 -0.1410 -0.3089
  111OSM    C2F11500   5.565   4.477  10.609  0.2777 -0.3351  0.3360
  111OSM    H2F11501   5.524   4.512  10.707  0.1355 -3.5799  1.5049
  111OSM    H2G11502   5.479   4.474  10.538 -0.3979 -0.2592  1.1368
  111OSM    C3F11503   5.666   4.577  10.558  0.2472 -0.2124  0.5128
  111OSM    H3F11504   5.740   4.582  10.640 -0.9318  0.0676  1.5751
  111OSM    H3G11505   5.617   4.675  10.539  0.4457  0.0399  1.3243
  111OSM    C4F11506   5.748   4.540  10.432  0.5370  0.8769 -0.6964
  111OSM    H4F11507   5.766   4.430  10.429 -1.1977  0.5266  1.0169
  111OSM    H4G11508   5.846   4.590  10.442  1.5323 -1.0983 -0.1953
  111OSM    C5F11509   5.681   4.574  10.297  0.1238  0.9714 -0.6986
  111OSM    H5F11510   5.637   4.676  10.297 -0.3966  0.7477 -0.6132
  111OSM    H5G11511   5.604   4.494  10.284  1.6778 -0.7114  0.2384
  111OSM    C6F11512   5.777   4.565  10.175  1.4131 -0.4999 -0.5654
  111OSM    H6F11513   5.845   4.478  10.191  0.0699 -1.2603  1.1485
  111OSM    H6G11514   5.834   4.659  10.190 -0.5361  0.5204  0.7196
  111OSM    C7F11515   5.704   4.560  10.044 -0.2773 -0.0631 -0.3992
  111OSM    H7F11516   5.631   4.643  10.032 -1.7012 -1.1753  0.4089
  111OSM    H7G11517   5.645   4.466  10.045  0.9271 -0.8490  2.0493
  111OSM    C8F11518   5.794   4.572   9.919 -0.0961 -0.3359 -0.5895
  111OSM    H8F11519   5.866   4.488   9.933 -0.1911 -0.2110  0.7552
  111OSM    H8G11520   5.857   4.662   9.935 -2.4869  1.0870  1.0773
  111OSM    C9F11521   5.713   4.588   9.791  0.4666  0.0610 -1.0249
  111OSM    H9F11522   5.618   4.532   9.797  0.3750  0.2018 -1.1428
  111OSM   C10F11523   5.754   4.637   9.678  0.4587  0.5579 -0.2122
  111OSM   H10F11524   5.679   4.646   9.598  1.9038  0.1018 -1.6405
  111OSM   C11F11525   5.888   4.693   9.647 -0.1969  0.0840  0.3075
  111OSM   H11F11526   5.965   4.651   9.716  0.2627 -0.1295 -0.3263
  111OSM   H11G11527   5.897   4.804   9.643  1.5969 -0.0490  0.2881
  111OSM   C12F11528   5.946   4.658   9.507  0.0669  0.7009  0.0102
  111OSM   H12F11529   5.979   4.552   9.505 -1.1684  0.2982  0.3840
  111OSM   H12G11530   6.040   4.713   9.485 -1.5159  3.8197  0.7580
  111OSM   C13F11531   5.849   4.670   9.391  0.2517  0.6056  0.2005
  111OSM   H13F11532   5.796   4.767   9.397 -0.1985  0.6017 -3.0074
  111OSM   H13G11533   5.773   4.589   9.384  0.1706  0.8599 -2.3166
  111OSM   C14F11534   5.914   4.695   9.251  0.1632 -0.3310 -0.5156
  111OSM   H14F11535   5.957   4.599   9.214  0.8793 -0.2881  0.2059
  111OSM   H14G11536   6.002   4.762   9.258 -1.6227  1.8777  1.4144
  111OSM   C15F11537   5.828   4.769   9.146  0.0037 -0.4279 -0.1486
  111OSM   H15F11538   5.835   4.879   9.160 -1.7248 -0.4914  1.3374
  111OSM   H15G11539   5.718   4.751   9.149  0.3085 -2.2747  1.1467
  111OSM   C16F11540   5.883   4.748   9.003 -0.5369 -0.4292 -0.2738
  111OSM   H16F11541   5.890   4.647   8.958  1.6417  1.0633 -3.5358
  111OSM   H16G11542   5.989   4.778   9.016 -0.6326  0.8345 -2.1400
  111OSM   C17F11543   5.826   4.842   8.900  0.5017 -0.0031  0.2345
  111OSM   H17F11544   5.901   4.840   8.818 -2.3750 -2.1243 -2.4918
  111OSM   H17G11545   5.795   4.946   8.927 -2.1669 -0.4337 -0.9635
  111OSM   C18F11546   5.697   4.778   8.841  0.6972  0.0028  0.1838
  111OSM   H18F11547   5.660   4.849   8.764  1.3885 -0.3627 -0.4892
  111OSM   H18G11548   5.620   4.777   8.921 -0.2017  2.5967 -0.5747
  111OSM   H18H11549   5.716   4.675   8.806 -1.0872 -0.1973 -0.2571
  112OSM      N11550   4.136   1.780  11.180 -0.0539 -0.5001 -0.4355
  112OSM    C1511551   4.124   1.745  11.322  0.3542 -0.6324  0.2923
  112OSM   H15A11552   4.220   1.714  11.361  0.9077  1.6239  0.8226
  112OSM   H15B11553   4.049   1.671  11.344  0.7817 -0.8177  1.1544
  112OSM   H15C11554   4.089   1.831  11.378  1.2631 -1.2616  1.8379
  112OSM    C1411555   4.175   1.660  11.098 -0.2525 -0.5147  0.4161
  112OSM   H14A11556   4.190   1.685  10.994 -0.0048  1.0116  0.8061
  112OSM   H14B11557   4.093   1.591  11.100  1.5534 -2.7236  0.1826
  112OSM   H14C11558   4.262   1.614  11.142  0.7325 -0.1579 -1.1067
  112OSM    C1311559   4.008   1.823  11.119 -0.2668 -0.0791  0.0839
  112OSM   H13A11560   3.965   1.909  11.169  1.1548  1.3755 -1.1334
  112OSM   H13B11561   3.946   1.736  11.108  0.6217 -0.4595 -2.1029
  112OSM   H13C11562   4.018   1.856  11.017  0.2262 -1.9092 -0.4631
  112OSM    C1211563   4.234   1.902  11.165  0.5208  0.7488  0.5304
  112OSM   H12A11564   4.319   1.891  11.231 -0.0697  1.8003  1.4826
  112OSM   H12B11565   4.168   1.982  11.193 -0.9850 -0.2550 -0.1132
  112OSM    C1111566   4.273   1.944  11.020 -0.3605  0.2450 -0.3890
  112OSM   H11A11567   4.326   1.858  10.975 -1.0710 -0.2364 -0.3254
  112OSM   H11B11568   4.348   2.024  11.033  0.3151 -0.1931 -1.4853
  112OSM      P11569   4.111   2.119  10.908 -0.3874 -0.2742  0.2459
  112OSM    O1311570   3.969   2.116  10.886  0.3792  0.1096  0.4361
  112OSM    O1411571   4.171   2.205  11.016  0.0487  0.1054  0.1387
  112OSM    O1111572   4.182   2.155  10.772  0.6874  0.2267  0.5104
  112OSM    O1211573   4.159   1.975  10.937  0.0122  0.0923 -0.0305
  112OSM    C1S11574   4.122   2.112  10.643  0.1306  0.3607 -0.0548
  112OSM    H1S11575   4.030   2.170  10.620 -0.7711 -1.3467 -0.8055
  112OSM    H1T11576   4.091   2.006  10.648  1.5650 -0.1052 -0.8477
  112OSM     NF11577   4.162   2.099  10.391  0.1087  0.1102  0.2412
  112OSM    HNF11578   4.191   2.017  10.342  1.9683  0.9393 -0.0923
  112OSM    C2S11579   4.220   2.124  10.525  0.1896  0.2555  0.6382
  112OSM    H2S11580   4.259   2.228  10.522  0.6473  0.0598 -0.0906
  112OSM    C3S11581   4.335   2.016  10.562 -0.5707  0.2035  0.5048
  112OSM    H3S11582   4.278   1.920  10.566  0.9538 -0.7805 -0.9305
  112OSM     O311583   4.400   2.026  10.689 -0.0166 -0.1490  0.0423
  112OSM    HO311584   4.342   2.074  10.749 -2.3183 -2.7176 -0.0093
  112OSM    C4S11585   4.438   2.013  10.456 -0.2489  0.7352 -0.1047
  112OSM    H4S11586   4.452   2.111  10.410 -1.7442  0.9482 -0.1068
  112OSM    C5S11587   4.502   1.906  10.406  0.7847 -0.4863  0.6067
  112OSM    H5S11588   4.469   1.808  10.442  0.2239 -0.2857  0.6389
  112OSM    C6S11589   4.601   1.909  10.293 -0.4453 -0.1203  0.2559
  112OSM    H6S11590   4.660   1.815  10.298 -0.6872 -0.3657 -1.1374
  112OSM    H6T11591   4.675   1.990  10.305  2.7571 -3.0269  1.0322
  112OSM    C7S11592   4.541   1.909  10.152 -0.0674 -0.4376 -0.5676
  112OSM    H7S11593   4.461   1.832  10.145 -0.1656 -0.3695 -0.1562
  112OSM    H7T11594   4.624   1.877  10.085  1.9004  0.5446  1.3444
  112OSM    C8S11595   4.489   2.045  10.098  0.2718  0.2314 -0.6093
  112OSM    H8S11596   4.570   2.105  10.053  2.0554 -1.0383  0.8280
  112OSM    H8T11597   4.459   2.103  10.188  0.8553 -2.2741  1.2762
  112OSM    C9S11598   4.366   2.024  10.016 -0.5282 -0.1216 -0.0353
  112OSM    H9S11599   4.321   2.125  10.005  0.4445  0.5967  2.2433
  112OSM    H9T11600   4.289   1.962  10.066  1.0258  0.0904  2.6687
  112OSM   C10S11601   4.405   1.990   9.876 -0.2757  0.3229  0.2953
  112OSM   H10S11602   4.451   1.889   9.881 -0.9991 -0.0244 -0.0174
  112OSM   H10T11603   4.477   2.063   9.832 -0.5070 -0.8162 -2.0400
  112OSM   C11S11604   4.286   1.977   9.784 -0.4556  0.2982 -0.1265
  112OSM   H11S11605   4.262   2.079   9.751  0.4798  0.5225 -0.1389
  112OSM   H11T11606   4.197   1.945   9.843  1.6139 -0.2831  2.8414
  112OSM   C12S11607   4.307   1.877   9.668  0.3134  0.0948 -0.3207
  112OSM   H12S11608   4.203   1.864   9.629  0.5850 -1.0488 -0.6731
  112OSM   H12T11609   4.345   1.785   9.718 -0.2795 -0.2421 -0.4859
  112OSM   C13S11610   4.406   1.931   9.562  0.0276 -0.1063 -0.6541
  112OSM   H13S11611   4.503   1.932   9.617  0.3670 -0.7614 -1.2275
  112OSM   H13T11612   4.388   2.034   9.524  0.2341 -0.0493 -0.5945
  112OSM   C14S11613   4.423   1.833   9.445 -0.4175 -0.0601 -1.0185
  112OSM   H14S11614   4.325   1.828   9.392  0.6435 -0.2585 -2.9899
  112OSM   H14T11615   4.437   1.733   9.491 -0.0838 -0.9749 -3.0366
  112OSM   C15S11616   4.540   1.853   9.348 -0.2583  0.6569  0.5383
  112OSM   H15S11617   4.622   1.794   9.394 -1.0960  0.8114  2.2846
  112OSM   H15T11618   4.566   1.961   9.346  0.1012  0.6540  2.9405
  112OSM   C16S11619   4.516   1.793   9.207  0.3293 -0.2240  0.4227
  112OSM   H16S11620   4.517   1.682   9.206 -0.7425 -0.2314 -1.0272
  112OSM   H16T11621   4.610   1.827   9.158 -0.1410  0.1912 -0.1977
  112OSM   C17S11622   4.393   1.852   9.128 -0.0939 -0.8232  1.0137
  112OSM   H17S11623   4.393   1.961   9.151  0.0015 -0.5913 -0.0745
  112OSM   H17T11624   4.300   1.820   9.178 -2.0713  1.2108 -1.2548
  112OSM   C18S11625   4.405   1.821   8.972 -0.2988 -0.6673  0.5559
  112OSM   H18S11626   4.485   1.879   8.922 -1.5101  0.9280  0.4108
  112OSM   H18T11627   4.304   1.848   8.933 -0.4923 -0.8536  0.9206
  112OSM   H18U11628   4.411   1.712   8.954  0.2225 -1.0043  2.6299
  112OSM    C1F11629   4.083   2.186  10.331  0.8361  0.6773  0.2593
  112OSM     OF11630   4.068   2.301  10.378 -0.7040 -0.1060  0.0256
  112OSM    C2F11631   4.016   2.149  10.201  0.5033 -0.4219 -0.5146
  112OSM    H2F11632   4.087   2.100  10.131  2.1842  0.6379  0.4089
  112OSM    H2G11633   3.980   2.243  10.153 -2.2224 -1.1566  0.0311
  112OSM    C3F11634   3.887   2.059  10.218 -0.4964  0.1147  0.5213
  112OSM    H3F11635   3.811   2.107  10.283 -0.6714  1.8104 -0.8972
  112OSM    H3G11636   3.918   1.960  10.258  0.1962 -0.3425 -1.0963
  112OSM    C4F11637   3.810   2.030  10.077  0.7874  0.3272 -0.1400
  112OSM    H4F11638   3.778   2.130  10.039 -0.1497  0.8753  2.0275
  112OSM    H4G11639   3.715   1.973  10.091 -0.6388  3.2128  2.5895
  112OSM    C5F11640   3.888   1.958   9.969  0.1740 -0.2127 -0.5138
  112OSM    H5F11641   3.908   1.851   9.991  3.0777  0.5189  0.6631
  112OSM    H5G11642   3.991   2.000   9.972  0.0874 -0.0104 -0.4009
  112OSM    C6F11643   3.825   1.979   9.833 -0.0441  0.5171  0.9683
  112OSM    H6F11644   3.848   2.078   9.788 -0.9089  0.7282  0.9808
  112OSM    H6G11645   3.714   1.972   9.836 -0.1441  1.0670 -0.8487
  112OSM    C7F11646   3.867   1.875   9.729  0.6499  0.0483  0.6153
  112OSM    H7F11647   3.828   1.775   9.758 -0.1483  0.5442  1.2742
  112OSM    H7G11648   3.978   1.868   9.733  0.6626 -1.2561 -1.3536
  112OSM    C8F11649   3.812   1.905   9.592  0.1091  0.9017 -0.4399
  112OSM    H8F11650   3.838   2.009   9.563  3.7499  0.0682 -0.4963
  112OSM    H8G11651   3.701   1.903   9.591  0.0749  0.2722  1.8609
  112OSM    C9F11652   3.879   1.812   9.501 -0.0466  0.5710  0.4304
  112OSM    H9F11653   3.909   1.714   9.543 -1.6526 -0.8975 -1.7487
  112OSM   C10F11654   3.920   1.840   9.377 -0.2190  0.3087 -0.7702
  112OSM   H10F11655   3.950   1.760   9.307 -0.5264 -0.4298 -0.0743
  112OSM   C11F11656   3.892   1.963   9.307 -0.3276 -0.4591 -0.0281
  112OSM   H11F11657   3.937   2.047   9.365 -0.0886 -0.6645  0.0830
  112OSM   H11G11658   3.783   1.985   9.313  0.3576  3.2520  0.1364
  112OSM   C12F11659   3.936   1.948   9.160  0.6549 -0.6322  0.2924
  112OSM   H12F11660   4.038   1.905   9.149  0.7730 -0.6910  1.5348
  112OSM   H12G11661   3.932   2.050   9.118 -0.5757 -0.4214  0.8843
  112OSM   C13F11662   3.841   1.860   9.082 -0.1319  0.0103  0.7103
  112OSM   H13F11663   3.743   1.913   9.083  0.1467  0.5895 -1.4436
  112OSM   H13G11664   3.829   1.759   9.127  3.5041  0.2042  2.3183
  112OSM   C14F11665   3.890   1.845   8.938  0.0269 -0.7105  0.4529
  112OSM   H14F11666   3.980   1.780   8.935  0.6522  0.2102 -3.8385
  112OSM   H14G11667   3.928   1.941   8.897 -1.1353 -0.6785 -0.5784
  112OSM   C15F11668   3.774   1.780   8.850 -0.0866  0.1930  0.0198
  112OSM   H15F11669   3.678   1.827   8.879 -1.8626 -2.4354 -1.4268
  112OSM   H15G11670   3.755   1.673   8.869  0.6004 -0.4826 -2.7528
  112OSM   C16F11671   3.798   1.801   8.701 -0.2079 -0.5946 -0.3094
  112OSM   H16F11672   3.889   1.750   8.662 -0.4055 -2.0478  1.0844
  112OSM   H16G11673   3.816   1.909   8.680  1.7623 -0.6474  0.9729
  112OSM   C17F11674   3.681   1.742   8.621 -0.4706  1.1413  0.1353
  112OSM   H17F11675   3.593   1.796   8.663 -1.7848 -0.7175 -0.1783
  112OSM   H17G11676   3.658   1.636   8.646  2.0444  0.4821 -0.1667
  112OSM   C18F11677   3.672   1.757   8.470 -0.7461 -0.0513  0.2984
  112OSM   H18F11678   3.678   1.867   8.451  0.0961 -0.0204  0.7093
  112OSM   H18G11679   3.571   1.727   8.436 -1.0120  1.1708 -0.0093
  112OSM   H18H11680   3.756   1.700   8.424 -2.5186 -2.6712  0.2107
  113OSM      N11681   4.731   1.030  11.164 -0.3462  0.4573  0.0014
  113OSM    C1511682   4.722   0.874  11.157  0.1865 -0.7242 -0.1384
  113OSM   H15A11683   4.806   0.829  11.106 -0.7190 -0.5401 -1.8025
  113OSM   H15B11684   4.634   0.831  11.112 -0.2965 -1.9727  1.9165
  113OSM   H15C11685   4.736   0.825  11.253 -1.6842  0.5761  0.8122
  113OSM    C1411686   4.638   1.075  11.272  0.8340  0.2226 -0.5818
  113OSM   H14A11687   4.655   1.182  11.274 -0.8984  0.5125 -0.0727
  113OSM   H14B11688   4.651   1.025  11.367  0.7062  0.0980 -0.6294
  113OSM   H14C11689   4.537   1.044  11.246  0.1660  0.2936  1.8142
  113OSM    C1311690   4.871   1.077  11.203 -0.1954  0.0004 -0.4381
  113OSM   H13A11691   4.853   1.177  11.241 -2.1025  0.0958 -1.5273
  113OSM   H13B11692   4.936   1.080  11.117 -0.0956  2.7094 -0.3062
  113OSM   H13C11693   4.914   1.014  11.279 -1.1933  0.4894  0.5628
  113OSM    C1211694   4.695   1.091  11.030 -0.7436  0.1141  0.4069
  113OSM   H12A11695   4.705   1.198  11.040 -0.4462  0.1701 -0.4230
  113OSM   H12B11696   4.594   1.063  11.002 -0.2096 -1.4280  0.0062
  113OSM    C1111697   4.780   1.047  10.906  0.8099 -0.9038  0.3685
  113OSM   H11A11698   4.741   1.078  10.806  1.2476 -0.1853  0.4267
  113OSM   H11B11699   4.770   0.936  10.896 -0.3241 -0.8637  0.9457
  113OSM      P11700   4.974   1.221  10.857  0.5038 -0.3688  0.0283
  113OSM    O1311701   4.862   1.320  10.863  0.1042 -0.2025  0.2633
  113OSM    O1411702   5.098   1.256  10.928  0.2013 -0.5852 -0.5616
  113OSM    O1111703   5.005   1.186  10.707  0.0292  0.4442  0.4439
  113OSM    O1211704   4.919   1.078  10.909  0.3274  0.6073 -0.7686
  113OSM    C1S11705   5.101   1.084  10.678  0.1495 -0.0995  0.3519
  113OSM    H1S11706   5.090   1.000  10.749 -1.5169 -0.8135 -0.7176
  113OSM    H1T11707   5.202   1.128  10.685  1.1582 -2.1036 -1.0231
  113OSM     NF11708   5.180   0.930  10.497 -0.6838 -0.2223  0.1367
  113OSM    HNF11709   5.254   0.960  10.437  1.6978 -3.7132  1.1258
  113OSM    C2S11710   5.085   1.041  10.528 -0.7671 -0.3422 -0.2674
  113OSM    H2S11711   4.980   1.010  10.514 -0.3220 -0.6431 -3.2833
  113OSM    C3S11712   5.107   1.170  10.449  0.4652  0.8519 -0.1607
  113OSM    H3S11713   5.198   1.227  10.477  1.6631 -0.4057 -1.4687
  113OSM     O311714   5.003   1.267  10.459 -0.8514  0.1411  0.7128
  113OSM    HO311715   4.969   1.249  10.547 -1.4127  1.6339  0.8081
  113OSM    C4S11716   5.123   1.139  10.305  0.4792  0.6030  0.5531
  113OSM    H4S11717   5.220   1.091  10.291  0.0446  0.0297 -0.4905
  113OSM    C5S11718   5.050   1.168  10.197 -0.6862 -0.2831  0.1097
  113OSM    H5S11719   4.951   1.215  10.209 -1.2718 -1.1816 -1.0513
  113OSM    C6S11720   5.099   1.124  10.058 -0.2625  0.1904 -0.2792
  113OSM    H6S11721   5.028   1.055  10.006  1.5686 -2.0533  0.1175
  113OSM    H6T11722   5.178   1.046  10.064 -1.4302 -1.0478 -0.6607
  113OSM    C7S11723   5.140   1.243   9.968  0.2406  0.2017 -0.5692
  113OSM    H7S11724   5.217   1.309  10.012 -0.2010  0.0322  0.4610
  113OSM    H7T11725   5.046   1.302   9.957  0.7819  1.0630 -0.5621
  113OSM    C8S11726   5.183   1.208   9.827 -0.0157  0.3480 -0.0841
  113OSM    H8S11727   5.166   1.301   9.769  2.2615 -0.1745 -1.6530
  113OSM    H8T11728   5.116   1.127   9.791 -0.0956 -0.2118  1.3023
  113OSM    C9S11729   5.336   1.176   9.800  0.1824 -0.3863 -0.1981
  113OSM    H9S11730   5.355   1.070   9.827  1.6926  0.3148  1.4929
  113OSM    H9T11731   5.387   1.243   9.872 -0.2887 -3.2348  2.8814
  113OSM   C10S11732   5.384   1.199   9.656 -0.0357 -0.4330 -0.0847
  113OSM   H10S11733   5.491   1.170   9.656 -0.1243 -0.7761 -0.7099
  113OSM   H10T11734   5.374   1.307   9.633  2.1571 -0.3031 -0.4997
  113OSM   C11S11735   5.312   1.107   9.556 -0.0841 -0.5462  1.0835
  113OSM   H11S11736   5.215   1.081   9.603 -1.1693 -2.2588 -1.9536
  113OSM   H11T11737   5.367   1.013   9.536 -2.0648 -1.2022 -1.5458
  113OSM   C12S11738   5.312   1.173   9.418  0.2008  0.3877 -0.5147
  113OSM   H12S11739   5.413   1.213   9.394 -0.8609  2.1697 -2.2009
  113OSM   H12T11740   5.247   1.263   9.421 -0.7938 -0.2504 -2.4371
  113OSM   C13S11741   5.262   1.097   9.292 -0.2826  0.1966  0.1007
  113OSM   H13S11742   5.165   1.055   9.325 -0.2796 -0.2510 -0.4665
  113OSM   H13T11743   5.333   1.018   9.261 -0.0161 -0.2457  1.8106
  113OSM   C14S11744   5.239   1.199   9.179  0.0921  0.4291  0.2848
  113OSM   H14S11745   5.316   1.279   9.179  1.8490 -1.2393  1.9056
  113OSM   H14T11746   5.141   1.252   9.183 -0.0916  0.3282 -1.8640
  113OSM   C15S11747   5.251   1.138   9.044  0.3817  0.0627  0.6543
  113OSM   H15S11748   5.209   1.036   9.052 -1.1563  0.2560 -3.9471
  113OSM   H15T11749   5.359   1.122   9.021  0.0624 -0.3756 -0.5573
  113OSM   C16S11750   5.193   1.227   8.929  0.5545 -0.8959 -0.6946
  113OSM   H16S11751   5.242   1.323   8.955  1.6411 -0.7480 -3.1750
  113OSM   H16T11752   5.084   1.245   8.931  0.6076 -0.6263  0.3267
  113OSM   C17S11753   5.238   1.168   8.794  0.2407  0.1034  0.0906
  113OSM   H17S11754   5.182   1.072   8.788 -0.3847  0.3997  1.1008
  113OSM   H17T11755   5.346   1.144   8.782 -0.5312 -2.5905 -2.1454
  113OSM   C18S11756   5.205   1.256   8.672  0.3086  0.2677  0.1257
  113OSM   H18S11757   5.098   1.282   8.684 -0.6981 -2.8145 -1.6258
  113OSM   H18T11758   5.215   1.188   8.584  0.6380  1.4018 -0.7338
  113OSM   H18U11759   5.264   1.350   8.666  0.7771 -0.0983 -1.2932
  113OSM    C1F11760   5.167   0.806  10.551 -0.5113  0.0020  0.4352
  113OSM     OF11761   5.078   0.787  10.634  0.5357 -0.0382 -0.3734
  113OSM    C2F11762   5.246   0.688  10.507 -0.5169  0.0842  0.0139
  113OSM    H2F11763   5.269   0.627  10.597 -1.3411  0.9156  0.7909
  113OSM    H2G11764   5.347   0.715  10.470 -0.9912  2.8519  0.6755
  113OSM    C3F11765   5.171   0.597  10.401  0.6118  1.4210  0.0409
  113OSM    H3F11766   5.094   0.539  10.456 -0.0144  0.7911 -1.4728
  113OSM    H3G11767   5.252   0.525  10.375 -1.4768 -1.4147  1.1709
  113OSM    C4F11768   5.105   0.671  10.285 -0.6344 -0.0712 -0.4759
  113OSM    H4F11769   5.037   0.746  10.330 -0.0584 -0.4603  1.0411
  113OSM    H4G11770   5.046   0.590  10.237 -0.2844 -1.1391  0.8791
  113OSM    C5F11771   5.202   0.708  10.172 -0.1318 -0.2103  0.2057
  113OSM    H5F11772   5.285   0.634  10.163 -0.6417 -0.7649 -0.0082
  113OSM    H5G11773   5.252   0.805  10.189 -0.6060 -0.2482  1.9270
  113OSM    C6F11774   5.147   0.713  10.029 -0.2390  0.0231  0.6970
  113OSM    H6F11775   5.070   0.792  10.038  0.3731  0.7820 -0.6197
  113OSM    H6G11776   5.082   0.624  10.014 -1.7487  1.2605 -0.1031
  113OSM    C7F11777   5.246   0.735   9.915 -0.2937  0.3975  0.4051
  113OSM    H7F11778   5.339   0.682   9.943  0.2122  0.7750 -0.5691
  113OSM    H7G11779   5.280   0.840   9.924  1.1476 -0.0306 -0.0466
  113OSM    C8F11780   5.216   0.690   9.771 -0.0728  0.1808 -0.2542
  113OSM    H8F11781   5.142   0.755   9.721  0.4835 -0.2833 -1.7161
  113OSM    H8G11782   5.171   0.588   9.779 -2.6577  1.4635  2.7824
  113OSM    C9F11783   5.333   0.684   9.669  0.4534  0.0526  0.2876
  113OSM    H9F11784   5.360   0.787   9.642 -1.1526  1.1311  2.6320
  113OSM   C10F11785   5.404   0.577   9.623  0.5888 -0.5270 -0.2613
  113OSM   H10F11786   5.474   0.593   9.540  0.0434  1.6970 -0.3422
  113OSM   C11F11787   5.393   0.430   9.670  0.1779  0.3446  0.4435
  113OSM   H11F11788   5.289   0.401   9.697  0.2725 -0.7330 -0.2983
  113OSM   H11G11789   5.463   0.398   9.750 -0.0507 -0.2558  0.4057
  113OSM   C12F11790   5.428   0.345   9.542 -0.5765 -0.6965  0.0363
  113OSM   H12F11791   5.345   0.337   9.468 -1.5234 -1.0956  1.1219
  113OSM   H12G11792   5.446   0.238   9.564  0.6186 -0.6635 -0.7430
  113OSM   C13F11793   5.560   0.380   9.473 -0.6838 -0.2834  0.2643
  113OSM   H13F11794   5.630   0.396   9.558  1.4953 -2.0813 -1.1461
  113OSM   H13G11795   5.560   0.472   9.411  1.0212  0.9208  1.9870
  113OSM   C14F11796   5.621   0.267   9.387 -0.2536 -0.1983  0.2652
  113OSM   H14F11797   5.551   0.236   9.307 -0.0516 -0.6513  0.2623
  113OSM   H14G11798   5.630   0.170   9.441 -2.2343 -1.0205 -0.8241
  113OSM   C15F11799   5.761   0.287   9.333  0.5043 -1.1609  0.4714
  113OSM   H15F11800   5.829   0.321   9.414  1.2506 -1.0491 -0.1927
  113OSM   H15G11801   5.752   0.359   9.248 -0.0466  0.1856  1.6564
  113OSM   C16F11802   5.821   0.164   9.275  0.7179  0.4728  0.1392
  113OSM   H16F11803   5.757   0.132   9.190  0.3183  0.9783  0.2457
  113OSM   H16G11804   5.809   0.074   9.340 -0.6318  0.1041 -0.6035
  113OSM   C17F11805   5.966   0.174   9.231 -0.3912  0.2416 -0.2890
  113OSM   H17F11806   6.026   0.175   9.325  1.2659 -2.1349 -1.2650
  113OSM   H17G11807   5.983   0.274   9.187 -0.8495  0.9889  1.2123
  113OSM   C18F11808   6.012   0.056   9.141 -0.3553  0.0721 -0.3063
  113OSM   H18F11809   5.949   0.046   9.050 -0.3751 -4.9346  0.1166
  113OSM   H18G11810   5.993  -0.039   9.196  0.5096 -0.9012 -1.6742
  113OSM   H18H11811   6.123   0.058   9.130 -0.3374 -2.9390 -0.9839
  114OSM      N11812   6.407   0.147  11.567 -0.2426 -0.0411 -0.0666
  114OSM    C1511813   6.445   0.104  11.707  0.2295  0.4141  0.4252
  114OSM   H15A11814   6.357   0.101  11.770  0.4097  0.8606  0.6981
  114OSM   H15B11815   6.517   0.174  11.746  0.5705  0.7977 -0.8895
  114OSM   H15C11816   6.488   0.005  11.718  0.9997  1.0548  3.5783
  114OSM    C1411817   6.359   0.288  11.573  0.4897 -0.6260 -0.0083
  114OSM   H14A11818   6.365   0.330  11.474 -1.1064 -2.4487 -0.8943
  114OSM   H14B11819   6.417   0.356  11.634 -0.3885  0.1316 -0.0127
  114OSM   H14C11820   6.255   0.285  11.603 -0.0170 -0.8602 -1.7494
  114OSM    C1311821   6.530   0.141  11.494  0.2801 -0.0672 -0.2314
  114OSM   H13A11822   6.517   0.193  11.400 -2.5992 -0.0017  0.1636
  114OSM   H13B11823   6.559   0.039  11.475 -0.3111 -0.3038  0.1069
  114OSM   H13C11824   6.607   0.198  11.543  0.9940  0.7652 -2.2753
  114OSM    C1211825   6.299   0.053  11.510  0.2633 -0.4135  0.6133
  114OSM   H12A11826   6.339  -0.041  11.474  1.1442  0.6528 -1.2478
  114OSM   H12B11827   6.273   0.105  11.420  2.7578 -2.2298 -1.2154
  114OSM    C1111828   6.174   0.038  11.607  0.2095 -0.4760  0.1151
  114OSM   H11A11829   6.204   0.004  11.709 -0.5578 -0.4494  0.3535
  114OSM   H11B11830   6.118  -0.049  11.565  0.7659  0.3227 -2.3200
  114OSM      P11831   6.015   0.200  11.496  0.3923  0.3361 -0.4236
  114OSM    O1311832   5.900   0.106  11.500 -0.2534  0.3971  0.2040
  114OSM    O1411833   5.969   0.343  11.505 -0.0073 -0.2214 -0.6097
  114OSM    O1111834   6.102   0.185  11.368  0.4915  0.3688  0.1711
  114OSM    O1211835   6.104   0.165  11.621 -0.0821 -0.3016  0.0554
  114OSM    C1S11836   6.052   0.225  11.232  0.3494 -0.2738 -0.1924
  114OSM    H1S11837   6.079   0.331  11.216  2.0742 -0.8388 -1.2226
  114OSM    H1T11838   5.941   0.223  11.231  0.2972 -2.2243  2.5307
  114OSM     NF11839   6.087   0.202  10.983  0.1531  0.0512 -0.7018
  114OSM    HNF11840   6.023   0.154  10.924  0.1456 -0.9572  0.1065
  114OSM    C2S11841   6.098   0.138  11.116 -0.1833 -0.4426  0.1203
  114OSM    H2S11842   6.206   0.126  11.141  0.1268  1.2671 -0.3418
  114OSM    C3S11843   6.023   0.001  11.125  0.2560 -0.6881 -0.1254
  114OSM    H3S11844   5.915   0.028  11.120  0.1305 -1.1695 -0.0074
  114OSM     O311845   6.044  -0.061  11.250  0.2048  0.1095  0.0738
  114OSM    HO311846   6.104   0.003  11.290 -1.1736  2.2448 -1.1588
  114OSM    C4S11847   6.064  -0.092  11.022  0.2168 -0.9233  0.3489
  114OSM    H4S11848   6.160  -0.143  11.037  0.1038 -2.0598 -2.4959
  114OSM    C5S11849   5.984  -0.120  10.918 -0.3297 -0.4222 -0.3392
  114OSM    H5S11850   5.886  -0.072  10.909 -0.8195 -1.3731 -0.0619
  114OSM    C6S11851   6.026  -0.224  10.819  0.3653  0.0676  0.3201
  114OSM    H6S11852   5.934  -0.271  10.778 -0.5975  2.9957 -1.0414
  114OSM    H6T11853   6.095  -0.300  10.863  0.7244 -1.3371 -2.5403
  114OSM    C7S11854   6.098  -0.165  10.702 -0.4900  0.1251  0.3171
  114OSM    H7S11855   6.199  -0.124  10.727  0.8788 -1.3138 -2.6627
  114OSM    H7T11856   6.036  -0.077  10.673  2.3204  2.1041 -0.0012
  114OSM    C8S11857   6.118  -0.263  10.589 -0.2349  0.3980 -0.0194
  114OSM    H8S11858   6.017  -0.309  10.578 -0.2007 -0.0917  1.5396
  114OSM    H8T11859   6.204  -0.326  10.619 -0.0357  1.6278  2.0644
  114OSM    C9S11860   6.147  -0.194  10.453 -0.6189  0.3929  0.6330
  114OSM    H9S11861   6.233  -0.124  10.460 -0.1984 -0.2184  1.7459
  114OSM    H9T11862   6.051  -0.153  10.416 -1.6886 -1.3448  1.3971
  114OSM   C10S11863   6.195  -0.297  10.345  0.2681 -0.1342  0.0330
  114OSM   H10S11864   6.115  -0.374  10.331  0.5275  0.0079 -2.5576
  114OSM   H10T11865   6.289  -0.348  10.376 -0.0441 -0.2433  0.7937
  114OSM   C11S11866   6.227  -0.223  10.212 -0.1310  0.3189  0.0369
  114OSM   H11S11867   6.290  -0.290  10.149  1.3193  2.7686 -1.2181
  114OSM   H11T11868   6.285  -0.129  10.229  1.4823 -0.5998 -0.3018
  114OSM   C12S11869   6.121  -0.207  10.103 -0.3931  0.0888  0.4172
  114OSM   H12S11870   6.042  -0.144  10.151  1.0400  0.4713  2.3670
  114OSM   H12T11871   6.086  -0.304  10.062 -0.4424  0.4911 -0.5040
  114OSM   C13S11872   6.161  -0.109   9.992  0.3767 -0.1635 -0.5274
  114OSM   H13S11873   6.207  -0.019  10.038 -0.4106 -0.4463  0.8331
  114OSM   H13T11874   6.070  -0.075   9.939 -1.8608  0.6468  3.6884
  114OSM   C14S11875   6.258  -0.175   9.896 -0.0128  0.2551  0.5256
  114OSM   H14S11876   6.203  -0.234   9.820  1.5329  1.9404 -1.9846
  114OSM   H14T11877   6.322  -0.252   9.944  0.7403  1.1319  0.9598
  114OSM   C15S11878   6.351  -0.073   9.826  0.0605  0.0108 -0.3028
  114OSM   H15S11879   6.285   0.015   9.805  1.9390  1.1797 -1.4487
  114OSM   H15T11880   6.397  -0.097   9.728  1.1989  0.5603  0.0864
  114OSM   C16S11881   6.463  -0.025   9.920  1.2353  0.5171  0.6272
  114OSM   H16S11882   6.517  -0.113   9.962 -1.2685 -1.0711  0.6004
  114OSM   H16T11883   6.426   0.028  10.010  2.4257  2.6145 -0.0673
  114OSM   C17S11884   6.569   0.057   9.850 -0.4002 -0.0935 -0.0153
  114OSM   H17S11885   6.528   0.158   9.831  0.6722  0.5242  0.8968
  114OSM   H17T11886   6.597   0.009   9.754 -0.0839 -0.3926  0.2268
  114OSM   C18S11887   6.686   0.083   9.943 -0.5010  0.1173  0.1116
  114OSM   H18S11888   6.652   0.135  10.034 -1.0595  0.9885 -0.5831
  114OSM   H18T11889   6.764   0.140   9.888 -0.6400 -1.5009 -1.8147
  114OSM   H18U11890   6.728  -0.013   9.981 -0.7176 -0.4057 -0.9384
  114OSM    C1F11891   6.174   0.291  10.945 -0.5337 -0.2166 -0.0419
  114OSM     OF11892   6.272   0.325  11.013  0.1074  0.8158  0.1810
  114OSM    C2F11893   6.154   0.338  10.803 -0.1054 -0.1800 -0.0890
  114OSM    H2F11894   6.213   0.432  10.801 -0.2780 -0.0216  1.5298
  114OSM    H2G11895   6.046   0.364  10.799 -0.0660 -0.1795 -1.1863
  114OSM    C3F11896   6.184   0.231  10.693 -0.8613 -0.0210 -0.0507
  114OSM    H3F11897   6.200   0.287  10.598  1.3872  0.4555  0.6001
  114OSM    H3G11898   6.102   0.157  10.683 -0.2026 -0.9130  1.1146
  114OSM    C4F11899   6.314   0.150  10.718  0.4573 -0.3001  0.2781
  114OSM    H4F11900   6.289   0.054  10.767  0.8090 -0.5193  0.0343
  114OSM    H4G11901   6.377   0.212  10.785 -0.4825  2.4090 -1.2542
  114OSM    C5F11902   6.386   0.117  10.586  0.6348  0.2462  0.3868
  114OSM    H5F11903   6.423   0.211  10.539  3.4695 -1.1936 -0.3777
  114OSM    H5G11904   6.311   0.066  10.522  3.1552 -0.0518 -2.4363
  114OSM    C6F11905   6.501   0.010  10.600 -0.1285  0.8066 -0.3879
  114OSM    H6F11906   6.471  -0.082  10.654  0.7067  1.4621  1.1965
  114OSM    H6G11907   6.568   0.065  10.668  1.1432  1.3232 -2.0241
  114OSM    C7F11908   6.562  -0.021  10.462  0.1319 -0.5240  0.6775
  114OSM    H7F11909   6.480  -0.073  10.408 -0.8284 -0.1988  1.8099
  114OSM    H7G11910   6.645  -0.092  10.484  0.4521 -0.5473 -0.5731
  114OSM    C8F11911   6.610   0.095  10.370  0.5727 -0.7053  0.2278
  114OSM    H8F11912   6.538   0.179  10.360  1.1799 -0.1729  0.3107
  114OSM    H8G11913   6.623   0.056  10.266 -2.2581 -1.3339  0.0513
  114OSM    C9F11914   6.736   0.155  10.426  0.1772  0.3932  0.1944
  114OSM    H9F11915   6.712   0.235  10.499 -1.5984 -0.4019  0.4880
  114OSM   C10F11916   6.871   0.129  10.391 -0.1335 -0.0818  0.1756
  114OSM   H10F11917   6.954   0.175  10.447 -2.2839  1.4349  2.2103
  114OSM   C11F11918   6.927   0.036  10.288  0.4562 -0.9942 -0.6357
  114OSM   H11F11919   6.843  -0.008  10.231 -1.2651  0.2824  0.8706
  114OSM   H11G11920   6.991  -0.046  10.329 -0.5193 -1.3901  0.1150
  114OSM   C12F11921   7.019   0.105  10.186  0.0965 -0.2171  0.3769
  114OSM   H12F11922   7.104   0.165  10.224  0.1068 -1.3488  2.1896
  114OSM   H12G11923   6.955   0.163  10.116 -0.1502 -1.9481 -0.8972
  114OSM   C13F11924   7.075  -0.014  10.098 -0.4907  0.2404 -0.5046
  114OSM   H13F11925   6.983  -0.058  10.054 -0.6628  0.6405 -0.5526
  114OSM   H13G11926   7.125  -0.078  10.174  1.4636  0.0676 -1.9008
  114OSM   C14F11927   7.180   0.025   9.990 -0.3116 -1.0217 -0.2459
  114OSM   H14F11928   7.238  -0.061   9.949 -0.1319 -0.8973 -0.2514
  114OSM   H14G11929   7.246   0.092  10.049  0.5042 -0.6515 -1.5623
  114OSM   C15F11930   7.118   0.112   9.874  0.2525 -0.1498  0.5710
  114OSM   H15F11931   7.191   0.167   9.811 -0.7148  1.5016  0.8848
  114OSM   H15G11932   7.064   0.199   9.917  0.5140 -1.0704  2.8480
  114OSM   C16F11933   7.032   0.036   9.774  0.0568 -0.3501 -0.7606
  114OSM   H16F11934   6.988   0.110   9.704 -1.3214  1.1143  1.5969
  114OSM   H16G11935   6.952  -0.010   9.837 -1.2019  0.3517 -1.8250
  114OSM   C17F11936   7.117  -0.061   9.693  0.2288 -0.6523  0.0147
  114OSM   H17F11937   7.155  -0.147   9.752 -0.4802 -0.3421  0.9312
  114OSM   H17G11938   7.205  -0.005   9.652  0.5161  0.2749  1.8478
  114OSM   C18F11939   7.037  -0.124   9.573 -0.4541  0.0882 -0.1458
  114OSM   H18F11940   7.100  -0.190   9.509 -2.1750 -1.3217 -0.4521
  114OSM   H18G11941   6.993  -0.046   9.508  0.5607  0.6899 -0.1272
  114OSM   H18H11942   6.966  -0.204   9.604 -1.2571  0.1561 -1.7445
  115OSM      N11943   6.644   3.331   6.440 -0.0839  0.3094 -0.5369
  115OSM    C1511944   6.757   3.300   6.532 -0.2927  0.8088  0.2886
  115OSM   H15A11945   6.738   3.321   6.636  0.3595 -1.4278  0.9033
  115OSM   H15B11946   6.843   3.362   6.511  1.0708 -1.5995 -1.5296
  115OSM   H15C11947   6.804   3.202   6.524  0.6200  1.2528  0.1316
  115OSM    C1411948   6.531   3.237   6.471 -0.5233  0.3311  0.5139
  115OSM   H14A11949   6.444   3.260   6.411  1.3950  2.2405 -1.6219
  115OSM   H14B11950   6.507   3.250   6.576 -2.1393 -1.0645  0.3303
  115OSM   H14C11951   6.553   3.133   6.456  1.9508  0.9644 -0.5315
  115OSM    C1311952   6.586   3.468   6.464  0.4442 -0.2563 -0.6591
  115OSM   H13A11953   6.486   3.478   6.427  0.2425  1.6845  0.3308
  115OSM   H13B11954   6.646   3.546   6.421 -0.9896  0.4821 -1.3289
  115OSM   H13C11955   6.570   3.486   6.570 -1.9055 -1.8087 -0.7087
  115OSM    C1211956   6.689   3.319   6.301  0.2522  0.1756  0.2719
  115OSM   H12A11957   6.614   3.357   6.233 -0.5337  1.0392  1.5893
  115OSM   H12B11958   6.700   3.213   6.285 -2.6985  0.0680 -1.3002
  115OSM    C1111959   6.820   3.387   6.270  0.0678  0.2612 -0.0393
  115OSM   H11A11960   6.853   3.346   6.172 -0.9062 -1.9671  0.5299
  115OSM   H11B11961   6.908   3.349   6.326  0.0047 -1.4801 -1.0744
  115OSM      P11962   6.933   3.614   6.217 -0.1096  0.1660 -0.0624
  115OSM    O1311963   7.042   3.524   6.169  0.5399  0.4016 -0.1438
  115OSM    O1411964   6.877   3.715   6.127  0.2049 -0.2961 -0.3411
  115OSM    O1111965   6.974   3.684   6.359 -0.2080  0.1429 -0.1951
  115OSM    O1211966   6.807   3.525   6.261  0.3412  0.0932  0.1328
  115OSM    C1S11967   7.002   3.600   6.476 -0.4262  0.7510 -0.5040
  115OSM    H1S11968   7.087   3.528   6.468 -0.1421  0.9273  0.8829
  115OSM    H1T11969   6.909   3.543   6.496 -0.3417  0.4644 -0.9159
  115OSM     NF11970   7.101   3.624   6.713 -0.0748 -0.3536  0.0771
  115OSM    HNF11971   7.036   3.605   6.786 -0.1618  0.1562  0.1374
  115OSM    C2S11972   7.037   3.690   6.600 -0.1975 -0.0611  0.4676
  115OSM    H2S11973   7.115   3.764   6.571 -1.9094  0.8554 -1.9698
  115OSM    C3S11974   6.904   3.760   6.643  0.4338  0.4818 -0.5739
  115OSM    H3S11975   6.838   3.680   6.682 -0.3974  0.7015 -1.5202
  115OSM     O311976   6.829   3.825   6.535  0.2665  0.0832 -0.6032
  115OSM    HO311977   6.851   3.784   6.451 -1.1435 -4.1267  0.8916
  115OSM    C4S11978   6.932   3.858   6.760 -0.3022 -0.5107 -0.0077
  115OSM    H4S11979   6.899   3.833   6.862 -0.8703  1.3639  0.2890
  115OSM    C5S11980   6.990   3.981   6.747  0.0715 -0.3650 -0.5243
  115OSM    H5S11981   7.027   4.016   6.650 -0.0319  2.6688  0.4833
  115OSM    C6S11982   7.023   4.073   6.869 -0.5735 -0.0618  0.1127
  115OSM    H6S11983   6.967   4.165   6.841 -0.6635 -0.4105 -0.8851
  115OSM    H6T11984   7.131   4.101   6.872 -0.0390 -2.1178  1.3113
  115OSM    C7S11985   6.979   4.030   7.010  0.4915  0.0529  0.3004
  115OSM    H7S11986   7.018   3.930   7.039  0.7107  0.6746  2.2311
  115OSM    H7T11987   6.868   4.020   7.012  0.4517  0.4965  0.2126
  115OSM    C8S11988   7.018   4.133   7.108 -0.0392  0.6329 -0.6907
  115OSM    H8S11989   6.978   4.231   7.073 -1.9214  0.2080  0.2148
  115OSM    H8T11990   7.126   4.147   7.130  0.1154  1.2651 -1.7854
  115OSM    C9S11991   6.940   4.112   7.242  0.5271 -0.3270  0.3605
  115OSM    H9S11992   6.999   4.043   7.307 -0.7300  0.0798  1.9615
  115OSM    H9T11993   6.844   4.070   7.207  0.4843  1.2402 -1.4529
  115OSM   C10S11994   6.926   4.242   7.323  0.7819 -0.3006 -0.1550
  115OSM   H10S11995   6.875   4.318   7.261 -0.3404 -0.4222  0.5998
  115OSM   H10T11996   7.030   4.263   7.356 -0.1395  0.9793  2.0194
  115OSM   C11S11997   6.845   4.238   7.457 -0.1192 -0.1798  0.2085
  115OSM   H11S11998   6.882   4.147   7.510 -0.2337 -0.5514 -0.3520
  115OSM   H11T11999   6.737   4.219   7.441  0.3045 -3.0934  0.5261
  115OSM   C12S12000   6.866   4.360   7.552 -0.1997  0.4713  0.5818
  115OSM   H12S12001   6.814   4.450   7.513  1.4791  0.4400 -1.8301
  115OSM   H12T12002   6.975   4.381   7.549  0.0524 -0.5006  2.2131
  115OSM   C13S12003   6.840   4.320   7.693  0.1846 -0.6015 -0.1609
  115OSM   H13S12004   6.925   4.253   7.718  0.1886 -0.4102  0.3494
  115OSM   H13T12005   6.739   4.275   7.708 -0.6202  1.0432 -0.5436
  115OSM   C14S12006   6.833   4.436   7.787  0.2066 -0.8050 -0.0597
  115OSM   H14S12007   6.770   4.522   7.757  0.6925  0.2400  1.8322
  115OSM   H14T12008   6.937   4.471   7.804  0.5479 -3.1613  3.3643
  115OSM   C15S12009   6.771   4.390   7.920  0.1741  0.6856  0.0874
  115OSM   H15S12010   6.850   4.322   7.960 -0.2252 -0.2038 -0.6307
  115OSM   H15T12011   6.683   4.324   7.907  1.2204 -0.3813 -1.8855
  115OSM   C16S12012   6.734   4.509   8.010  0.9698 -0.0422 -0.3683
  115OSM   H16S12013   6.670   4.480   8.097 -0.7842 -0.7981 -1.8783
  115OSM   H16T12014   6.681   4.577   7.940 -0.4841  1.6267  2.2444
  115OSM   C17S12015   6.868   4.566   8.068 -0.3412 -0.0344 -0.0084
  115OSM   H17S12016   6.910   4.642   8.000  1.6747 -0.5059  0.6678
  115OSM   H17T12017   6.939   4.483   8.088  3.7265  3.0422 -1.2562
  115OSM   C18S12018   6.845   4.622   8.210  0.1398  0.9189 -0.0674
  115OSM   H18S12019   6.940   4.663   8.251  0.5455 -1.1097  1.0631
  115OSM   H18T12020   6.793   4.540   8.263  0.1350 -1.7172 -3.9612
  115OSM   H18U12021   6.777   4.710   8.204  0.3122  1.0679  0.1618
  115OSM    C1F12022   7.214   3.560   6.708 -0.3947  0.3657 -0.4097
  115OSM     OF12023   7.282   3.569   6.609 -0.1909  0.3318 -0.1025
  115OSM    C2F12024   7.235   3.455   6.817 -0.4629  0.0231  0.1477
  115OSM    H2F12025   7.190   3.359   6.786  2.5423 -1.0940 -0.9245
  115OSM    H2G12026   7.180   3.492   6.906  0.1846 -0.0852  0.6005
  115OSM    C3F12027   7.381   3.438   6.867  0.0981  0.5808 -0.5907
  115OSM    H3F12028   7.434   3.534   6.886  1.0413 -0.2986  1.4390
  115OSM    H3G12029   7.436   3.366   6.804  0.4704 -0.1374  0.5451
  115OSM    C4F12030   7.371   3.374   7.012 -0.5388 -0.5291  0.6733
  115OSM    H4F12031   7.321   3.275   7.001 -1.5381  0.0562 -0.2157
  115OSM    H4G12032   7.314   3.439   7.082 -1.2439 -0.8988  0.4488
  115OSM    C5F12033   7.512   3.356   7.069 -0.2733  0.7656  0.2696
  115OSM    H5F12034   7.568   3.450   7.052  0.5792 -0.0816 -1.7161
  115OSM    H5G12035   7.563   3.274   7.015 -1.8727 -0.0415 -0.0531
  115OSM    C6F12036   7.508   3.336   7.226 -0.3218 -0.0942  0.0330
  115OSM    H6F12037   7.434   3.257   7.254  2.3389 -2.5729  0.2573
  115OSM    H6G12038   7.466   3.430   7.269 -0.0142  0.1778 -0.2602
  115OSM    C7F12039   7.651   3.308   7.266  0.7895  0.2349 -0.6903
  115OSM    H7F12040   7.717   3.380   7.213 -0.3434  1.5818 -0.2982
  115OSM    H7G12041   7.685   3.210   7.227 -1.2343  0.0492 -2.1160
  115OSM    C8F12042   7.655   3.334   7.416  0.0657  0.1413  0.9907
  115OSM    H8F12043   7.570   3.396   7.450  0.0564  1.0770 -0.6535
  115OSM    H8G12044   7.751   3.384   7.438 -0.1416  1.7611 -1.5546
  115OSM    C9F12045   7.650   3.205   7.491 -0.4610 -0.6254  0.3055
  115OSM    H9F12046   7.571   3.135   7.459  0.8775 -1.5527 -1.0356
  115OSM   C10F12047   7.726   3.172   7.603  0.6062 -0.0237 -0.2377
  115OSM   H10F12048   7.710   3.080   7.661  1.1381 -0.3545 -0.6110
  115OSM   C11F12049   7.836   3.262   7.669 -0.2326 -0.0899 -0.2068
  115OSM   H11F12050   7.862   3.348   7.605  1.5978 -0.4985 -0.0340
  115OSM   H11G12051   7.927   3.202   7.692  1.8286  2.7655 -0.6613
  115OSM   C12F12052   7.789   3.321   7.802 -0.5701 -0.3282 -1.1293
  115OSM   H12F12053   7.704   3.389   7.781 -0.1595  0.3023 -0.7376
  115OSM   H12G12054   7.874   3.377   7.844 -0.8189 -0.8119  0.0433
  115OSM   C13F12055   7.757   3.219   7.911  0.3157  0.6015 -0.1436
  115OSM   H13F12056   7.850   3.163   7.934 -0.6085 -1.0122 -0.3143
  115OSM   H13G12057   7.681   3.149   7.872  1.7356 -2.0219  1.6216
  115OSM   C14F12058   7.704   3.287   8.045  0.4566 -0.3039  0.0450
  115OSM   H14F12059   7.617   3.353   8.026  1.9086  1.4063 -0.8125
  115OSM   H14G12060   7.787   3.356   8.071 -0.2496  0.5060  0.1442
  115OSM   C15F12061   7.687   3.193   8.161 -0.0325 -0.5227 -0.0159
  115OSM   H15F12062   7.787   3.147   8.175  0.0342  0.1561  1.9707
  115OSM   H15G12063   7.614   3.112   8.138 -0.4735 -0.6950  1.8790
  115OSM   C16F12064   7.641   3.257   8.299 -0.1165  0.3405 -0.8748
  115OSM   H16F12065   7.544   3.309   8.284 -1.4497 -1.2831  1.6886
  115OSM   H16G12066   7.727   3.320   8.330  0.9707 -1.0882 -0.9471
  115OSM   C17F12067   7.636   3.148   8.409  0.0785 -0.4234 -0.3005
  115OSM   H17F12068   7.639   3.191   8.511 -0.9549  5.1270 -2.4388
  115OSM   H17G12069   7.712   3.067   8.400  1.6189  0.8797  0.8952
  115OSM   C18F12070   7.502   3.070   8.383  0.2374 -0.5090 -0.2443
  115OSM   H18F12071   7.475   3.012   8.473  0.0759 -0.4803 -0.2742
  115OSM   H18G12072   7.491   3.021   8.284 -1.3572 -0.8397  0.0705
  115OSM   H18H12073   7.423   3.148   8.369  0.0492 -0.9278 -1.6029
  116OSM      N12074   6.583   1.082   6.293 -0.3559 -0.3622  0.0067
  116OSM    C1512075   6.511   1.128   6.417 -0.7749  0.2062  0.2207
  116OSM   H15A12076   6.548   1.073   6.503 -0.1400  0.9784  0.4500
  116OSM   H15B12077   6.404   1.120   6.407 -0.7814  1.4961 -0.9937
  116OSM   H15C12078   6.534   1.231   6.440  2.6440 -0.6602  1.0011
  116OSM    C1412079   6.546   0.938   6.287  0.2656 -0.4038  0.4608
  116OSM   H14A12080   6.611   0.886   6.356  0.6100 -1.3750 -0.5855
  116OSM   H14B12081   6.574   0.880   6.200 -0.0273 -1.6773  1.2000
  116OSM   H14C12082   6.445   0.915   6.315 -0.0278  1.8322  1.3628
  116OSM    C1312083   6.517   1.153   6.179  0.2407  0.6111 -0.1151
  116OSM   H13A12084   6.411   1.129   6.177  0.0415  1.5008 -0.6095
  116OSM   H13B12085   6.564   1.137   6.083 -0.1135 -0.0241 -0.1848
  116OSM   H13C12086   6.530   1.259   6.199  1.7712  0.1664  1.3771
  116OSM    C1212087   6.734   1.102   6.294 -0.2461 -0.7231 -0.3866
  116OSM   H12A12088   6.775   1.035   6.368  1.6279  1.2142  0.3744
  116OSM   H12B12089   6.756   1.207   6.308 -0.0043 -1.1577  2.7998
  116OSM    C1112090   6.815   1.058   6.167 -0.2209  0.2842 -0.0170
  116OSM   H11A12091   6.921   1.092   6.171  0.6048 -2.2504  0.7000
  116OSM   H11B12092   6.779   1.107   6.074  0.5245 -0.6038 -0.7776
  116OSM      P12093   6.893   0.808   6.226 -0.0258  0.0613  0.2777
  116OSM    O1312094   6.826   0.684   6.183  0.2219  0.0033  0.1972
  116OSM    O1412095   7.037   0.816   6.202  0.1938 -0.0500  0.2729
  116OSM    O1112096   6.864   0.829   6.381  0.2723  0.0611  0.0375
  116OSM    O1212097   6.818   0.914   6.140  0.7442 -0.7947 -0.0368
  116OSM    C1S12098   6.923   0.755   6.489 -0.2125  0.2448 -0.5033
  116OSM    H1S12099   7.033   0.751   6.472 -0.2689 -0.1674 -0.7599
  116OSM    H1T12100   6.876   0.655   6.490  2.9209 -1.3030 -0.4118
  116OSM     NF12101   6.972   0.737   6.731  0.3031  0.0262  0.2016
  116OSM    HNF12102   6.918   0.682   6.794 -1.6825  0.9384 -0.6314
  116OSM    C2S12103   6.892   0.810   6.631 -0.5677  0.6598  0.3648
  116OSM    H2S12104   6.931   0.914   6.641 -1.8660  1.1246  0.6214
  116OSM    C3S12105   6.739   0.810   6.660  0.1084  0.1339  0.7996
  116OSM    H3S12106   6.698   0.706   6.663  0.8699 -0.2450 -1.4359
  116OSM     O312107   6.668   0.852   6.548 -0.3432 -0.2332  0.2641
  116OSM    HO312108   6.729   0.822   6.481 -0.8940 -0.3253 -0.2018
  116OSM    C4S12109   6.706   0.896   6.783  0.3996 -0.3289  0.3287
  116OSM    H4S12110   6.689   0.850   6.881  1.2536  0.5666  0.9086
  116OSM    C5S12111   6.700   1.027   6.778  0.5298 -1.0763  0.7208
  116OSM    H5S12112   6.723   1.076   6.682 -0.9122 -2.2831 -0.2726
  116OSM    C6S12113   6.667   1.120   6.895 -0.2426  0.2435 -0.2442
  116OSM    H6S12114   6.570   1.172   6.876 -1.2887 -1.0797  1.2539
  116OSM    H6T12115   6.736   1.204   6.916 -0.9225  0.6976  0.1962
  116OSM    C7S12116   6.654   1.049   7.026 -0.5074  0.4731 -0.2219
  116OSM    H7S12117   6.735   0.987   7.071 -2.6056 -0.8401  1.8564
  116OSM    H7T12118   6.573   0.975   7.012 -0.0780  0.0299 -0.3913
  116OSM    C8S12119   6.597   1.153   7.131  1.0407 -0.4584  1.1088
  116OSM    H8S12120   6.502   1.200   7.098  0.6294 -1.9942  0.0593
  116OSM    H8T12121   6.656   1.247   7.142  0.5341  0.2045 -1.5477
  116OSM    C9S12122   6.583   1.082   7.264 -0.1928 -0.0312 -0.5523
  116OSM    H9S12123   6.682   1.074   7.313  0.5898  0.3301 -2.0689
  116OSM    H9T12124   6.542   0.979   7.254  0.5144 -0.6661  2.4101
  116OSM   C10S12125   6.496   1.164   7.362  0.3688  0.5211 -0.1759
  116OSM   H10S12126   6.395   1.164   7.316  0.5607 -0.4606 -0.6335
  116OSM   H10T12127   6.549   1.261   7.362 -0.0777  0.7659  0.0816
  116OSM   C11S12128   6.500   1.114   7.511  0.2534  0.6979 -0.3876
  116OSM   H11S12129   6.603   1.090   7.546 -0.1368  1.0371  1.0330
  116OSM   H11T12130   6.439   1.021   7.512 -0.6052  1.2499 -1.1176
  116OSM   C12S12131   6.421   1.219   7.592 -0.0156  0.0220  0.0747
  116OSM   H12S12132   6.322   1.240   7.548 -0.0521  0.7619  0.5001
  116OSM   H12T12133   6.481   1.313   7.592 -0.0129  0.0355  2.0866
  116OSM   C13S12134   6.402   1.168   7.737  0.1066  0.2222 -0.0242
  116OSM   H13S12135   6.504   1.149   7.775  0.9396 -0.4325 -2.4740
  116OSM   H13T12136   6.355   1.068   7.726 -1.9334  1.3508 -2.0682
  116OSM   C14S12137   6.317   1.252   7.835 -0.6432  0.9016  0.3367
  116OSM   H14S12138   6.219   1.272   7.787 -0.4409 -0.3025 -0.6081
  116OSM   H14T12139   6.371   1.348   7.845 -0.2420  0.4962  2.2492
  116OSM   C15S12140   6.305   1.194   7.976 -0.0434 -1.1878 -0.0458
  116OSM   H15S12141   6.404   1.189   8.027 -1.3700 -1.2008  2.6268
  116OSM   H15T12142   6.244   1.101   7.978 -1.7548 -0.0804  1.3503
  116OSM   C16S12143   6.216   1.279   8.065 -0.7952  0.2104  0.1847
  116OSM   H16S12144   6.125   1.298   8.004 -1.1639 -0.8844  0.3919
  116OSM   H16T12145   6.267   1.375   8.088  0.9344 -0.8475  0.8467
  116OSM   C17S12146   6.168   1.208   8.193 -0.1000  0.2924  0.6553
  116OSM   H17S12147   6.250   1.215   8.268 -0.7202  0.9066  1.2783
  116OSM   H17T12148   6.164   1.099   8.171 -0.6066  0.2889  0.7571
  116OSM   C18S12149   6.032   1.251   8.237 -0.3246  0.1405  0.5378
  116OSM   H18S12150   5.954   1.230   8.161 -0.8988  0.3374  1.0601
  116OSM   H18T12151   6.022   1.360   8.258 -2.2175 -0.2556  1.9285
  116OSM   H18U12152   5.995   1.210   8.334 -2.4905  0.1501 -0.2523
  116OSM    C1F12153   7.103   0.724   6.728 -0.1504  0.6939  0.6308
  116OSM     OF12154   7.181   0.813   6.700  0.2703  0.3810  0.1050
  116OSM    C2F12155   7.150   0.581   6.747 -0.1289  0.0009 -0.0559
  116OSM    H2F12156   7.254   0.584   6.787  0.1390  1.6077 -0.8179
  116OSM    H2G12157   7.148   0.531   6.648 -2.2668  1.4889 -0.7903
  116OSM    C3F12158   7.071   0.493   6.847 -0.4716 -0.2419 -0.4895
  116OSM    H3F12159   7.105   0.389   6.834 -1.5343 -0.5807 -0.6236
  116OSM    H3G12160   6.961   0.487   6.829 -0.9116  2.0132  1.1495
  116OSM    C4F12161   7.104   0.511   6.995  0.2862 -0.5207 -0.0541
  116OSM    H4F12162   7.210   0.482   7.011 -0.0974 -2.5552 -1.0396
  116OSM    H4G12163   7.039   0.438   7.048  2.6849 -1.5414  1.5737
  116OSM    C5F12164   7.098   0.653   7.057  0.0940 -0.4754  0.4076
  116OSM    H5F12165   6.995   0.695   7.049 -0.6066 -2.3080 -0.4151
  116OSM    H5G12166   7.150   0.730   6.995  0.7689 -2.0003 -0.9516
  116OSM    C6F12167   7.140   0.659   7.202  0.4590  0.2503 -0.1738
  116OSM    H6F12168   7.077   0.596   7.268  1.3938  0.6827  1.1495
  116OSM    H6G12169   7.106   0.764   7.212  0.1722  0.4133 -2.5744
  116OSM    C7F12170   7.284   0.631   7.222 -0.1240  0.2603  0.0146
  116OSM    H7F12171   7.344   0.698   7.157 -0.5137 -0.1409 -0.7669
  116OSM    H7G12172   7.306   0.525   7.197  1.5976  0.7150 -0.4526
  116OSM    C8F12173   7.322   0.652   7.365 -0.3413 -0.4117  0.3688
  116OSM    H8F12174   7.432   0.646   7.376 -0.2892 -1.2707 -0.6045
  116OSM    H8G12175   7.268   0.568   7.415 -1.1053 -0.0629  0.1365
  116OSM    C9F12176   7.269   0.777   7.431  0.2161  0.0581 -0.2864
  116OSM    H9F12177   7.246   0.857   7.359 -0.2630 -1.8094 -2.2464
  116OSM   C10F12178   7.260   0.799   7.565 -0.2185  0.5453  0.3750
  116OSM   H10F12179   7.213   0.894   7.597 -0.1353  1.0514 -0.9572
  116OSM   C11F12180   7.289   0.704   7.672  0.3056  0.1092 -0.1426
  116OSM   H11F12181   7.392   0.735   7.703  0.2537  0.7159 -0.5528
  116OSM   H11G12182   7.295   0.596   7.649 -0.9474 -0.1151  0.5543
  116OSM   C12F12183   7.182   0.723   7.778 -0.2159  0.0526  0.0499
  116OSM   H12F12184   7.179   0.638   7.850  2.4111  1.5454  1.9984
  116OSM   H12G12185   7.080   0.721   7.733 -0.0784 -0.7133 -0.2446
  116OSM   C13F12186   7.180   0.849   7.863  0.0855  0.6059 -0.3639
  116OSM   H13F12187   7.164   0.943   7.805 -1.9156  0.8900  0.5885
  116OSM   H13G12188   7.273   0.860   7.923  0.3202 -2.0590 -0.1787
  116OSM   C14F12189   7.066   0.845   7.971 -0.6350  0.0506 -0.7958
  116OSM   H14F12190   6.975   0.841   7.908 -1.7996  1.0922  0.7859
  116OSM   H14G12191   7.063   0.938   8.032  0.2536  0.2616 -1.0648
  116OSM   C15F12192   7.079   0.727   8.070  0.8541  0.3812  0.5366
  116OSM   H15F12193   7.176   0.738   8.123  0.2209 -0.8612  2.0138
  116OSM   H15G12194   7.068   0.628   8.020 -0.2283  0.3676  0.7907
  116OSM   C16F12195   6.973   0.721   8.189 -0.0813  0.3077 -0.0964
  116OSM   H16F12196   7.008   0.634   8.248  1.1864  1.0379  0.2362
  116OSM   H16G12197   6.867   0.698   8.164 -0.5425  1.3067  0.8993
  116OSM   C17F12198   6.983   0.849   8.274 -0.4962  0.3569  0.2070
  116OSM   H17F12199   6.947   0.942   8.225  1.3104  0.6205 -0.6682
  116OSM   H17G12200   7.092   0.859   8.290 -0.3013  0.4286 -1.0837
  116OSM   C18F12201   6.926   0.834   8.412  0.2823  0.8120 -0.0263
  116OSM   H18F12202   6.957   0.745   8.471 -0.9211  0.2820 -0.1750
  116OSM   H18G12203   6.816   0.818   8.411  0.4924 -0.7549 -1.8210
  116OSM   H18H12204   6.945   0.928   8.468 -1.4494  0.9538  0.3679
  117OSM      N12205   5.522   2.742   6.038  0.5229 -0.0002  0.5020
  117OSM    C1512206   5.637   2.796   6.113  0.1785  0.4640 -0.6021
  117OSM   H15A12207   5.725   2.796   6.050  0.9481  3.9500  0.3907
  117OSM   H15B12208   5.657   2.736   6.200 -0.6809  0.1917 -0.5853
  117OSM   H15C12209   5.612   2.897   6.142 -0.7085 -0.3243  1.4993
  117OSM    C1412210   5.509   2.829   5.918  0.3178 -0.5007 -0.1696
  117OSM   H14A12211   5.485   2.928   5.954 -6.3739 -2.6591  2.0451
  117OSM   H14B12212   5.432   2.787   5.855  2.2506 -1.0468 -2.2673
  117OSM   H14C12213   5.602   2.830   5.863 -1.0281 -2.4828 -2.5975
  117OSM    C1312214   5.550   2.606   5.979  0.3780  0.2667 -0.5076
  117OSM   H13A12215   5.592   2.540   6.054  1.7847 -0.2555 -1.7391
  117OSM   H13B12216   5.623   2.622   5.901 -0.8158 -0.9294 -1.9063
  117OSM   H13C12217   5.459   2.567   5.936 -0.6549  2.8664 -0.7437
  117OSM    C1212218   5.399   2.738   6.123  0.3118  0.2496 -0.3007
  117OSM   H12A12219   5.315   2.705   6.064 -0.2607  1.2042 -0.0477
  117OSM   H12B12220   5.371   2.841   6.141  0.7656  0.9251 -3.1138
  117OSM    C1112221   5.414   2.661   6.254  0.0030  0.9021 -0.2214
  117OSM   H11A12222   5.326   2.689   6.315  0.7813  2.0958  0.3628
  117OSM   H11B12223   5.509   2.698   6.299 -0.2302  2.3587 -0.8946
  117OSM      P12224   5.290   2.431   6.180 -0.2345  0.3128  0.1350
  117OSM    O1312225   5.233   2.503   6.063 -0.1971 -0.3764 -0.5971
  117OSM    O1412226   5.339   2.295   6.156  0.4096 -0.1835  0.4885
  117OSM    O1112227   5.182   2.436   6.300 -0.1004 -0.6258  0.4777
  117OSM    O1212228   5.416   2.515   6.235 -0.4336  0.2018 -0.0990
  117OSM    C1S12229   5.210   2.377   6.425 -0.4474  0.3195  0.4802
  117OSM    H1S12230   5.310   2.330   6.425 -0.0430  1.1378  2.3862
  117OSM    H1T12231   5.131   2.306   6.457 -0.2281  1.3815  3.5108
  117OSM     NF12232   5.232   2.406   6.669  0.2475  0.7267  0.0301
  117OSM    HNF12233   5.149   2.387   6.720  1.5784 -1.1014  1.6120
  117OSM    C2S12234   5.210   2.477   6.547  0.1422 -1.1165 -0.5065
  117OSM    H2S12235   5.292   2.549   6.527  0.7760 -1.8529 -0.5607
  117OSM    C3S12236   5.076   2.555   6.544 -0.1864 -0.1102 -0.7272
  117OSM    H3S12237   5.002   2.480   6.578  1.1961 -0.3944  1.7556
  117OSM     O312238   5.025   2.604   6.420  0.3161  0.5920  0.2868
  117OSM    HO312239   5.066   2.553   6.351 -1.0329  2.0307 -1.6189
  117OSM    C4S12240   5.088   2.671   6.643 -0.6996  0.2101 -0.4025
  117OSM    H4S12241   5.163   2.748   6.620 -0.9149  0.5781  0.0956
  117OSM    C5S12242   5.002   2.696   6.741  0.2287  0.0415  0.1239
  117OSM    H5S12243   4.909   2.637   6.749 -0.3768  0.8279 -1.1027
  117OSM    C6S12244   5.017   2.815   6.833  0.3544  0.0542  0.1539
  117OSM    H6S12245   4.938   2.889   6.808 -0.2192  0.2350  2.3485
  117OSM    H6T12246   5.110   2.869   6.807  0.5084  0.5406  1.6361
  117OSM    C7S12247   5.023   2.774   6.983  0.1283 -0.6919  0.0426
  117OSM    H7S12248   4.946   2.698   7.008 -1.7407 -0.0381 -3.5432
  117OSM    H7T12249   5.012   2.860   7.053  2.6253  0.0958 -0.4750
  117OSM    C8S12250   5.154   2.707   7.014  0.7567 -0.5543  0.0969
  117OSM    H8S12251   5.238   2.777   6.998 -0.0163  0.6157  1.0669
  117OSM    H8T12252   5.182   2.621   6.950 -0.3605 -0.2180 -0.8741
  117OSM    C9S12253   5.172   2.678   7.165 -0.0952 -0.4714 -0.6471
  117OSM    H9S12254   5.105   2.596   7.199  1.4915 -1.4143  0.3137
  117OSM    H9T12255   5.144   2.768   7.224 -2.6418 -1.9604  0.4951
  117OSM   C10S12256   5.316   2.641   7.199  0.1599 -0.7112  0.0404
  117OSM   H10S12257   5.382   2.723   7.164  1.1557  0.4279  4.3001
  117OSM   H10T12258   5.346   2.550   7.143  0.0108  0.5364 -2.1334
  117OSM   C11S12259   5.341   2.607   7.345  0.6959  0.5233  0.1250
  117OSM   H11S12260   5.269   2.528   7.375  1.1627 -0.2928 -0.8431
  117OSM   H11T12261   5.312   2.694   7.407 -2.0509 -0.2312 -0.0468
  117OSM   C12S12262   5.485   2.563   7.379 -0.1091 -0.2935  0.7437
  117OSM   H12S12263   5.561   2.637   7.346  0.2925 -1.2049 -0.3793
  117OSM   H12T12264   5.508   2.468   7.328  3.7478  1.2473 -0.6224
  117OSM   C13S12265   5.485   2.547   7.534 -0.6753  0.4680  0.0909
  117OSM   H13S12266   5.388   2.496   7.554 -0.2564 -0.0080  0.9147
  117OSM   H13T12267   5.496   2.644   7.585  1.1311 -0.3020  1.2144
  117OSM   C14S12268   5.597   2.464   7.571 -0.2679 -0.0585  0.3993
  117OSM   H14S12269   5.692   2.515   7.543 -1.0348  1.4914  0.5627
  117OSM   H14T12270   5.593   2.369   7.513 -5.0652  0.6678 -0.7126
  117OSM   C15S12271   5.620   2.411   7.706 -0.6016  1.1621  0.0221
  117OSM   H15S12272   5.630   2.500   7.771  0.6835 -0.7778  2.5965
  117OSM   H15T12273   5.710   2.346   7.703 -0.9751  0.1726  5.4540
  117OSM   C16S12274   5.499   2.341   7.759  0.7101 -0.3689  0.6502
  117OSM   H16S12275   5.451   2.267   7.693  0.1956 -0.1583  0.7835
  117OSM   H16T12276   5.419   2.415   7.781  0.9795 -0.0068  0.4170
  117OSM   C17S12277   5.532   2.263   7.890 -0.1670 -0.1522 -0.7933
  117OSM   H17S12278   5.588   2.170   7.869  0.7432 -0.3569  2.3245
  117OSM   H17T12279   5.434   2.245   7.940 -0.4258  1.2384 -0.7617
  117OSM   C18S12280   5.613   2.335   7.996  0.4977  0.4937  0.0729
  117OSM   H18S12281   5.617   2.264   8.081 -1.9967  1.4350  1.0218
  117OSM   H18T12282   5.556   2.427   8.021  0.3846 -0.2090  2.5246
  117OSM   H18U12283   5.713   2.357   7.953  0.2947  2.4127  0.5196
  117OSM    C1F12284   5.350   2.367   6.703  0.1990 -0.6666  0.3855
  117OSM     OF12285   5.448   2.377   6.625  0.6356 -0.1602 -0.0545
  117OSM    C2F12286   5.362   2.305   6.841 -0.4086  0.2762  0.9363
  117OSM    H2F12287   5.312   2.206   6.840 -0.2429  0.1542  3.0246
  117OSM    H2G12288   5.311   2.371   6.914 -1.4769  0.2781  0.1926
  117OSM    C3F12289   5.512   2.284   6.882 -0.6144  0.7381  0.2094
  117OSM    H3F12290   5.560   2.383   6.865  1.7496 -0.4486 -0.1601
  117OSM    H3G12291   5.567   2.215   6.815 -2.0355  0.4848 -0.7259
  117OSM    C4F12292   5.527   2.227   7.020  0.4159  0.6696  0.8068
  117OSM    H4F12293   5.477   2.128   7.022  0.7098  0.3997 -1.9910
  117OSM    H4G12294   5.462   2.294   7.080 -1.3091  0.7731 -1.1187
  117OSM    C5F12295   5.675   2.227   7.063  0.2085  0.1992  0.2327
  117OSM    H5F12296   5.746   2.266   6.987  1.2344  0.8835  1.5153
  117OSM    H5G12297   5.708   2.123   7.079  0.2179  0.1445 -0.1391
  117OSM    C6F12298   5.691   2.292   7.198 -0.0428 -0.3564 -0.2808
  117OSM    H6F12299   5.624   2.250   7.276  0.7623 -2.1020 -0.5058
  117OSM    H6G12300   5.679   2.403   7.197 -0.4885 -0.4060 -1.9356
  117OSM    C7F12301   5.840   2.268   7.256  0.1660  0.4390 -0.0945
  117OSM    H7F12302   5.899   2.303   7.169 -1.1813  0.9004 -0.8405
  117OSM    H7G12303   5.853   2.158   7.263  0.2678  0.4013 -0.8975
  117OSM    C8F12304   5.870   2.355   7.374  0.1725 -0.3664 -0.4666
  117OSM    H8F12305   5.789   2.332   7.446  2.5401 -4.4150  1.0690
  117OSM    H8G12306   5.868   2.463   7.347  0.2795  0.5247  2.9044
  117OSM    C9F12307   6.010   2.333   7.434 -0.1564 -0.4906  0.1286
  117OSM    H9F12308   6.072   2.280   7.360 -2.0486 -0.1537 -1.7532
  117OSM   C10F12309   6.053   2.374   7.556 -0.7031 -0.0980 -0.0012
  117OSM   H10F12310   6.160   2.358   7.572 -1.0987 -1.6247  1.2016
  117OSM   C11F12311   5.984   2.464   7.650 -0.3656 -0.5086  0.2276
  117OSM   H11F12312   5.941   2.403   7.733  2.5958  0.5977  2.6897
  117OSM   H11G12313   5.897   2.515   7.604 -0.5868 -2.0753 -1.1360
  117OSM   C12F12314   6.069   2.571   7.719 -0.3405  0.1981 -0.9940
  117OSM   H12F12315   6.005   2.640   7.777  1.6036  1.3730 -0.2229
  117OSM   H12G12316   6.124   2.631   7.644 -0.2994 -1.5695 -2.4027
  117OSM   C13F12317   6.178   2.523   7.828  0.2562  0.8371 -0.0708
  117OSM   H13F12318   6.245   2.455   7.771  0.5226  1.4524 -0.5059
  117OSM   H13G12319   6.125   2.465   7.906  1.1695 -0.3533 -0.3084
  117OSM   C14F12320   6.266   2.622   7.884 -0.2251  0.3041  0.2238
  117OSM   H14F12321   6.207   2.683   7.957 -0.7691 -1.1130  0.9777
  117OSM   H14G12322   6.315   2.686   7.807  0.1658 -2.1735 -1.6259
  117OSM   C15F12323   6.376   2.572   7.973 -0.0326 -0.4343 -0.4421
  117OSM   H15F12324   6.421   2.664   8.015 -1.8416 -0.7150  2.2726
  117OSM   H15G12325   6.454   2.533   7.904 -2.3214 -0.1925 -3.2316
  117OSM   C16F12326   6.345   2.470   8.084 -0.7307 -0.1566  0.1156
  117OSM   H16F12327   6.440   2.445   8.136 -2.2521 -1.6586  2.2755
  117OSM   H16G12328   6.310   2.374   8.042  2.0382 -1.2606  0.2380
  117OSM   C17F12329   6.248   2.509   8.195 -0.5967  0.5630 -0.0702
  117OSM   H17F12330   6.155   2.559   8.159 -0.7739  0.2296 -0.0750
  117OSM   H17G12331   6.207   2.411   8.227 -0.5757  0.1503 -1.2678
  117OSM   C18F12332   6.306   2.587   8.308 -0.0500 -0.5083 -0.9417
  117OSM   H18F12333   6.355   2.677   8.264  0.0912 -0.1159 -0.0138
  117OSM   H18G12334   6.370   2.523   8.372  1.1861 -0.5878 -2.2333
  117OSM   H18H12335   6.227   2.628   8.375  0.6480 -1.5416  0.5522
  118OSM      N12336   0.185   4.784   5.926 -0.2956  0.2930 -0.0450
  118OSM    C1512337   0.326   4.768   5.889 -0.5790 -0.0450  0.5284
  118OSM   H15A12338   0.338   4.750   5.784 -1.2287 -2.6311  0.8465
  118OSM   H15B12339   0.368   4.689   5.950 -0.3674 -1.4245 -1.3659
  118OSM   H15C12340   0.382   4.859   5.900 -2.2516  1.3050 -1.8540
  118OSM    C1412341   0.124   4.876   5.822 -0.2428 -0.6759 -0.2273
  118OSM   H14A12342   0.024   4.899   5.855 -0.3197 -0.3507 -0.6764
  118OSM   H14B12343   0.118   4.825   5.727 -1.3244 -2.3208  0.7186
  118OSM   H14C12344   0.178   4.970   5.814  0.2983 -1.0079 -0.5388
  118OSM    C1312345   0.111   4.657   5.930  0.1894  0.8276 -0.7801
  118OSM   H13A12346   0.139   4.593   5.847  0.0473 -0.3650  0.0777
  118OSM   H13B12347   0.003   4.659   5.920  0.0010 -2.7905 -0.3676
  118OSM   H13C12348   0.134   4.591   6.012 -1.0869  2.7382  1.1607
  118OSM    C1212349   0.177   4.848   6.073  0.5510  0.0775 -0.5998
  118OSM   H12A12350   0.072   4.861   6.094  0.8698  3.1140 -0.5644
  118OSM   H12B12351   0.227   4.944   6.067  1.5420 -0.4748 -1.2258
  118OSM    C1112352   0.245   4.776   6.199  0.5215 -0.1388  0.5547
  118OSM   H11A12353   0.189   4.684   6.227  1.9646 -1.4846 -0.8292
  118OSM   H11B12354   0.229   4.851   6.279  1.1997  0.0246  0.5473
  118OSM      P12355   0.482   4.875   6.187  0.0812 -0.4046 -0.1949
  118OSM    O1312356   0.609   4.843   6.124 -0.1751 -0.2659  0.0754
  118OSM    O1412357   0.412   4.995   6.135 -0.5582 -0.3325 -0.0802
  118OSM    O1112358   0.489   4.894   6.342 -0.3269  0.0310 -0.4450
  118OSM    O1212359   0.383   4.750   6.179  0.3404  0.4080 -0.1871
  118OSM    C1S12360   0.544   4.789   6.427 -0.3597 -0.5417  0.1777
  118OSM    H1S12361   0.647   4.758   6.399 -0.1700 -0.0869  0.3724
  118OSM    H1T12362   0.486   4.694   6.417 -1.4859  0.3786 -2.3654
  118OSM     NF12363   0.619   4.724   6.652 -0.4789 -0.2835 -0.3905
  118OSM    HNF12364   0.566   4.641   6.663  0.8699 -1.5137 -2.7567
  118OSM    C2S12365   0.545   4.829   6.577  0.1542 -0.1791  0.1128
  118OSM    H2S12366   0.596   4.927   6.592 -0.2934  0.0656  0.0365
  118OSM    C3S12367   0.398   4.842   6.622  0.7516  0.5497  0.0200
  118OSM    H3S12368   0.350   4.742   6.623  0.2323  0.7958  0.0494
  118OSM     O312369   0.314   4.930   6.541  0.1403 -0.1166 -0.8502
  118OSM    HO312370   0.349   4.931   6.452 -0.2884  0.6017 -1.0152
  118OSM    C4S12371   0.404   4.887   6.762 -0.5310  0.1576 -0.2165
  118OSM    H4S12372   0.386   4.804   6.832 -2.4560  0.7845  0.0611
  118OSM    C5S12373   0.431   5.008   6.810  0.1740  0.1947 -0.0772
  118OSM    H5S12374   0.451   5.086   6.735 -0.1776  0.3029 -0.0591
  118OSM    C6S12375   0.436   5.048   6.958 -0.5612 -0.3245 -0.5482
  118OSM    H6S12376   0.359   5.127   6.974 -1.5407 -1.8088  2.2416
  118OSM    H6T12377   0.538   5.088   6.977 -0.8516  0.9011 -1.4445
  118OSM    C7S12378   0.430   4.930   7.065 -0.4466  0.0597  1.4919
  118OSM    H7S12379   0.519   4.867   7.042 -0.4933  0.8022 -0.8595
  118OSM    H7T12380   0.343   4.865   7.043  0.6483 -0.3912 -1.7596
  118OSM    C8S12381   0.437   4.970   7.213 -0.1509 -0.0230  1.0658
  118OSM    H8S12382   0.444   4.875   7.270  1.5186 -0.4160  0.2470
  118OSM    H8T12383   0.346   5.031   7.231 -0.4427  0.6834 -2.3875
  118OSM    C9S12384   0.562   5.034   7.259  0.0659 -0.0241 -0.2440
  118OSM    H9S12385   0.577   5.124   7.196 -2.0677  0.2748 -0.3777
  118OSM    H9T12386   0.644   4.963   7.235 -2.2989 -2.5580 -1.2677
  118OSM   C10S12387   0.562   5.071   7.408 -0.1977 -0.3461 -0.2927
  118OSM   H10S12388   0.667   5.079   7.443 -0.1486 -0.6242 -0.3801
  118OSM   H10T12389   0.508   4.985   7.454  0.4461 -1.7104 -2.0402
  118OSM   C11S12390   0.492   5.208   7.450 -0.0144 -0.1631  0.4064
  118OSM   H11S12391   0.398   5.211   7.390 -0.1737  0.0969  0.6623
  118OSM   H11T12392   0.557   5.288   7.408 -0.1262 -0.4873 -0.4027
  118OSM   C12S12393   0.464   5.219   7.596  0.5719  0.1118 -0.2988
  118OSM   H12S12394   0.408   5.131   7.633  3.4422 -1.1547  1.1648
  118OSM   H12T12395   0.391   5.302   7.610 -2.2992 -2.6362  1.6689
  118OSM   C13S12396   0.595   5.249   7.676  0.1262  0.0126  0.2822
  118OSM   H13S12397   0.653   5.341   7.653  1.1410 -0.7033 -0.0913
  118OSM   H13T12398   0.658   5.161   7.649 -4.1940 -3.0226 -0.4410
  118OSM   C14S12399   0.573   5.244   7.827 -0.2466 -0.2623 -0.4061
  118OSM   H14S12400   0.504   5.159   7.849 -1.5970  1.1653  1.0214
  118OSM   H14T12401   0.517   5.337   7.853  3.3179  1.2552  2.2107
  118OSM   C15S12402   0.704   5.242   7.911 -0.3201  0.2014 -0.3328
  118OSM   H15S12403   0.746   5.342   7.887 -1.7869  1.1205  0.8583
  118OSM   H15T12404   0.756   5.152   7.871 -1.2211 -0.4346 -0.0783
  118OSM   C16S12405   0.684   5.219   8.061 -0.3811  0.2532 -0.5922
  118OSM   H16S12406   0.601   5.148   8.079 -1.1283  1.2307 -0.1369
  118OSM   H16T12407   0.642   5.312   8.105  0.3658 -0.4613  1.6572
  118OSM   C17S12408   0.819   5.200   8.136  0.4039 -0.4352 -0.3253
  118OSM   H17S12409   0.900   5.269   8.102  1.0512 -0.7717  0.5136
  118OSM   H17T12410   0.842   5.093   8.117 -0.6124 -0.7565  0.1965
  118OSM   C18S12411   0.794   5.214   8.283  0.1390  0.2690 -0.3469
  118OSM   H18S12412   0.887   5.195   8.340  1.2799  1.8483 -1.6256
  118OSM   H18T12413   0.721   5.142   8.326 -0.5234 -0.2096 -2.2104
  118OSM   H18U12414   0.766   5.320   8.301 -1.0105  0.3114 -2.2129
  118OSM    C1F12415   0.761   4.729   6.645  0.1039 -0.2437 -0.3871
  118OSM     OF12416   0.828   4.819   6.593 -0.4872 -0.9548 -0.0505
  118OSM    C2F12417   0.834   4.608   6.693 -0.6829  0.6135  1.0397
  118OSM    H2F12418   0.875   4.556   6.604  0.2033  0.3987  1.5689
  118OSM    H2G12419   0.763   4.538   6.743 -2.2880  1.4594 -0.0320
  118OSM    C3F12420   0.942   4.654   6.792  0.1348  0.1777  0.4801
  118OSM    H3F12421   1.005   4.729   6.739  0.8088 -1.1005 -0.5646
  118OSM    H3G12422   1.006   4.568   6.821  0.7427  0.6060  0.4158
  118OSM    C4F12423   0.895   4.707   6.929 -0.2378 -0.1104  0.1276
  118OSM    H4F12424   0.845   4.630   6.991  1.3507 -0.1192  1.4172
  118OSM    H4G12425   0.823   4.785   6.896 -0.1852 -0.5578 -1.0628
  118OSM    C5F12426   1.011   4.774   7.003 -0.0435 -0.2377 -0.5419
  118OSM    H5F12427   1.070   4.834   6.931  1.1819 -0.2385  0.4434
  118OSM    H5G12428   1.087   4.707   7.049  1.5450  1.5172 -0.5664
  118OSM    C6F12429   0.949   4.874   7.105 -0.2803 -0.0909 -0.6856
  118OSM    H6F12430   0.890   4.820   7.183  1.5959  0.8003  1.4115
  118OSM    H6G12431   0.882   4.948   7.057  0.0425 -0.2077 -1.3188
  118OSM    C7F12432   1.053   4.952   7.189  0.1493 -0.1677 -0.4289
  118OSM    H7F12433   1.084   5.035   7.122 -0.4013  1.0104  0.7679
  118OSM    H7G12434   1.133   4.882   7.224 -0.6752 -0.1637  1.5397
  118OSM    C8F12435   0.979   5.014   7.314 -1.0786  0.0471 -0.3654
  118OSM    H8F12436   0.968   4.932   7.388 -2.3891 -1.1934 -1.9002
  118OSM    H8G12437   0.889   5.071   7.283 -0.7661  0.9448  0.3445
  118OSM    C9F12438   1.075   5.112   7.385  0.1918  0.4524 -0.2634
  118OSM    H9F12439   1.158   5.143   7.320  0.1598 -0.9620 -1.0062
  118OSM   C10F12440   1.095   5.155   7.508 -0.5378 -0.0811  0.5621
  118OSM   H10F12441   1.191   5.204   7.531  0.9618 -2.1117 -1.1728
  118OSM   C11F12442   1.011   5.122   7.626  0.7905 -0.4324 -0.1406
  118OSM   H11F12443   0.929   5.048   7.613 -1.2395  1.7298 -0.0435
  118OSM   H11G12444   0.959   5.214   7.659  1.3950 -0.3767  0.6561
  118OSM   C12F12445   1.082   5.078   7.751  0.4276 -0.0390 -0.5510
  118OSM   H12F12446   1.132   4.982   7.723  0.6320 -0.1090  0.0375
  118OSM   H12G12447   1.012   5.062   7.836 -0.1158 -1.4317 -1.2478
  118OSM   C13F12448   1.186   5.174   7.807 -0.2961  0.8797  0.0041
  118OSM   H13F12449   1.140   5.275   7.811 -1.1504  0.4672  0.8774
  118OSM   H13G12450   1.273   5.187   7.738 -0.3463 -0.5269 -0.3513
  118OSM   C14F12451   1.233   5.149   7.956  0.8604 -0.0135  0.9963
  118OSM   H14F12452   1.299   5.060   7.957  1.4551  0.4179  0.5626
  118OSM   H14G12453   1.142   5.129   8.017  1.0162 -0.1888  1.1722
  118OSM   C15F12454   1.316   5.271   8.000 -0.0929  0.2863  0.1857
  118OSM   H15F12455   1.261   5.368   7.997 -1.2249 -0.3139  1.1329
  118OSM   H15G12456   1.400   5.278   7.927 -0.0303 -0.2631  0.2046
  118OSM   C16F12457   1.375   5.253   8.139  0.3890  0.6317  0.3525
  118OSM   H16F12458   1.440   5.163   8.141  1.1510  1.0995 -2.3172
  118OSM   H16G12459   1.297   5.262   8.217 -2.7926 -0.7054 -2.5521
  118OSM   C17F12460   1.471   5.362   8.185 -0.6955 -0.1803  0.0409
  118OSM   H17F12461   1.406   5.451   8.196 -0.4554 -0.1843  1.5824
  118OSM   H17G12462   1.545   5.392   8.107 -0.4931  0.9929  0.6745
  118OSM   C18F12463   1.539   5.336   8.312 -0.0149 -0.2767  0.8449
  118OSM   H18F12464   1.605   5.248   8.294  1.6055  0.7318  1.7520
  118OSM   H18G12465   1.470   5.299   8.391 -0.6828 -0.7964  0.0289
  118OSM   H18H12466   1.600   5.421   8.347  1.2566  0.3609 -2.7667
  119OSM      N12467   2.103   4.802   5.683  0.7717 -0.0475 -0.1206
  119OSM    C1512468   2.225   4.721   5.674 -0.5991  0.3896  0.0669
  119OSM   H15A12469   2.311   4.781   5.701 -0.0820 -0.3624  0.1119
  119OSM   H15B12470   2.240   4.685   5.573 -0.6049  0.3170  0.0922
  119OSM   H15C12471   2.230   4.631   5.733  2.6710  1.9171  2.2777
  119OSM    C1412472   2.124   4.918   5.593 -0.4248 -0.4949 -1.1266
  119OSM   H14A12473   2.185   5.000   5.628 -1.5257  0.1767 -0.7556
  119OSM   H14B12474   2.022   4.951   5.585 -0.3617  0.0601  0.2753
  119OSM   H14C12475   2.143   4.885   5.491  0.8567 -0.9044 -0.7703
  119OSM    C1312476   1.981   4.731   5.625  0.2617 -0.0051 -0.0101
  119OSM   H13A12477   1.990   4.707   5.520 -1.3096 -0.2380 -0.0927
  119OSM   H13B12478   1.891   4.789   5.634  0.0372 -0.2792 -0.4784
  119OSM   H13C12479   1.956   4.639   5.675 -0.3889  0.6475  0.8752
  119OSM    C1212480   2.083   4.846   5.827 -0.2321 -0.1052 -0.7346
  119OSM   H12A12481   2.170   4.901   5.861 -1.6508  2.0199 -0.4899
  119OSM   H12B12482   2.070   4.752   5.878  1.3290 -0.3979 -0.8238
  119OSM    C1112483   1.954   4.935   5.861 -0.6993  0.2775  0.1753
  119OSM   H11A12484   1.949   5.010   5.778 -0.1620 -3.2190 -3.1852
  119OSM   H11B12485   1.975   4.979   5.961  0.7567  0.3975 -0.1764
  119OSM      P12486   1.791   4.755   5.972  0.0002  0.2710  0.0469
  119OSM    O1312487   1.650   4.727   5.948  0.7175 -0.5280  0.6755
  119OSM    O1412488   1.879   4.635   5.977 -0.2402 -0.1915 -0.0136
  119OSM    O1112489   1.815   4.843   6.099 -0.0174  0.1974 -0.0578
  119OSM    O1212490   1.841   4.852   5.863  0.0010 -0.1900  0.4726
  119OSM    C1S12491   1.825   4.773   6.221 -0.3212  0.5644 -0.0267
  119OSM    H1S12492   1.892   4.685   6.228  0.3802  1.1670  1.0107
  119OSM    H1T12493   1.729   4.734   6.262  0.1065 -0.2270  0.2392
  119OSM     NF12494   1.911   4.786   6.456 -0.5862 -0.5327 -0.1756
  119OSM    HNF12495   1.853   4.802   6.535 -0.9053  0.1303 -0.5447
  119OSM    C2S12496   1.870   4.868   6.341 -0.0192  0.5197 -0.1010
  119OSM    H2S12497   1.961   4.920   6.305 -0.1459  1.6892  1.2190
  119OSM    C3S12498   1.768   4.979   6.367  0.1445  0.2236 -0.1524
  119OSM    H3S12499   1.676   4.926   6.401  0.7061 -0.6038  0.0688
  119OSM     O312500   1.731   5.044   6.246  0.1122  0.2405 -0.0310
  119OSM    HO312501   1.752   4.989   6.170 -1.1023 -1.4306  0.8311
  119OSM    C4S12502   1.812   5.080   6.471  0.3627 -0.0150  0.2047
  119OSM    H4S12503   1.909   5.130   6.453 -1.0141  2.4225 -0.6662
  119OSM    C5S12504   1.738   5.108   6.582 -0.6033 -0.5389 -0.1859
  119OSM    H5S12505   1.642   5.057   6.600 -1.7652  1.3886 -0.8286
  119OSM    C6S12506   1.777   5.206   6.692 -0.6129  0.6632  0.2664
  119OSM    H6S12507   1.705   5.291   6.692  2.1563  3.1195 -0.9324
  119OSM    H6T12508   1.874   5.254   6.668 -0.5301 -0.2646 -1.3551
  119OSM    C7S12509   1.791   5.157   6.837 -0.0921  0.0257  0.1340
  119OSM    H7S12510   1.703   5.104   6.879  0.7956 -1.0877  0.6182
  119OSM    H7T12511   1.817   5.246   6.898  1.9714 -0.5450  0.1223
  119OSM    C8S12512   1.904   5.049   6.835  1.1651 -0.0943  1.0662
  119OSM    H8S12513   1.994   5.092   6.788  0.8776  0.0284  0.6264
  119OSM    H8T12514   1.868   4.960   6.779 -2.9079  0.7702  2.0828
  119OSM    C9S12515   1.945   5.002   6.982 -0.3044  0.2404  0.3193
  119OSM    H9S12516   2.026   4.926   6.986  1.5560  2.1420 -0.1272
  119OSM    H9T12517   1.857   4.942   7.014 -0.0619 -1.0470 -1.3145
  119OSM   C10S12518   1.994   5.110   7.087 -0.9385  0.5084  0.4773
  119OSM   H10S12519   1.938   5.205   7.077 -0.0023  0.6617 -4.8972
  119OSM   H10T12520   2.096   5.142   7.058 -1.4293  0.3314 -1.5202
  119OSM   C11S12521   1.981   5.070   7.233 -0.1688  0.5746 -0.3767
  119OSM   H11S12522   2.058   4.999   7.269 -0.7729 -0.2249 -0.6575
  119OSM   H11T12523   1.879   5.027   7.245 -0.4554  1.5789  0.8866
  119OSM   C12S12524   2.002   5.201   7.329  0.8198 -0.0656  0.4047
  119OSM   H12S12525   1.928   5.277   7.294 -0.7144 -1.4933  0.5040
  119OSM   H12T12526   2.104   5.240   7.309  1.2710 -1.4434 -0.0087
  119OSM   C13S12527   1.985   5.158   7.478  0.4693  0.0102 -0.5943
  119OSM   H13S12528   2.071   5.096   7.510 -0.6795 -1.9589 -1.2019
  119OSM   H13T12529   1.898   5.088   7.478  0.5189 -0.0868  1.1628
  119OSM   C14S12530   1.955   5.271   7.580  0.0576 -0.6015 -0.0814
  119OSM   H14S12531   1.871   5.331   7.539  0.5532  0.9213  1.0858
  119OSM   H14T12532   2.042   5.339   7.568 -1.6165  1.5934 -0.1443
  119OSM   C15S12533   1.932   5.227   7.718  0.7893 -0.1011  0.2847
  119OSM   H15S12534   2.026   5.184   7.759 -0.0599 -0.3131  2.0638
  119OSM   H15T12535   1.862   5.140   7.721  1.5407 -0.7993 -1.4428
  119OSM   C16S12536   1.876   5.342   7.804 -0.3701 -0.2024  0.1616
  119OSM   H16S12537   1.795   5.394   7.749  2.3956  2.0614 -1.9339
  119OSM   H16T12538   1.956   5.413   7.834 -0.1658 -0.1928 -0.4008
  119OSM   C17S12539   1.833   5.306   7.946 -0.5342  0.1014 -0.1045
  119OSM   H17S12540   1.772   5.213   7.953 -1.6213  0.8083 -0.1195
  119OSM   H17T12541   1.760   5.386   7.968 -1.4426 -0.5183 -0.8425
  119OSM   C18S12542   1.952   5.296   8.047  0.3525 -0.3915 -0.0324
  119OSM   H18S12543   2.024   5.215   8.023 -0.7282 -1.6637  0.9626
  119OSM   H18T12544   1.914   5.280   8.150 -1.3777  0.4478 -0.5239
  119OSM   H18U12545   2.003   5.395   8.044 -0.0914 -0.0808  2.3347
  119OSM    C1F12546   1.997   4.684   6.462  0.4537  0.2460 -0.9029
  119OSM     OF12547   2.071   4.656   6.365  0.5864  0.2244 -0.2227
  119OSM    C2F12548   1.998   4.612   6.593 -0.3613  1.0666  0.3553
  119OSM    H2F12549   1.921   4.533   6.578  1.3840 -0.9416  1.6676
  119OSM    H2G12550   1.965   4.668   6.683  1.6824 -0.2231  1.9467
  119OSM    C3F12551   2.122   4.524   6.613 -0.0338  0.6018  0.2338
  119OSM    H3F12552   2.207   4.596   6.605 -0.3323  0.7238 -2.1680
  119OSM    H3G12553   2.130   4.462   6.522 -1.3331  2.0437 -0.9068
  119OSM    C4F12554   2.112   4.445   6.747  0.4938  0.4381  0.0057
  119OSM    H4F12555   2.008   4.407   6.755  0.3218  0.6225 -1.2931
  119OSM    H4G12556   2.116   4.512   6.836  0.5441 -0.0384  0.3635
  119OSM    C5F12557   2.224   4.346   6.754 -0.0836  0.3391  0.1536
  119OSM    H5F12558   2.215   4.298   6.853  2.9129 -0.7940 -0.0641
  119OSM    H5G12559   2.327   4.381   6.729 -1.2487  2.5827 -1.6811
  119OSM    C6F12560   2.198   4.212   6.670 -0.7640  0.5913 -0.0802
  119OSM    H6F12561   2.177   4.232   6.562 -0.7567 -1.9635 -0.5963
  119OSM    H6G12562   2.105   4.166   6.711 -1.0180 -0.3540 -1.6576
  119OSM    C7F12563   2.312   4.111   6.693  0.2886  0.1157  1.2712
  119OSM    H7F12564   2.413   4.154   6.675  0.8204 -2.1556 -1.4669
  119OSM    H7G12565   2.307   4.026   6.622  1.1027  0.9753  0.1574
  119OSM    C8F12566   2.310   4.043   6.829  0.2122 -0.6441  0.3340
  119OSM    H8F12567   2.206   4.007   6.840  0.6358 -1.8071  0.5458
  119OSM    H8G12568   2.323   4.116   6.912  0.1865  1.4180 -1.4369
  119OSM    C9F12569   2.408   3.934   6.828 -0.8190 -0.1517  0.6101
  119OSM    H9F12570   2.411   3.873   6.736  0.1327  1.0722 -0.1866
  119OSM   C10F12571   2.497   3.907   6.931 -0.0042 -0.5606 -0.1056
  119OSM   H10F12572   2.557   3.816   6.912  0.0711 -0.5873  0.2568
  119OSM   C11F12573   2.512   3.964   7.072  0.8643 -0.1070 -0.2624
  119OSM   H11F12574   2.424   4.012   7.119  0.4840 -3.0954  2.2924
  119OSM   H11G12575   2.604   4.027   7.072  1.4169 -0.9001 -0.7677
  119OSM   C12F12576   2.537   3.859   7.178 -0.5927  0.5059  0.1865
  119OSM   H12F12577   2.626   3.799   7.148  0.3046  1.6941  0.4402
  119OSM   H12G12578   2.449   3.791   7.184 -0.7155  0.5430 -1.0974
  119OSM   C13F12579   2.553   3.906   7.316 -0.0231  0.0175 -1.1610
  119OSM   H13F12580   2.467   3.966   7.353  0.8733 -0.1107  1.2323
  119OSM   H13G12581   2.641   3.974   7.317  1.0512 -1.3701 -0.0772
  119OSM   C14F12582   2.593   3.803   7.422  0.0973 -0.3221 -0.9211
  119OSM   H14F12583   2.683   3.752   7.381  1.5453  0.1545  1.5512
  119OSM   H14G12584   2.512   3.728   7.429 -0.8550  0.8004  0.5258
  119OSM   C15F12585   2.605   3.853   7.564 -0.3560 -0.3045  0.2350
  119OSM   H15F12586   2.505   3.890   7.593 -0.8978  1.0269 -3.1839
  119OSM   H15G12587   2.678   3.937   7.563 -1.5272  0.7260  0.9869
  119OSM   C16F12588   2.637   3.736   7.661  0.0152  0.1306 -0.5954
  119OSM   H16F12589   2.741   3.700   7.654  0.3142  0.9414 -0.3999
  119OSM   H16G12590   2.565   3.659   7.624 -0.0650  0.4550 -1.1320
  119OSM   C17F12591   2.606   3.790   7.805 -0.5886  0.0494 -0.6136
  119OSM   H17F12592   2.497   3.806   7.818 -0.3877 -0.0290  1.2021
  119OSM   H17G12593   2.647   3.892   7.814  2.4876 -1.4009  2.9075
  119OSM   C18F12594   2.641   3.695   7.920  0.0889 -0.3321 -0.1376
  119OSM   H18F12595   2.576   3.713   8.008  1.8417 -1.9211  1.4964
  119OSM   H18G12596   2.745   3.690   7.958 -0.2989 -0.0802  0.9668
  119OSM   H18H12597   2.608   3.596   7.882  1.7179 -0.7531 -0.4913
  120OSM      N12598   0.239   1.698   6.082  0.0224 -0.1968 -0.7401
  120OSM    C1512599   0.223   1.663   5.938 -0.8354 -0.0356 -0.1924
  120OSM   H15A12600   0.133   1.613   5.905 -1.8072  1.7772 -0.3641
  120OSM   H15B12601   0.306   1.608   5.896  1.6426  1.0047  3.1367
  120OSM   H15C12602   0.227   1.749   5.873 -1.3819 -1.0010 -1.5402
  120OSM    C1412603   0.343   1.799   6.105  0.4094  0.4841 -0.1132
  120OSM   H14A12604   0.318   1.892   6.055 -1.4456  0.0435 -0.0438
  120OSM   H14B12605   0.443   1.769   6.078 -0.2038 -1.1568 -0.6364
  120OSM   H14C12606   0.338   1.818   6.211  1.5799  0.7175 -0.0925
  120OSM    C1312607   0.108   1.758   6.122 -1.1408 -0.7603 -0.2922
  120OSM   H13A12608   0.122   1.814   6.213 -1.4556  1.5070 -1.5949
  120OSM   H13B12609   0.044   1.677   6.156 -0.1383 -1.3496  0.2030
  120OSM   H13C12610   0.058   1.816   6.046 -0.0852 -1.2850 -1.3997
  120OSM    C1212611   0.282   1.574   6.158 -0.3823 -0.1606  0.0145
  120OSM   H12A12612   0.366   1.519   6.118 -0.8241 -0.7212 -0.1483
  120OSM   H12B12613   0.198   1.509   6.142  0.0727 -0.5882 -0.6790
  120OSM    C1112614   0.296   1.584   6.303 -0.1840 -0.3148  0.0516
  120OSM   H11A12615   0.366   1.665   6.330  1.9753 -2.1310  0.0313
  120OSM   H11B12616   0.351   1.493   6.335  0.6962 -0.0179 -0.5863
  120OSM      P12617   0.081   1.477   6.386 -0.2229  0.1613  0.0561
  120OSM    O1312618  -0.048   1.505   6.456 -0.1815  0.5270  0.2288
  120OSM    O1412619   0.080   1.403   6.258  0.0637  0.0517  0.2996
  120OSM    O1112620   0.162   1.401   6.495 -0.5010 -0.5890  0.0418
  120OSM    O1212621   0.166   1.604   6.363 -0.0792  0.7897 -0.9605
  120OSM    C1S12622   0.225   1.473   6.604 -0.2355 -0.2626  0.5203
  120OSM    H1S12623   0.199   1.580   6.617  0.4758  0.0590 -0.6511
  120OSM    H1T12624   0.335   1.472   6.595 -0.0676  0.2949  2.3793
  120OSM     NF12625   0.257   1.483   6.851 -0.2605  0.1763 -0.1952
  120OSM    HNF12626   0.343   1.458   6.895 -1.0858 -1.3778  0.5886
  120OSM    C2S12627   0.200   1.399   6.744  0.1302 -0.2917 -0.3217
  120OSM    H2S12628   0.090   1.401   6.755  0.2213  0.5909  0.5256
  120OSM    C3S12629   0.253   1.253   6.732 -0.3784  0.2033 -0.7681
  120OSM    H3S12630   0.357   1.262   6.693  0.3754  2.8631  1.6848
  120OSM     O312631   0.176   1.170   6.644  0.3207 -0.2310  0.5575
  120OSM    HO312632   0.143   1.238   6.585  2.0491 -1.3073 -1.7394
  120OSM    C4S12633   0.250   1.185   6.864  0.3947 -0.2999 -0.1386
  120OSM    H4S12634   0.187   1.238   6.938  1.8159 -0.2555  1.0547
  120OSM    C5S12635   0.340   1.099   6.910 -0.1013 -0.2665 -0.0541
  120OSM    H5S12636   0.427   1.066   6.850  0.9933 -1.4249  2.0868
  120OSM    C6S12637   0.334   1.043   7.050 -0.3270 -0.3841 -0.9973
  120OSM    H6S12638   0.438   1.053   7.087  0.0857 -1.9510 -1.6968
  120OSM    H6T12639   0.312   0.934   7.045 -1.4355 -0.1439 -1.5546
  120OSM    C7S12640   0.235   1.119   7.148  0.0861 -0.5977 -0.1345
  120OSM    H7S12641   0.129   1.112   7.117 -0.0872 -2.8747  0.8604
  120OSM    H7T12642   0.270   1.225   7.145  0.7469 -0.7637  1.1784
  120OSM    C8S12643   0.246   1.089   7.302  0.1820  0.2935 -0.0433
  120OSM    H8S12644   0.353   1.094   7.333 -0.3500  0.9658  1.7275
  120OSM    H8T12645   0.206   0.986   7.312  1.3069 -0.0638  0.7755
  120OSM    C9S12646   0.157   1.179   7.393 -0.1881  0.0464 -0.7931
  120OSM    H9S12647   0.050   1.189   7.366 -0.2424  0.2826 -0.4914
  120OSM    H9T12648   0.189   1.285   7.390  0.4742 -0.0444  1.6902
  120OSM   C10S12649   0.175   1.138   7.543  0.0856 -0.0927  0.3409
  120OSM   H10S12650   0.280   1.159   7.571  0.9108  1.7668 -3.7887
  120OSM   H10T12651   0.152   1.033   7.569  0.6640 -0.6826 -1.4868
  120OSM   C11S12652   0.085   1.219   7.643  0.1798  0.2589  0.1862
  120OSM   H11S12653  -0.019   1.201   7.609  0.3879  2.5557 -1.7752
  120OSM   H11T12654   0.108   1.325   7.619 -3.1263  0.9161 -0.2848
  120OSM   C12S12655   0.108   1.189   7.790 -1.0165 -0.8410  0.1046
  120OSM   H12S12656   0.209   1.218   7.826 -0.1928 -1.4573 -1.6436
  120OSM   H12T12657   0.114   1.078   7.802  1.3776 -0.8443 -0.7446
  120OSM   C13S12658  -0.004   1.242   7.876 -0.8101 -0.7960 -0.1207
  120OSM   H13S12659  -0.100   1.204   7.836 -0.4942 -0.7139 -0.9564
  120OSM   H13T12660  -0.016   1.352   7.882  3.0614 -0.3463  0.6960
  120OSM   C14S12661   0.006   1.195   8.022 -0.2653 -0.0496 -0.6557
  120OSM   H14S12662   0.091   1.245   8.073  0.4477  0.2358 -2.0932
  120OSM   H14T12663   0.033   1.088   8.033  0.4908  0.2539  0.5671
  120OSM   C15S12664  -0.122   1.227   8.094  0.1268  0.4289  0.6209
  120OSM   H15S12665  -0.208   1.176   8.048  0.7194  1.2302 -1.4137
  120OSM   H15T12666  -0.137   1.333   8.064  2.8001  0.3076 -1.2633
  120OSM   C16S12667  -0.105   1.219   8.245 -0.3950  0.3041 -0.6353
  120OSM   H16S12668  -0.018   1.280   8.277 -1.6722  2.3026 -0.9180
  120OSM   H16T12669  -0.093   1.115   8.282 -3.5188 -0.4981 -1.7190
  120OSM   C17S12670  -0.230   1.272   8.321  0.1470 -0.2549  0.1353
  120OSM   H17S12671  -0.326   1.225   8.290  0.5583 -0.7342 -0.4191
  120OSM   H17T12672  -0.235   1.382   8.305 -2.5522 -0.3955 -0.2175
  120OSM   C18S12673  -0.232   1.265   8.472 -0.3034 -0.3537  0.5794
  120OSM   H18S12674  -0.253   1.163   8.510 -0.8347 -0.8237 -0.9392
  120OSM   H18T12675  -0.310   1.330   8.517  0.2877 -0.1691  1.3636
  120OSM   H18U12676  -0.133   1.297   8.512  0.6230 -0.2096 -1.7729
  120OSM    C1F12677   0.194   1.600   6.875 -0.0618 -0.2156  0.1685
  120OSM     OF12678   0.072   1.612   6.845  0.4877 -0.5462  0.5118
  120OSM    C2F12679   0.269   1.715   6.934  0.8106 -0.0232  1.1456
  120OSM    H2F12680   0.269   1.786   6.848  1.3470 -2.9726 -1.4030
  120OSM    H2G12681   0.372   1.678   6.956  1.0109 -0.0543  0.1915
  120OSM    C3F12682   0.212   1.776   7.067 -0.4456 -1.2098 -0.2672
  120OSM    H3F12683   0.106   1.804   7.048  0.4710  2.5573 -0.2850
  120OSM    H3G12684   0.256   1.878   7.066  1.3165 -1.9429 -0.4747
  120OSM    C4F12685   0.232   1.691   7.195  0.0124 -0.7139 -0.4435
  120OSM    H4F12686   0.212   1.584   7.171  0.4501 -0.3594 -2.5313
  120OSM    H4G12687   0.156   1.729   7.267  0.5046 -0.8386  0.1403
  120OSM    C5F12688   0.363   1.722   7.263 -0.1263 -0.0402  0.1982
  120OSM    H5F12689   0.350   1.831   7.282 -1.6667 -0.3999  1.3712
  120OSM    H5G12690   0.441   1.697   7.188 -0.2551  0.4084 -0.0897
  120OSM    C6F12691   0.374   1.650   7.398  0.3195  0.1316  0.3459
  120OSM    H6F12692   0.357   1.541   7.390  3.3893 -0.3814  0.2231
  120OSM    H6G12693   0.296   1.693   7.464 -0.8438  1.1183 -1.6131
  120OSM    C7F12694   0.515   1.674   7.467  0.3214  0.0168 -0.2007
  120OSM    H7F12695   0.585   1.755   7.437 -0.1204  0.0672 -1.0998
  120OSM    H7G12696   0.567   1.582   7.430 -0.0859 -0.0021 -0.7296
  120OSM    C8F12697   0.518   1.651   7.617  0.4748 -0.0994  0.8018
  120OSM    H8F12698   0.622   1.664   7.655  0.9069 -2.5062  0.4824
  120OSM    H8G12699   0.502   1.544   7.641  2.2246 -0.0939  2.1051
  120OSM    C9F12700   0.421   1.734   7.693 -0.0457 -0.8769 -0.4635
  120OSM    H9F12701   0.320   1.691   7.702  1.4119 -4.3795 -0.0352
  120OSM   C10F12702   0.437   1.853   7.754  0.0345 -0.2209 -0.0483
  120OSM   H10F12703   0.353   1.906   7.801  0.0343 -0.1265 -0.1539
  120OSM   C11F12704   0.560   1.933   7.756  0.7036 -0.3273  0.1268
  120OSM   H11F12705   0.543   2.041   7.770 -3.9152 -0.5038 -3.1717
  120OSM   H11G12706   0.622   1.927   7.664  0.4844 -0.5841 -0.0049
  120OSM   C12F12707   0.646   1.884   7.881  0.8002 -0.3082  0.1655
  120OSM   H12F12708   0.749   1.926   7.874  0.4468  0.5572  0.1838
  120OSM   H12G12709   0.673   1.778   7.859  0.6173 -0.3173 -0.0149
  120OSM   C13F12710   0.586   1.891   8.018 -0.2695  0.0582 -0.3378
  120OSM   H13F12711   0.491   1.835   8.021 -0.2467  0.0802  1.1114
  120OSM   H13G12712   0.558   1.996   8.039  0.9490  0.5407 -1.0338
  120OSM   C14F12713   0.675   1.840   8.137  0.0695  0.6091 -0.5286
  120OSM   H14F12714   0.631   1.879   8.231  0.1501 -2.2085  0.7227
  120OSM   H14G12715   0.777   1.880   8.117  1.0934 -1.2149  0.9550
  120OSM   C15F12716   0.691   1.685   8.144  0.3346 -0.3143 -0.9071
  120OSM   H15F12717   0.766   1.649   8.070  0.6222  0.7950 -1.1761
  120OSM   H15G12718   0.590   1.640   8.140 -0.3014  0.8328  1.3651
  120OSM   C16F12719   0.750   1.651   8.288  0.1995 -0.0013  0.4800
  120OSM   H16F12720   0.686   1.708   8.359 -0.9261 -0.5051 -0.1033
  120OSM   H16G12721   0.857   1.680   8.295  0.8648 -2.1319 -0.3962
  120OSM   C17F12722   0.741   1.507   8.334 -0.0437  0.6162  0.2614
  120OSM   H17F12723   0.631   1.495   8.323  0.2197 -0.0285 -2.1060
  120OSM   H17G12724   0.762   1.497   8.442 -0.6852 -0.3724  0.3014
  120OSM   C18F12725   0.818   1.407   8.248 -0.4662  0.4718  0.4725
  120OSM   H18F12726   0.767   1.310   8.266 -1.8351  1.0204 -0.3930
  120OSM   H18G12727   0.922   1.390   8.285 -0.8841 -0.4382  1.2582
  120OSM   H18H12728   0.825   1.434   8.140 -1.3426  2.8016  0.9664
  121OSM      N12729   1.517   2.934   5.781 -1.0459 -0.5505 -0.5736
  121OSM    C1512730   1.486   3.052   5.693  0.4035 -0.1637 -0.6175
  121OSM   H15A12731   1.382   3.056   5.662 -0.1102  1.9788  1.2705
  121OSM   H15B12732   1.531   3.041   5.596  0.5053 -1.4706 -0.4311
  121OSM   H15C12733   1.520   3.148   5.728  2.3050 -0.6954 -0.9720
  121OSM    C1412734   1.514   2.805   5.702  0.5635 -0.5503  0.2369
  121OSM   H14A12735   1.411   2.783   5.676  0.1675  1.8454 -0.3676
  121OSM   H14B12736   1.556   2.724   5.760  0.5934 -0.6323  0.1029
  121OSM   H14C12737   1.562   2.808   5.605 -1.7998 -4.2638 -1.1881
  121OSM    C1312738   1.659   2.953   5.825 -0.6254  0.6926 -0.8907
  121OSM   H13A12739   1.681   3.042   5.883  1.0778  0.5763 -1.3169
  121OSM   H13B12740   1.729   2.953   5.743  0.8558 -0.8017  0.3147
  121OSM   H13C12741   1.685   2.869   5.888  0.4770  1.1458 -0.7221
  121OSM    C1212742   1.427   2.933   5.901 -0.5064  0.3867 -1.4809
  121OSM   H12A12743   1.454   2.855   5.970  0.4085  1.8138 -0.1886
  121OSM   H12B12744   1.328   2.930   5.858 -0.5919 -0.2422 -1.2369
  121OSM    C1112745   1.427   3.068   5.989  0.0288 -0.3886  0.2349
  121OSM   H11A12746   1.343   3.065   6.062  0.1182 -0.6960  0.3285
  121OSM   H11B12747   1.394   3.151   5.924  2.5860  0.8136  0.4116
  121OSM      P12748   1.604   3.009   6.167 -0.1081 -0.0701  0.4778
  121OSM    O1312749   1.517   2.891   6.186  0.1711  0.2519  0.0504
  121OSM    O1412750   1.750   2.995   6.155  0.5300  0.2856 -0.1198
  121OSM    O1112751   1.574   3.115   6.283 -0.6606  0.1993 -0.5048
  121OSM    O1212752   1.552   3.093   6.049  0.3129  0.2787 -0.0208
  121OSM    C1S12753   1.545   3.066   6.416  0.1733  0.0488 -0.4591
  121OSM    H1S12754   1.596   2.968   6.431 -0.4991 -0.5952 -2.2281
  121OSM    H1T12755   1.434   3.063   6.412  0.1711 -0.1229 -0.2742
  121OSM     NF12756   1.602   3.113   6.653  0.4031 -0.0985  0.0836
  121OSM    HNF12757   1.519   3.145   6.699  1.3267  2.7450 -0.0884
  121OSM    C2S12758   1.610   3.167   6.518  0.2924  0.4351 -0.9385
  121OSM    H2S12759   1.720   3.170   6.497  0.6232  0.5443  0.7134
  121OSM    C3S12760   1.553   3.309   6.495  0.6651  0.1713 -0.3237
  121OSM    H3S12761   1.442   3.298   6.495  0.8209 -1.6142 -0.0886
  121OSM     O312762   1.584   3.367   6.367 -0.1954 -0.6621 -0.1097
  121OSM    HO312763   1.585   3.293   6.306 -0.8522 -0.2295 -0.6478
  121OSM    C4S12764   1.599   3.406   6.595 -0.8910  0.9529 -0.7210
  121OSM    H4S12765   1.708   3.420   6.590 -0.7485  0.1891  0.1937
  121OSM    C5S12766   1.524   3.476   6.682 -0.2982  0.1409  0.7278
  121OSM    H5S12767   1.414   3.465   6.678 -0.3144  0.5930 -0.1322
  121OSM    C6S12768   1.569   3.566   6.794  0.5692  0.3160  0.0428
  121OSM    H6S12769   1.506   3.544   6.883  0.5315 -2.2563 -0.5944
  121OSM    H6T12770   1.565   3.673   6.766 -1.2351  0.4498  0.6968
  121OSM    C7S12771   1.718   3.564   6.838  0.1006 -0.2771 -0.4838
  121OSM    H7S12772   1.778   3.597   6.751  2.1552  0.4172  1.1632
  121OSM    H7T12773   1.748   3.459   6.855  0.4048 -0.4170 -1.8774
  121OSM    C8S12774   1.763   3.658   6.945 -0.5458  0.0037  0.2138
  121OSM    H8S12775   1.754   3.765   6.919  0.9750  0.0509 -0.1887
  121OSM    H8T12776   1.874   3.657   6.949 -0.4871  2.5063  0.0878
  121OSM    C9S12777   1.692   3.632   7.075  0.2445  0.1059 -0.3040
  121OSM    H9S12778   1.717   3.526   7.098 -0.7549  0.0419  0.4815
  121OSM    H9T12779   1.583   3.639   7.060  0.5401  0.7922 -2.2827
  121OSM   C10S12780   1.743   3.733   7.182 -0.7574 -0.3619  0.3263
  121OSM   H10S12781   1.733   3.837   7.144  2.0921  0.0552  0.5667
  121OSM   H10T12782   1.851   3.717   7.205  0.2982  2.9493 -1.9968
  121OSM   C11S12783   1.663   3.732   7.314  0.2154  0.1200 -0.8205
  121OSM   H11S12784   1.653   3.628   7.351  4.3957 -0.9494 -2.4250
  121OSM   H11T12785   1.562   3.765   7.280 -0.4040 -0.7983  0.0909
  121OSM   C12S12786   1.724   3.819   7.420 -0.2151 -0.0488 -0.4935
  121OSM   H12S12787   1.822   3.777   7.453 -0.9428 -1.5346 -0.1789
  121OSM   H12T12788   1.666   3.820   7.515  1.0840  2.0328  0.3041
  121OSM   C13S12789   1.709   3.965   7.384  0.0852 -0.6528 -0.2054
  121OSM   H13S12790   1.612   3.984   7.333  0.0745 -0.4680 -0.1178
  121OSM   H13T12791   1.790   3.994   7.314 -0.1292  0.8448  0.1596
  121OSM   C14S12792   1.713   4.070   7.502  0.4601  0.1477  0.3125
  121OSM   H14S12793   1.620   4.062   7.562 -0.1884  1.2657 -0.5263
  121OSM   H14T12794   1.707   4.174   7.465 -2.5850 -0.6426 -1.5452
  121OSM   C15S12795   1.843   4.061   7.581  0.0704 -0.9933 -0.0806
  121OSM   H15S12796   1.843   3.955   7.614  1.4742  0.0755  3.6901
  121OSM   H15T12797   1.835   4.117   7.677  1.4458 -0.5054 -0.2421
  121OSM   C16S12798   1.971   4.103   7.512 -0.2001 -0.5784 -0.2702
  121OSM   H16S12799   1.960   4.209   7.481 -0.1194 -0.7936 -1.0453
  121OSM   H16T12800   1.974   4.049   7.415 -0.5365  3.4249 -2.6085
  121OSM   C17S12801   2.099   4.075   7.597 -1.1648 -0.0305  0.1292
  121OSM   H17S12802   2.110   3.965   7.606  0.1053  0.2173  1.7275
  121OSM   H17T12803   2.090   4.105   7.703 -0.7834  1.7801 -0.3378
  121OSM   C18S12804   2.217   4.142   7.527 -0.3461  0.0857 -0.6890
  121OSM   H18S12805   2.200   4.157   7.418 -1.6047  0.5740 -0.4329
  121OSM   H18T12806   2.305   4.078   7.547 -0.1784  0.6234  0.3773
  121OSM   H18U12807   2.231   4.247   7.563  1.1681  0.0441 -1.1370
  121OSM    C1F12808   1.686   3.016   6.695 -0.4371 -0.6290  0.0831
  121OSM     OF12809   1.765   2.976   6.607  0.8395  0.3487  0.1520
  121OSM    C2F12810   1.674   2.954   6.830  0.2297  0.6518 -0.4475
  121OSM    H2F12811   1.643   2.848   6.824  0.1518  0.5331  1.6478
  121OSM    H2G12812   1.599   3.005   6.894  0.1752  0.9107 -0.7166
  121OSM    C3F12813   1.810   2.944   6.917  0.0471  0.1398  0.0990
  121OSM    H3F12814   1.885   2.901   6.846  1.3611  0.4875  1.2626
  121OSM    H3G12815   1.786   2.882   7.005  2.2133  1.4608  1.6736
  121OSM    C4F12816   1.866   3.079   6.971 -0.5436  0.8758 -0.0216
  121OSM    H4F12817   1.869   3.147   6.883  3.5072  0.5225 -0.2508
  121OSM    H4G12818   1.972   3.072   7.005 -0.2928 -2.3926 -1.2709
  121OSM    C5F12819   1.783   3.143   7.088 -1.0192  0.5362 -0.0567
  121OSM    H5F12820   1.739   3.060   7.148 -0.0780  0.1580  0.1213
  121OSM    H5G12821   1.700   3.202   7.044 -1.2250 -0.3997 -0.9392
  121OSM    C6F12822   1.876   3.237   7.175 -0.0092 -0.9497 -1.4808
  121OSM    H6F12823   1.894   3.335   7.126 -1.7034  0.1466 -0.0021
  121OSM    H6G12824   1.979   3.197   7.179  0.3502  0.1203  1.0299
  121OSM    C7F12825   1.835   3.273   7.319  0.1325 -0.2365 -0.2353
  121OSM    H7F12826   1.739   3.329   7.315 -0.0205 -0.5211 -0.5044
  121OSM    H7G12827   1.910   3.348   7.353 -0.3848  1.2126 -2.1914
  121OSM    C8F12828   1.840   3.156   7.415  0.4513 -0.0437  0.7227
  121OSM    H8F12829   1.941   3.110   7.419  0.7952  0.4573 -1.3628
  121OSM    H8G12830   1.776   3.071   7.383  0.0284 -0.0038  1.4525
  121OSM    C9F12831   1.777   3.204   7.545 -0.2880 -0.2513 -0.6132
  121OSM    H9F12832   1.673   3.238   7.550 -0.6332 -1.4618  0.9037
  121OSM   C10F12833   1.842   3.234   7.661  0.6881 -0.0197 -0.3716
  121OSM   H10F12834   1.783   3.261   7.749  1.7071 -3.2248  1.3702
  121OSM   C11F12835   1.996   3.225   7.692  0.4214  0.4173  0.5644
  121OSM   H11F12836   2.040   3.327   7.693 -1.8881  1.4323  0.9917
  121OSM   H11G12837   2.048   3.167   7.612 -1.0871  0.8334 -0.7463
  121OSM   C12F12838   2.026   3.141   7.821  0.6246 -0.3813  0.2719
  121OSM   H12F12839   2.136   3.121   7.821  1.1493  2.2889  0.5274
  121OSM   H12G12840   1.966   3.048   7.822  1.8221 -1.1751 -0.1438
  121OSM   C13F12841   1.990   3.218   7.948 -0.1076 -0.0576  0.8675
  121OSM   H13F12842   1.884   3.253   7.943 -0.1579 -0.4054 -0.8430
  121OSM   H13G12843   2.053   3.309   7.945  0.1658 -0.2370  1.1564
  121OSM   C14F12844   1.991   3.136   8.081  0.0534  0.5510  0.4708
  121OSM   H14F12845   2.095   3.106   8.105  0.7743  1.6644 -1.1837
  121OSM   H14G12846   1.925   3.048   8.068  1.1533 -0.3432  0.9017
  121OSM   C15F12847   1.934   3.194   8.209 -0.1308 -0.6886  0.3032
  121OSM   H15F12848   1.945   3.117   8.288 -0.7199 -1.5008 -0.4114
  121OSM   H15G12849   1.826   3.212   8.191 -0.2662 -0.8117  0.9670
  121OSM   C16F12850   2.001   3.326   8.255 -0.5560  0.7072 -0.2584
  121OSM   H16F12851   2.049   3.382   8.172  1.5832  1.2290  1.2738
  121OSM   H16G12852   2.083   3.297   8.324 -1.4476 -3.1793 -0.7182
  121OSM   C17F12853   1.894   3.402   8.335 -0.8636 -0.1044  0.4420
  121OSM   H17F12854   1.870   3.317   8.401  2.7220 -0.9252  0.7820
  121OSM   H17G12855   1.807   3.429   8.272 -2.4859 -1.7220  1.9410
  121OSM   C18F12856   1.961   3.519   8.414  0.3543  0.6511 -0.2277
  121OSM   H18F12857   2.015   3.577   8.336  1.6363 -2.5203 -1.8161
  121OSM   H18G12858   2.036   3.468   8.478 -0.2496 -0.2242 -0.2087
  121OSM   H18H12859   1.884   3.575   8.470  0.9010  0.2761  0.9117
  122OSM      N12860   6.506   5.593   6.127 -0.1472 -0.6833 -0.0656
  122OSM    C1512861   6.520   5.527   5.989 -0.4971  0.2353  0.1637
  122OSM   H15A12862   6.597   5.451   5.988  0.2692  1.0051  0.0937
  122OSM   H15B12863   6.564   5.596   5.918  1.0011 -2.0296 -1.1500
  122OSM   H15C12864   6.427   5.475   5.972  0.0239 -0.4247 -0.7527
  122OSM    C1412865   6.624   5.676   6.155 -0.1103 -0.1614  0.7464
  122OSM   H14A12866   6.639   5.762   6.092 -0.5379 -2.7808 -3.1274
  122OSM   H14B12867   6.717   5.622   6.156  1.0519  1.8020  3.4422
  122OSM   H14C12868   6.614   5.716   6.255 -0.3571  0.2025  0.5787
  122OSM    C1312869   6.390   5.688   6.132 -0.1883  0.2034 -0.1529
  122OSM   H13A12870   6.386   5.742   6.225  1.1279 -0.0928  0.0830
  122OSM   H13B12871   6.295   5.637   6.122 -0.9589  0.6829  3.9512
  122OSM   H13C12872   6.399   5.762   6.053 -0.9511  2.1591  1.5560
  122OSM    C1212873   6.490   5.487   6.233 -0.0106  0.1870 -0.5524
  122OSM   H12A12874   6.392   5.442   6.236  0.2796 -0.4414 -0.4031
  122OSM   H12B12875   6.503   5.541   6.325  1.4136 -1.0097 -0.0263
  122OSM    C1112876   6.592   5.368   6.246 -0.3408  0.5891  0.9024
  122OSM   H11A12877   6.552   5.291   6.177  0.6017  0.9833 -0.1070
  122OSM   H11B12878   6.584   5.330   6.350 -2.2399 -1.5163  0.0307
  122OSM      P12879   6.840   5.338   6.153 -0.0447  0.0915  0.1535
  122OSM    O1312880   6.785   5.305   6.016  0.0963  0.3303  0.2451
  122OSM    O1412881   6.957   5.425   6.161 -0.0040  0.2380  0.3198
  122OSM    O1112882   6.866   5.202   6.231 -0.1085 -0.2208 -0.2169
  122OSM    O1212883   6.729   5.416   6.237  0.1707 -0.3664  0.1108
  122OSM    C1S12884   6.990   5.187   6.305 -0.2719 -0.1663  0.3066
  122OSM    H1S12885   7.075   5.226   6.245 -0.0173 -0.4993  0.4535
  122OSM    H1T12886   7.004   5.078   6.316  2.6540  0.3093  1.8403
  122OSM     NF12887   7.107   5.216   6.509  0.4098 -0.4122  0.1519
  122OSM    HNF12888   7.118   5.129   6.556  1.2427 -0.1745  0.4088
  122OSM    C2S12889   6.977   5.241   6.449  0.3559  0.2890 -0.1353
  122OSM    H2S12890   6.963   5.350   6.440  2.6094  0.7050  0.9844
  122OSM    C3S12891   6.862   5.181   6.532  0.0188  0.1643 -0.4199
  122OSM    H3S12892   6.875   5.073   6.551  1.7536  0.1556 -1.5643
  122OSM     O312893   6.732   5.193   6.472  0.3225 -0.4616  0.1024
  122OSM    HO312894   6.748   5.238   6.389  0.3112 -1.4577 -0.4540
  122OSM    C4S12895   6.864   5.245   6.665 -0.3691 -0.3313 -0.4195
  122OSM    H4S12896   6.923   5.198   6.745 -1.8218  1.1280  1.5605
  122OSM    C5S12897   6.799   5.360   6.697 -0.1503 -0.5326 -0.6532
  122OSM    H5S12898   6.736   5.412   6.624  2.2319  1.8246 -1.1228
  122OSM    C6S12899   6.800   5.447   6.824  0.2375 -0.0876 -0.2505
  122OSM    H6S12900   6.695   5.449   6.861  0.1695  0.0163 -0.4497
  122OSM    H6T12901   6.835   5.551   6.807  1.1133 -0.5456 -1.2729
  122OSM    C7S12902   6.871   5.379   6.943  0.2970 -0.6259  0.0295
  122OSM    H7S12903   6.971   5.342   6.912 -0.2438 -1.0146 -1.2814
  122OSM    H7T12904   6.819   5.292   6.988  1.3373 -1.6653 -0.7402
  122OSM    C8S12905   6.873   5.481   7.063  0.0982 -0.0762  0.9614
  122OSM    H8S12906   6.773   5.530   7.061  0.0664 -0.1894 -1.2488
  122OSM    H8T12907   6.955   5.550   7.036 -1.4325  1.1469 -0.7423
  122OSM    C9S12908   6.882   5.421   7.201 -0.0508 -0.8397 -0.2861
  122OSM    H9S12909   6.987   5.386   7.212  0.2193 -0.2750 -1.0480
  122OSM    H9T12910   6.818   5.330   7.206  1.7098 -2.2082 -2.0148
  122OSM   C10S12911   6.857   5.519   7.314  0.4764 -0.2799  0.1793
  122OSM   H10S12912   6.757   5.567   7.312 -0.6932 -2.6034  0.9751
  122OSM   H10T12913   6.927   5.602   7.292  1.5208 -1.5793 -1.4653
  122OSM   C11S12914   6.893   5.467   7.456 -0.3949 -0.1934  0.1852
  122OSM   H11S12915   6.997   5.428   7.459 -0.4674 -0.4427 -0.4907
  122OSM   H11T12916   6.832   5.378   7.482  1.5131 -1.2336  1.2772
  122OSM   C12S12917   6.882   5.576   7.569  0.1197  0.3440  0.2799
  122OSM   H12S12918   6.781   5.620   7.577 -0.3018 -0.5095 -0.3415
  122OSM   H12T12919   6.959   5.655   7.553  0.4200  0.0183  0.0964
  122OSM   C13S12920   6.915   5.513   7.702  0.5482  0.3287 -0.9514
  122OSM   H13S12921   7.019   5.474   7.689  0.6488  0.4988 -0.6590
  122OSM   H13T12922   6.837   5.442   7.735  1.1122 -0.2350 -0.8110
  122OSM   C14S12923   6.919   5.616   7.813  0.1070  0.6429 -0.3123
  122OSM   H14S12924   6.815   5.650   7.832  0.7047  1.8153  0.9269
  122OSM   H14T12925   6.963   5.709   7.772 -2.6739  0.9611 -2.7597
  122OSM   C15S12926   7.002   5.575   7.936 -0.2525  0.4563 -0.0616
  122OSM   H15S12927   7.017   5.666   7.996 -1.6144  2.0171 -2.0129
  122OSM   H15T12928   7.105   5.552   7.900  0.6897  1.7074  1.7989
  122OSM   C16S12929   6.937   5.457   8.017  0.0670  0.7589  0.2651
  122OSM   H16S12930   6.924   5.365   7.956 -2.9625 -0.7968  3.0791
  122OSM   H16T12931   6.832   5.470   8.051 -1.2361  0.2993 -3.3951
  122OSM   C17S12932   7.018   5.425   8.141  0.1544 -0.4208 -0.1273
  122OSM   H17S12933   6.977   5.337   8.196  0.4687 -0.0544  0.6957
  122OSM   H17T12934   7.021   5.525   8.189 -2.6507 -0.6889  0.6987
  122OSM   C18S12935   7.158   5.391   8.099 -0.6116  0.2743 -0.7682
  122OSM   H18S12936   7.150   5.321   8.012  0.3477 -1.2195  0.3272
  122OSM   H18T12937   7.212   5.351   8.187 -1.6099  2.3802  0.8326
  122OSM   H18U12938   7.214   5.482   8.070  1.3722 -0.8540 -0.5862
  122OSM    C1F12939   7.211   5.291   6.469 -0.3870 -0.0138  0.6952
  122OSM     OF12940   7.189   5.384   6.391 -0.0611  0.3238  0.7480
  122OSM    C2F12941   7.350   5.233   6.474 -0.3764 -0.1099  0.4843
  122OSM    H2F12942   7.361   5.159   6.392 -1.4736  0.8157 -0.5289
  122OSM    H2G12943   7.342   5.175   6.568  0.1346 -2.9403 -1.1710
  122OSM    C3F12944   7.464   5.342   6.467 -0.1325  0.5639 -0.0222
  122OSM    H3F12945   7.437   5.402   6.557 -0.5739  1.9390 -1.0496
  122OSM    H3G12946   7.458   5.401   6.373  0.8121  1.7803  0.6586
  122OSM    C4F12947   7.610   5.295   6.487 -0.6415  1.1023 -0.0430
  122OSM    H4F12948   7.674   5.384   6.508  1.4439 -0.3454 -0.1019
  122OSM    H4G12949   7.637   5.231   6.400 -2.6194 -0.8231  0.7275
  122OSM    C5F12950   7.641   5.199   6.610  0.1272 -0.0541 -1.0041
  122OSM    H5F12951   7.749   5.183   6.589  0.3697  1.7014 -1.1790
  122OSM    H5G12952   7.584   5.103   6.611  0.0665 -0.0113  0.8266
  122OSM    C6F12953   7.613   5.266   6.742  0.3108  0.2049  0.5432
  122OSM    H6F12954   7.503   5.258   6.743  0.1747  0.9503 -2.5017
  122OSM    H6G12955   7.658   5.368   6.743  0.9721 -0.0523 -0.8852
  122OSM    C7F12956   7.673   5.191   6.858 -0.0517  0.4031  0.1973
  122OSM    H7F12957   7.782   5.173   6.848  0.1533  1.1209  1.0856
  122OSM    H7G12958   7.628   5.090   6.849 -0.1956  0.4879 -0.0513
  122OSM    C8F12959   7.650   5.271   6.998 -0.4559  0.2765  0.7032
  122OSM    H8F12960   7.697   5.204   7.074  0.4407  0.4453  0.2982
  122OSM    H8G12961   7.542   5.289   7.018 -0.7412 -0.4784 -0.1057
  122OSM    C9F12962   7.723   5.404   7.005  0.5343 -0.5965 -0.5790
  122OSM    H9F12963   7.766   5.453   6.916  3.1757 -3.1710 -0.7717
  122OSM   C10F12964   7.756   5.461   7.122 -0.0789 -0.3326  0.6710
  122OSM   H10F12965   7.815   5.553   7.112  0.2586 -0.7008 -0.9024
  122OSM   C11F12966   7.720   5.418   7.258  0.1496  0.4568 -0.6710
  122OSM   H11F12967   7.776   5.327   7.288 -2.9428 -1.4664 -0.4935
  122OSM   H11G12968   7.611   5.396   7.259  0.1997  0.2113 -0.5344
  122OSM   C12F12969   7.749   5.535   7.354 -0.8240  1.1184  0.0022
  122OSM   H12F12970   7.687   5.626   7.344  0.7769  2.2166 -0.1266
  122OSM   H12G12971   7.853   5.574   7.343 -1.3429  2.0170 -1.7884
  122OSM   C13F12972   7.735   5.491   7.499 -0.0282  0.5397 -0.2552
  122OSM   H13F12973   7.806   5.408   7.519 -2.0779 -1.3141 -0.5038
  122OSM   H13G12974   7.633   5.448   7.502 -1.0729  2.9448 -0.3137
  122OSM   C14F12975   7.753   5.601   7.605  0.3735  0.0444 -0.3909
  122OSM   H14F12976   7.671   5.676   7.596  0.8000  0.6650  0.8155
  122OSM   H14G12977   7.849   5.648   7.575  1.1190 -1.4155 -0.3281
  122OSM   C15F12978   7.749   5.551   7.763  0.2640 -0.8784 -0.4266
  122OSM   H15F12979   7.780   5.444   7.767 -1.0263 -1.2522 -0.1435
  122OSM   H15G12980   7.641   5.548   7.788  0.2915 -0.2395 -0.2344
  122OSM   C16F12981   7.821   5.648   7.859 -0.8142  0.7302  0.0451
  122OSM   H16F12982   7.749   5.732   7.870 -3.2457 -1.4099  1.2402
  122OSM   H16G12983   7.907   5.688   7.801 -0.1395  0.5070  0.8783
  122OSM   C17F12984   7.853   5.580   7.996  0.4064 -0.0170 -0.0229
  122OSM   H17F12985   7.932   5.644   8.040  1.5521 -1.3910 -0.0720
  122OSM   H17G12986   7.889   5.479   7.970  2.3503  0.5844  0.2318
  122OSM   C18F12987   7.724   5.570   8.080  0.3044 -0.0419  0.0329
  122OSM   H18F12988   7.728   5.504   8.169 -0.4913 -1.5264 -1.0067
  122OSM   H18G12989   7.639   5.529   8.022 -0.3993  0.7690  0.4786
  122OSM   H18H12990   7.685   5.670   8.109 -1.4534 -0.8029  0.3775
  123OSM      N12991   5.679   1.529   6.657 -0.1249  0.8080 -0.1272
  123OSM    C1512992   5.808   1.515   6.575 -0.2809 -0.2589  0.4068
  123OSM   H15A12993   5.794   1.521   6.468 -1.7464  0.7998  0.6333
  123OSM   H15B12994   5.838   1.412   6.582  0.4334 -0.0929 -0.1684
  123OSM   H15C12995   5.873   1.597   6.606 -2.5791  1.1280  1.7231
  123OSM    C1412996   5.705   1.499   6.796  0.0679  0.4967 -0.0107
  123OSM   H14A12997   5.766   1.411   6.812  0.7097  1.0670  0.6911
  123OSM   H14B12998   5.614   1.476   6.850  0.1816 -0.9946 -0.4267
  123OSM   H14C12999   5.754   1.582   6.845  2.1360  0.0004 -1.1907
  123OSM    C1313000   5.629   1.670   6.630  0.3305 -0.2232 -0.2270
  123OSM   H13A13001   5.620   1.692   6.524 -2.8536  1.1443  0.2697
  123OSM   H13B13002   5.687   1.750   6.675 -0.1742 -0.7675  1.3958
  123OSM   H13C13003   5.530   1.683   6.672  0.2296 -0.0346 -0.5177
  123OSM    C1213004   5.573   1.429   6.605  0.2877 -0.1771  0.0339
  123OSM   H12A13005   5.547   1.453   6.503  2.1299  0.6241 -0.2865
  123OSM   H12B13006   5.490   1.459   6.667  1.1266  0.1517  1.0322
  123OSM    C1113007   5.608   1.281   6.625 -0.6479 -0.0396  0.1227
  123OSM   H11A13008   5.521   1.224   6.589 -1.5684  0.9437  0.7561
  123OSM   H11B13009   5.623   1.262   6.734 -2.8592 -0.0016  0.4371
  123OSM      P13010   5.733   1.094   6.502  0.4125 -0.0876  0.2003
  123OSM    O1313011   5.612   1.064   6.421  0.5123  0.2038  0.3472
  123OSM    O1413012   5.857   1.078   6.422  0.6867 -0.0138 -0.3028
  123OSM    O1113013   5.731   1.017   6.635  0.0266  0.0627  0.2606
  123OSM    O1213014   5.724   1.243   6.542  0.6888 -0.7567  0.3818
  123OSM    C1S13015   5.859   0.996   6.702  0.3260  0.2599 -0.2792
  123OSM    H1S13016   5.927   1.082   6.692 -1.6241  1.6172 -2.3946
  123OSM    H1T13017   5.923   0.913   6.664  0.0837  0.1878 -0.5337
  123OSM     NF13018   5.977   0.984   6.919 -0.2494 -0.3554 -0.0003
  123OSM    HNF13019   6.024   0.904   6.955 -1.5644 -0.8363  0.6650
  123OSM    C2S13020   5.848   0.981   6.859  0.2050  0.4601  0.4085
  123OSM    H2S13021   5.784   1.064   6.896 -0.4099  0.5503 -0.8248
  123OSM    C3S13022   5.763   0.851   6.898  0.3995 -0.0677  1.0495
  123OSM    H3S13023   5.822   0.764   6.864  1.8247  1.3688 -0.1973
  123OSM     O313024   5.633   0.856   6.835  0.3432 -0.2518  0.5006
  123OSM    HO313025   5.647   0.930   6.776  0.6774  0.6217  1.6617
  123OSM    C4S13026   5.758   0.850   7.051 -0.3014  0.6262  0.8600
  123OSM    H4S13027   5.680   0.917   7.089 -1.3516 -0.1129  0.0472
  123OSM    C5S13028   5.831   0.774   7.137 -0.1728  0.0001  0.5579
  123OSM    H5S13029   5.918   0.716   7.101 -1.9088 -1.9595 -0.5891
  123OSM    C6S13030   5.817   0.766   7.288  0.6191 -0.2009  0.0471
  123OSM    H6S13031   5.919   0.776   7.330  0.2020 -1.4304  1.4083
  123OSM    H6T13032   5.782   0.664   7.317 -0.4181  0.1092 -0.0750
  123OSM    C7S13033   5.721   0.869   7.358  0.5347 -0.1254  1.1488
  123OSM    H7S13034   5.643   0.909   7.289  1.0746 -2.2680 -0.7716
  123OSM    H7T13035   5.784   0.960   7.368  1.6826 -0.9332  1.4192
  123OSM    C8S13036   5.665   0.830   7.500  0.2406  0.7222  0.4057
  123OSM    H8S13037   5.598   0.742   7.501  0.3076  0.6406 -1.3506
  123OSM    H8T13038   5.611   0.920   7.539 -2.2197 -1.3065  1.8192
  123OSM    C9S13039   5.773   0.804   7.603  0.1147  0.4398 -0.4257
  123OSM    H9S13040   5.846   0.888   7.605 -1.3206  1.6871 -0.5004
  123OSM    H9T13041   5.844   0.722   7.577 -1.2416 -0.7235 -0.5539
  123OSM   C10S13042   5.725   0.798   7.746  0.1470 -0.5328 -0.2393
  123OSM   H10S13043   5.679   0.895   7.774  0.0869 -0.3507 -0.9707
  123OSM   H10T13044   5.807   0.787   7.821 -0.4145 -0.0871  0.4404
  123OSM   C11S13045   5.612   0.701   7.771  0.2455 -0.5328  0.2502
  123OSM   H11S13046   5.637   0.596   7.746 -1.2945 -1.0140  0.7144
  123OSM   H11T13047   5.522   0.729   7.713 -0.2871 -0.0075  1.3094
  123OSM   C12S13048   5.560   0.702   7.919 -0.0558 -0.1840 -0.0794
  123OSM   H12S13049   5.526   0.802   7.952 -1.6477  0.3755 -3.2800
  123OSM   H12T13050   5.647   0.655   7.970  1.4859  2.0881 -0.5552
  123OSM   C13S13051   5.452   0.595   7.945  0.0750 -0.3929  0.0769
  123OSM   H13S13052   5.496   0.495   7.923  1.5821  0.1793  0.4217
  123OSM   H13T13053   5.363   0.619   7.883  0.2327 -0.5750 -0.2220
  123OSM   C14S13054   5.394   0.588   8.083 -0.7672  0.2487  0.2592
  123OSM   H14S13055   5.322   0.504   8.092 -1.8090  1.1037  0.1458
  123OSM   H14T13056   5.342   0.687   8.080  0.6308  0.9389 -1.8499
  123OSM   C15S13057   5.494   0.591   8.198  0.5313  0.6229 -0.1481
  123OSM   H15S13058   5.562   0.679   8.191 -0.8257  1.7640  0.9335
  123OSM   H15T13059   5.549   0.495   8.206 -0.0757  0.1763 -1.1899
  123OSM   C16S13060   5.412   0.613   8.328 -0.5125 -0.1668 -0.1019
  123OSM   H16S13061   5.322   0.548   8.325  1.1229 -2.4178 -1.8944
  123OSM   H16T13062   5.359   0.710   8.329 -3.0162 -1.4892  0.5118
  123OSM   C17S13063   5.491   0.592   8.459  0.3048 -0.5551  0.9459
  123OSM   H17S13064   5.585   0.650   8.467  0.0103  0.0228  0.2650
  123OSM   H17T13065   5.522   0.486   8.471 -0.4218 -0.7765  0.9243
  123OSM   C18S13066   5.396   0.623   8.580 -0.0876  0.3205 -0.1950
  123OSM   H18S13067   5.397   0.733   8.592 -0.5292  0.3703 -0.5956
  123OSM   H18T13068   5.446   0.582   8.671  1.6328 -0.3546 -1.4049
  123OSM   H18U13069   5.294   0.585   8.558 -0.2679 -0.3924  1.7516
  123OSM    C1F13070   6.051   1.096   6.927  0.0655  0.3706  0.3814
  123OSM     OF13071   6.019   1.208   6.879  0.1969  0.1927  0.3254
  123OSM    C2F13072   6.190   1.077   6.984  0.3911 -0.3700  0.5676
  123OSM    H2F13073   6.253   1.168   6.979 -2.0882  1.2793 -1.9532
  123OSM    H2G13074   6.242   1.006   6.917  0.8919 -0.3729  0.9579
  123OSM    C3F13075   6.188   1.018   7.126 -0.2060  1.0664  0.0862
  123OSM    H3F13076   6.286   1.032   7.175  1.1725  1.2252 -2.6384
  123OSM    H3G13077   6.179   0.908   7.115  1.6290  0.9255 -0.1183
  123OSM    C4F13078   6.088   1.080   7.224  1.1418 -0.0835  0.0085
  123OSM    H4F13079   5.980   1.077   7.197  0.9531  0.0573  0.7310
  123OSM    H4G13080   6.106   1.189   7.208 -0.8509  0.3306  0.3873
  123OSM    C5F13081   6.104   1.044   7.376 -0.0765 -0.3992  0.8389
  123OSM    H5F13082   6.207   1.067   7.408 -0.7086  2.2630  1.0222
  123OSM    H5G13083   6.074   0.937   7.383  1.4571 -0.7923  1.4484
  123OSM    C6F13084   6.020   1.141   7.463  0.6292  0.8690 -0.5950
  123OSM    H6F13085   5.912   1.141   7.437  0.3694  0.6692  0.4511
  123OSM    H6G13086   6.053   1.246   7.451  3.5942  0.0685  0.2242
  123OSM    C7F13087   6.039   1.113   7.615 -0.3320  0.6082  0.5891
  123OSM    H7F13088   6.145   1.132   7.644  0.2863 -1.2043 -0.4293
  123OSM    H7G13089   6.018   1.006   7.633  1.3197  0.2504  0.4564
  123OSM    C8F13090   5.962   1.200   7.712  0.5207 -0.1534 -0.6929
  123OSM    H8F13091   5.987   1.307   7.694  0.8855 -0.6278 -3.1300
  123OSM    H8G13092   5.997   1.174   7.814 -1.0201 -0.5846 -0.2527
  123OSM    C9F13093   5.814   1.167   7.695  0.4581  0.6154 -0.2940
  123OSM    H9F13094   5.785   1.133   7.595 -1.0049 -2.1859  1.0422
  123OSM   C10F13095   5.725   1.172   7.799 -0.5893  0.0663 -1.1421
  123OSM   H10F13096   5.618   1.152   7.784 -1.4979  2.5866  1.4171
  123OSM   C11F13097   5.761   1.210   7.939  0.0687 -0.1002  0.3578
  123OSM   H11F13098   5.861   1.250   7.965  0.5171 -0.0008 -1.4983
  123OSM   H11G13099   5.758   1.120   8.005  2.8072 -0.4435  0.0720
  123OSM   C12F13100   5.660   1.320   7.980  1.4793 -0.6501 -0.8723
  123OSM   H12F13101   5.557   1.279   7.970  0.4198  2.0495 -1.2770
  123OSM   H12G13102   5.661   1.405   7.910 -0.4271 -0.2891 -0.4675
  123OSM   C13F13103   5.690   1.362   8.121 -0.0225  0.1928 -0.4532
  123OSM   H13F13104   5.797   1.391   8.123  1.0858 -3.4754 -2.0664
  123OSM   H13G13105   5.690   1.274   8.189  3.8994 -0.7175 -1.4847
  123OSM   C14F13106   5.598   1.472   8.168  0.0337  0.4694  0.3234
  123OSM   H14F13107   5.490   1.454   8.153  0.0819  0.5198 -0.0834
  123OSM   H14G13108   5.632   1.565   8.118  0.0637  0.5697  0.5314
  123OSM   C15F13109   5.615   1.492   8.320 -0.2715  0.0998  0.2722
  123OSM   H15F13110   5.593   1.388   8.352  0.7342 -1.0041 -2.4252
  123OSM   H15G13111   5.536   1.562   8.354 -0.3869  0.2808 -0.3607
  123OSM   C16F13112   5.750   1.545   8.371 -0.6172  0.1280  0.0339
  123OSM   H16F13113   5.787   1.628   8.307  1.1081  0.1757  1.0662
  123OSM   H16G13114   5.817   1.458   8.385 -2.5265 -1.4121 -0.2077
  123OSM   C17F13115   5.746   1.598   8.517 -0.5628 -0.2816  0.0740
  123OSM   H17F13116   5.717   1.514   8.583  1.0300  0.2019  1.4117
  123OSM   H17G13117   5.676   1.683   8.532  1.7587  2.2936 -2.8763
  123OSM   C18F13118   5.887   1.655   8.552 -0.6558  0.4630  0.3081
  123OSM   H18F13119   5.911   1.744   8.490  0.2572 -0.0102 -0.0177
  123OSM   H18G13120   5.962   1.578   8.525 -0.3877  0.9346 -0.3027
  123OSM   H18H13121   5.900   1.678   8.660  1.4082 -0.0859  0.1958
  124OSM      N13122   6.194   3.562   5.870 -0.3662 -0.5380 -0.1744
  124OSM    C1513123   6.266   3.557   5.742  0.0053  0.2482  0.3558
  124OSM   H15A13124   6.286   3.657   5.704 -2.0547 -0.2391 -2.1299
  124OSM   H15B13125   6.217   3.500   5.665  1.1753  1.2892 -1.1965
  124OSM   H15C13126   6.366   3.519   5.759  0.4274  0.9344 -0.4992
  124OSM    C1413127   6.052   3.582   5.839 -0.5472  0.5091  0.3082
  124OSM   H14A13128   5.996   3.595   5.930 -1.5488  0.5309 -0.3021
  124OSM   H14B13129   6.011   3.498   5.784  1.8302 -0.4727 -0.0085
  124OSM   H14C13130   6.041   3.674   5.784  1.0120  0.9188  0.6783
  124OSM    C1313131   6.210   3.431   5.928  0.2739 -0.0239  0.6892
  124OSM   H13A13132   6.184   3.437   6.033 -2.7885 -1.1583  0.0345
  124OSM   H13B13133   6.313   3.399   5.924  0.0042 -0.9631  1.1055
  124OSM   H13C13134   6.147   3.357   5.882  2.7213 -0.6976 -1.6835
  124OSM    C1213135   6.249   3.682   5.950 -0.0450 -0.2436 -0.2118
  124OSM   H12A13136   6.244   3.771   5.889  0.1786  0.0410  0.1808
  124OSM   H12B13137   6.354   3.670   5.973  0.7533 -0.3366 -3.7166
  124OSM    C1113138   6.180   3.709   6.084  0.5642  0.4737 -1.0378
  124OSM   H11A13139   6.258   3.759   6.146 -2.3212  0.8948  2.3815
  124OSM   H11B13140   6.163   3.610   6.131  1.1848  1.9090  2.2990
  124OSM      P13141   5.954   3.765   6.188 -0.1623 -0.5779  0.3434
  124OSM    O1313142   5.871   3.890   6.191  0.3869  0.0931 -0.0735
  124OSM    O1413143   5.892   3.632   6.164 -0.6761 -0.0933 -0.2641
  124OSM    O1113144   6.047   3.757   6.316  1.0431 -0.2054 -0.2084
  124OSM    O1213145   6.061   3.782   6.062  0.2396  0.3476  0.8099
  124OSM    C1S13146   6.101   3.874   6.377 -0.0463 -0.1868  0.4676
  124OSM    H1S13147   6.036   3.963   6.386 -0.3365 -0.6409  3.3195
  124OSM    H1T13148   6.190   3.909   6.319  0.0367 -0.4586  0.4265
  124OSM     NF13149   6.220   3.949   6.594 -0.8396  0.1855  0.2471
  124OSM    HNF13150   6.309   3.992   6.577 -0.5652 -0.7754 -0.8408
  124OSM    C2S13151   6.174   3.834   6.513  0.5395  0.1975 -0.0688
  124OSM    H2S13152   6.099   3.773   6.568 -1.6883  1.1005 -2.0283
  124OSM    C3S13153   6.291   3.726   6.492  0.3388  0.2436 -0.6080
  124OSM    H3S13154   6.363   3.765   6.417  2.8106 -1.0695  1.0016
  124OSM     O313155   6.249   3.603   6.451  0.2941 -0.4773  0.2281
  124OSM    HO313156   6.170   3.614   6.398  0.8266  1.0265 -0.2621
  124OSM    C4S13157   6.368   3.699   6.623 -0.4122  0.0557  0.4390
  124OSM    H4S13158   6.314   3.652   6.707 -1.5024  0.6832  0.1038
  124OSM    C5S13159   6.496   3.734   6.645  0.2663 -0.0379  0.5320
  124OSM    H5S13160   6.547   3.801   6.574 -4.0078  3.8477  0.9144
  124OSM    C6S13161   6.572   3.719   6.778  0.3683  0.5845  0.4423
  124OSM    H6S13162   6.615   3.820   6.796 -0.3662  0.5800  2.3670
  124OSM    H6T13163   6.659   3.651   6.769 -2.1570 -2.5075 -1.6857
  124OSM    C7S13164   6.477   3.664   6.892  0.0002 -0.5739 -0.1946
  124OSM    H7S13165   6.431   3.571   6.854  0.1728 -1.6400  2.1314
  124OSM    H7T13166   6.395   3.732   6.925  1.4577  0.8919  0.5168
  124OSM    C8S13167   6.554   3.629   7.021 -0.7929 -0.5512 -0.4924
  124OSM    H8S13168   6.620   3.546   6.988  1.5849  1.8396 -1.9973
  124OSM    H8T13169   6.479   3.596   7.096 -0.7538 -1.9071 -1.0392
  124OSM    C9S13170   6.637   3.747   7.076 -0.4526 -0.4063  0.1949
  124OSM    H9S13171   6.571   3.833   7.054 -0.5910 -1.2754 -3.1886
  124OSM    H9T13172   6.729   3.759   7.016 -1.0811 -1.8271 -1.1238
  124OSM   C10S13173   6.673   3.737   7.219 -0.5118 -0.4857 -0.0561
  124OSM   H10S13174   6.592   3.708   7.290 -0.9346  1.2610  0.1850
  124OSM   H10T13175   6.707   3.839   7.244  0.4629 -0.6118 -0.8488
  124OSM   C11S13176   6.786   3.632   7.233 -0.3831 -0.1094  0.2353
  124OSM   H11S13177   6.874   3.664   7.173 -2.2148  0.7368 -2.0646
  124OSM   H11T13178   6.741   3.538   7.196  0.9954 -1.5039  2.0017
  124OSM   C12S13179   6.821   3.612   7.382 -0.2968  0.0811 -0.4592
  124OSM   H12S13180   6.850   3.506   7.403 -1.3597 -0.4630 -1.6701
  124OSM   H12T13181   6.724   3.608   7.436 -0.0010 -2.6616 -0.0208
  124OSM   C13S13182   6.914   3.714   7.442 -0.2606 -0.3041  0.2722
  124OSM   H13S13183   6.866   3.814   7.440 -1.6270 -0.9075  1.7290
  124OSM   H13T13184   7.016   3.708   7.397  0.6158  0.6696  2.0624
  124OSM   C14S13185   6.929   3.699   7.593  0.3103 -0.1217 -0.4447
  124OSM   H14S13186   6.962   3.594   7.608 -0.8283 -0.0724  2.8783
  124OSM   H14T13187   6.835   3.727   7.646  1.2822  3.2377 -0.3168
  124OSM   C15S13188   7.038   3.782   7.661 -0.3159  0.1384 -0.8074
  124OSM   H15S13189   7.137   3.746   7.625 -0.6315 -2.1068  0.4603
  124OSM   H15T13190   7.026   3.763   7.770 -1.8557  3.4886 -0.3304
  124OSM   C16S13191   7.024   3.931   7.653  0.5153 -0.4452  0.1960
  124OSM   H16S13192   6.922   3.960   7.688  1.4674  1.0079  1.8403
  124OSM   H16T13193   7.027   3.958   7.545  0.0845 -3.2035 -0.5405
  124OSM   C17S13194   7.118   4.010   7.741 -0.0398  0.2859  0.3796
  124OSM   H17S13195   7.101   4.118   7.727 -1.2244  0.2551  1.5216
  124OSM   H17T13196   7.220   3.991   7.698  0.0697  1.3720  0.1610
  124OSM   C18S13197   7.126   3.976   7.889 -0.4036 -0.0866  0.2571
  124OSM   H18S13198   7.175   4.060   7.944 -0.9551  0.5053 -0.1452
  124OSM   H18T13199   7.174   3.877   7.904  0.2022  0.2440  0.5272
  124OSM   H18U13200   7.025   3.967   7.933 -1.2089  2.0979 -1.0428
  124OSM    C1F13201   6.125   4.032   6.640 -0.1286  0.0758  0.3841
  124OSM     OF13202   6.003   4.005   6.623 -0.1568 -0.3883 -0.4777
  124OSM    C2F13203   6.173   4.156   6.718 -0.3378  0.9101  0.1564
  124OSM    H2F13204   6.210   4.236   6.651  0.7468  1.9483  1.9546
  124OSM    H2G13205   6.255   4.122   6.785 -0.1324  1.4466  0.1801
  124OSM    C3F13206   6.063   4.207   6.818 -0.2011 -0.0566  0.2671
  124OSM    H3F13207   6.009   4.122   6.864 -1.1064 -0.2360 -1.0934
  124OSM    H3G13208   5.987   4.266   6.763  2.7583  2.1486 -1.6873
  124OSM    C4F13209   6.130   4.287   6.927 -0.0674  0.0537  0.2419
  124OSM    H4F13210   6.214   4.348   6.888  1.3570 -0.9837  1.5908
  124OSM    H4G13211   6.164   4.205   6.994 -1.3142 -0.2013  0.5778
  124OSM    C5F13212   6.025   4.363   7.022  0.1547 -0.2155 -0.3992
  124OSM    H5F13213   5.919   4.352   6.990  0.3134  0.9198 -1.3557
  124OSM    H5G13214   6.047   4.472   7.017 -1.9930  0.2563 -0.3533
  124OSM    C6F13215   6.033   4.335   7.177 -0.5990 -0.2046  0.0427
  124OSM    H6F13216   6.137   4.345   7.212 -0.3630 -1.3348 -0.2881
  124OSM    H6G13217   6.023   4.224   7.183  2.9434 -0.6271 -0.9995
  124OSM    C7F13218   5.924   4.417   7.251  0.3829 -0.5235 -0.0581
  124OSM    H7F13219   5.826   4.368   7.233  0.3107 -0.8302  1.0873
  124OSM    H7G13220   5.921   4.523   7.219 -2.3666 -0.3038  0.7530
  124OSM    C8F13221   5.939   4.423   7.407  1.0807  0.0138  0.3479
  124OSM    H8F13222   5.962   4.319   7.436  2.0871  0.7663  2.3892
  124OSM    H8G13223   5.837   4.444   7.447 -0.1394  0.0900 -2.6654
  124OSM    C9F13224   6.047   4.510   7.464  0.9981 -0.3748 -0.6645
  124OSM    H9F13225   6.151   4.475   7.456  1.8801  2.1126 -0.4598
  124OSM   C10F13226   6.027   4.628   7.533 -0.1687  0.6068 -0.3202
  124OSM   H10F13227   6.112   4.687   7.569 -1.1965  2.4846 -0.8949
  124OSM   C11F13228   5.894   4.686   7.571 -0.1777 -0.0960  0.0311
  124OSM   H11F13229   5.809   4.638   7.518 -0.0926 -0.5932  0.3473
  124OSM   H11G13230   5.884   4.794   7.544 -0.5478 -0.1277  0.0391
  124OSM   C12F13231   5.859   4.690   7.726 -0.1084 -0.1723 -1.2428
  124OSM   H12F13232   5.867   4.587   7.765  3.2547  0.2458 -0.7138
  124OSM   H12G13233   5.760   4.740   7.733 -0.1871 -0.6673  1.5255
  124OSM   C13F13234   5.966   4.766   7.817 -0.6655 -0.1854 -0.5084
  124OSM   H13F13235   5.986   4.868   7.778 -1.9925  0.2069 -0.1841
  124OSM   H13G13236   6.061   4.709   7.819 -1.5208 -1.5965  1.4308
  124OSM   C14F13237   5.919   4.771   7.965 -0.1389 -0.7486  0.1983
  124OSM   H14F13238   5.809   4.790   7.966 -0.0293 -0.1075  1.7959
  124OSM   H14G13239   5.978   4.859   7.998  1.0822 -0.8944 -1.5418
  124OSM   C15F13240   5.941   4.641   8.046 -0.3046  0.1367 -0.0510
  124OSM   H15F13241   5.920   4.547   7.989 -2.2269  0.6098 -0.1782
  124OSM   H15G13242   5.862   4.643   8.125 -0.2431  3.0954 -0.0187
  124OSM   C16F13243   6.077   4.647   8.116 -0.0505 -0.3224  0.7815
  124OSM   H16F13244   6.085   4.731   8.188 -1.1191  0.9502 -0.5508
  124OSM   H16G13245   6.148   4.668   8.033 -1.4164 -0.3885 -0.4291
  124OSM   C17F13246   6.103   4.508   8.166  0.3979  0.2284  0.2942
  124OSM   H17F13247   6.117   4.442   8.078  1.9537 -0.3402  0.9438
  124OSM   H17G13248   6.015   4.480   8.228  1.3108 -1.9860  0.6482
  124OSM   C18F13249   6.222   4.490   8.257 -0.5603  0.1364 -0.0565
  124OSM   H18F13250   6.320   4.492   8.203 -0.3917 -2.2528  0.0800
  124OSM   H18G13251   6.225   4.393   8.311  1.7754  0.6460  0.8129
  124OSM   H18H13252   6.234   4.570   8.334  0.7560 -1.8190  1.8483
  125OSM      N13253   2.193   3.053   6.120  0.0839 -0.4160 -0.1060
  125OSM    C1513254   2.059   3.095   6.076 -0.9946  0.0751 -1.2201
  125OSM   H15A13255   2.023   3.187   6.119  0.6572 -0.6664  1.8859
  125OSM   H15B13256   1.981   3.026   6.105 -1.1987  1.6137  2.0211
  125OSM   H15C13257   2.046   3.093   5.968 -1.9065 -1.8655 -1.1074
  125OSM    C1413258   2.291   3.148   6.065 -0.4838 -0.0615  0.4775
  125OSM   H14A13259   2.390   3.108   6.081 -0.3845 -0.2934 -0.6683
  125OSM   H14B13260   2.288   3.250   6.100  0.8222  0.3827 -0.6351
  125OSM   H14C13261   2.279   3.155   5.957 -0.8587  2.5313  0.6477
  125OSM    C1313262   2.209   3.058   6.270 -0.3216 -0.1754  0.3009
  125OSM   H13A13263   2.310   3.039   6.301  0.5428  0.2773 -2.1289
  125OSM   H13B13264   2.137   2.997   6.323 -0.9910  1.3959  1.2625
  125OSM   H13C13265   2.198   3.152   6.321  0.4669 -0.3092  0.7090
  125OSM    C1213266   2.244   2.914   6.075 -0.1876  1.1367  0.1579
  125OSM   H12A13267   2.334   2.889   6.129  0.4568  0.1152 -1.3430
  125OSM   H12B13268   2.259   2.914   5.968 -3.1782 -0.2294 -0.3279
  125OSM    C1113269   2.146   2.792   6.105  0.3280 -0.8849 -0.5437
  125OSM   H11A13270   2.186   2.704   6.049  0.5188 -0.5418 -0.9465
  125OSM   H11B13271   2.048   2.822   6.063  1.4986  1.0090 -1.9956
  125OSM      P13272   2.210   2.666   6.331 -0.2012 -0.1992 -0.4298
  125OSM    O1313273   2.131   2.542   6.318 -0.5718  0.4513 -0.4961
  125OSM    O1413274   2.354   2.662   6.293 -0.6789 -0.9768 -0.4444
  125OSM    O1113275   2.186   2.742   6.473  0.3679  0.3691 -0.1453
  125OSM    O1213276   2.130   2.773   6.247  0.3034  0.1079  0.2906
  125OSM    C1S13277   2.194   2.662   6.591  0.5739 -0.7073  0.4091
  125OSM    H1S13278   2.266   2.578   6.575 -0.5407 -1.6290  0.1020
  125OSM    H1T13279   2.093   2.620   6.611  2.0701 -3.6290  2.2613
  125OSM     NF13280   2.236   2.649   6.825  0.6324  0.0610 -0.0171
  125OSM    HNF13281   2.158   2.648   6.888 -0.4262 -1.5105 -1.3062
  125OSM    C2S13282   2.244   2.739   6.715  0.1000  0.1482  0.0153
  125OSM    H2S13283   2.351   2.755   6.693  1.0725 -3.9829  1.3237
  125OSM    C3S13284   2.171   2.869   6.731 -0.3378 -0.4667  0.7470
  125OSM    H3S13285   2.062   2.851   6.738 -0.4056 -0.5284 -0.4121
  125OSM     O313286   2.179   2.956   6.622  0.0691  0.0301  0.0281
  125OSM    HO313287   2.189   2.895   6.548  2.3105 -0.4766  0.7231
  125OSM    C4S13288   2.223   2.952   6.848  0.0687  0.5848  0.0312
  125OSM    H4S13289   2.145   2.976   6.922  0.9343 -2.0071  1.8873
  125OSM    C5S13290   2.354   2.995   6.867 -0.1212 -0.0145 -0.3478
  125OSM    H5S13291   2.435   2.950   6.808  1.6834  1.2664  1.0440
  125OSM    C6S13292   2.404   3.079   6.988  0.5218  0.0317  0.3396
  125OSM    H6S13293   2.420   3.186   6.964 -2.8808  0.7941  1.1634
  125OSM    H6T13294   2.489   3.033   7.043 -0.1631  0.6517  1.9662
  125OSM    C7S13295   2.297   3.082   7.104  0.1386 -0.5574 -0.4859
  125OSM    H7S13296   2.255   2.981   7.119 -0.1185 -0.2767  0.7011
  125OSM    H7T13297   2.216   3.152   7.075 -0.6562 -0.6713  1.3897
  125OSM    C8S13298   2.361   3.148   7.228 -0.8321  0.1505  0.4452
  125OSM    H8S13299   2.406   3.244   7.193 -1.0406 -0.2634 -1.0053
  125OSM    H8T13300   2.448   3.086   7.256  0.1755  1.8297  1.1132
  125OSM    C9S13301   2.247   3.169   7.330  0.4203  1.1326  0.5201
  125OSM    H9S13302   2.202   3.071   7.356 -0.3462  1.6170  1.0423
  125OSM    H9T13303   2.174   3.221   7.264 -0.9768 -0.3304  0.9127
  125OSM   C10S13304   2.288   3.256   7.449 -0.2203  0.0562  0.1701
  125OSM   H10S13305   2.189   3.302   7.468 -0.2039  0.4893 -0.7511
  125OSM   H10T13306   2.351   3.340   7.411  1.2134 -0.9037  0.3652
  125OSM   C11S13307   2.349   3.180   7.562  0.1863  0.4916 -0.4737
  125OSM   H11S13308   2.452   3.151   7.531 -0.3891 -0.0859 -1.8796
  125OSM   H11T13309   2.289   3.090   7.585  2.9781 -1.3492 -0.1772
  125OSM   C12S13310   2.383   3.274   7.683  0.1401  0.5619 -0.4994
  125OSM   H12S13311   2.290   3.310   7.731  0.0561 -0.7822  0.3817
  125OSM   H12T13312   2.444   3.358   7.644  3.6420 -1.7568 -0.2933
  125OSM   C13S13313   2.460   3.208   7.797 -0.7344  0.1449  0.3752
  125OSM   H13S13314   2.563   3.182   7.763 -0.7516  0.3235  0.1847
  125OSM   H13T13315   2.403   3.115   7.815 -1.8480  0.7474 -0.0089
  125OSM   C14S13316   2.483   3.287   7.920 -0.1137 -0.2418  0.4804
  125OSM   H14S13317   2.503   3.393   7.895  2.4326 -1.1454 -1.5664
  125OSM   H14T13318   2.571   3.250   7.976  0.0883  0.7477  0.8210
  125OSM   C15S13319   2.368   3.294   8.023 -0.0859  0.2600  1.0120
  125OSM   H15S13320   2.334   3.197   8.065 -0.5920  1.1232  2.6505
  125OSM   H15T13321   2.283   3.347   7.976  0.3867 -0.3140 -0.5085
  125OSM   C16S13322   2.402   3.369   8.151  0.5538  0.2439 -0.1433
  125OSM   H16S13323   2.509   3.339   8.156  0.7926  1.1640  0.2409
  125OSM   H16T13324   2.339   3.340   8.238  0.2226 -0.0878 -0.4909
  125OSM   C17S13325   2.387   3.518   8.146 -0.1291  0.2087  0.3972
  125OSM   H17S13326   2.278   3.537   8.161 -0.1218  0.5636  0.0087
  125OSM   H17T13327   2.408   3.559   8.045 -3.9088 -1.5821 -1.2080
  125OSM   C18S13328   2.468   3.594   8.250  0.5056  0.0524 -0.1890
  125OSM   H18S13329   2.466   3.703   8.231 -3.0145  0.2848  1.1828
  125OSM   H18T13330   2.575   3.566   8.245 -0.2479 -3.0654  0.2754
  125OSM   H18U13331   2.429   3.564   8.350 -0.4339  2.7910  0.3082
  125OSM    C1F13332   2.314   2.547   6.839  0.3945 -0.0710 -0.0053
  125OSM     OF13333   2.424   2.554   6.786 -0.3448  0.1195  0.2065
  125OSM    C2F13334   2.264   2.424   6.899 -0.0694 -0.3036  0.2522
  125OSM    H2F13335   2.253   2.352   6.816 -2.0830  0.4975 -0.2060
  125OSM    H2G13336   2.165   2.441   6.947  0.1855 -2.5683  1.6277
  125OSM    C3F13337   2.362   2.379   7.019  0.0426 -0.5998  0.3047
  125OSM    H3F13338   2.388   2.465   7.085 -2.9432  1.9643 -1.6956
  125OSM    H3G13339   2.453   2.354   6.960  1.8820 -0.7095  3.1097
  125OSM    C4F13340   2.311   2.260   7.093 -0.2708 -0.0420  0.2467
  125OSM    H4F13341   2.298   2.174   7.024 -0.5904  0.1858  0.0239
  125OSM    H4G13342   2.207   2.274   7.128 -0.9009  1.1100 -2.0296
  125OSM    C5F13343   2.414   2.216   7.198  0.2734  0.6004  0.7440
  125OSM    H5F13344   2.492   2.162   7.141  0.3454  1.0441  0.4158
  125OSM    H5G13345   2.367   2.144   7.268  0.1565 -1.5882 -1.5257
  125OSM    C6F13346   2.474   2.334   7.290  0.1635  0.9776  0.2193
  125OSM    H6F13347   2.392   2.392   7.338  0.8806  0.7027  1.8079
  125OSM    H6G13348   2.533   2.407   7.230  1.0471 -0.6614 -0.9396
  125OSM    C7F13349   2.563   2.282   7.401  0.8632  0.0072 -0.2996
  125OSM    H7F13350   2.613   2.372   7.442  1.4602 -0.5182  0.1114
  125OSM    H7G13351   2.642   2.218   7.356  2.5191 -0.1470  2.7067
  125OSM    C8F13352   2.495   2.192   7.505  0.5880 -0.8976  0.3502
  125OSM    H8F13353   2.446   2.101   7.466 -0.4514  0.7518 -2.3757
  125OSM    H8G13354   2.420   2.259   7.553  0.7263 -0.0974 -0.5276
  125OSM    C9F13355   2.615   2.146   7.591 -0.3583 -0.3163 -0.1720
  125OSM    H9F13356   2.694   2.085   7.545  1.9352  2.3202  0.1223
  125OSM   C10F13357   2.633   2.189   7.717 -0.6821 -0.6717 -0.2401
  125OSM   H10F13358   2.719   2.146   7.770  1.3254 -1.6478 -4.0580
  125OSM   C11F13359   2.538   2.286   7.797  0.8171 -0.0447  0.0282
  125OSM   H11F13360   2.452   2.326   7.740 -0.3880  0.5717  2.2217
  125OSM   H11G13361   2.591   2.374   7.840 -0.6046  0.8998 -0.1192
  125OSM   C12F13362   2.474   2.208   7.914 -1.0077  0.0774  0.8266
  125OSM   H12F13363   2.553   2.149   7.966 -0.1301 -0.8859 -1.5615
  125OSM   H12G13364   2.409   2.126   7.878  0.4074 -0.6101 -0.2304
  125OSM   C13F13365   2.394   2.303   8.009 -0.2862  0.3851 -0.3452
  125OSM   H13F13366   2.345   2.383   7.949  1.8863  1.5513 -0.6279
  125OSM   H13G13367   2.473   2.364   8.058  0.6859 -0.8822 -0.3296
  125OSM   C14F13368   2.309   2.234   8.118 -0.7399 -0.6517 -0.3762
  125OSM   H14F13369   2.215   2.196   8.072 -0.5955 -1.2369 -0.1933
  125OSM   H14G13370   2.280   2.323   8.178  0.7410 -0.3127 -0.1402
  125OSM   C15F13371   2.376   2.128   8.210  0.4331  0.0453  0.5384
  125OSM   H15F13372   2.477   2.154   8.248  0.4532  0.7804 -0.0099
  125OSM   H15G13373   2.363   2.031   8.157  0.6636 -1.3423  2.9371
  125OSM   C16F13374   2.281   2.116   8.336  0.1422  0.6458  0.0193
  125OSM   H16F13375   2.174   2.105   8.308 -0.4329  0.1710  2.3467
  125OSM   H16G13376   2.283   2.206   8.401 -3.1955  0.9390 -0.2151
  125OSM   C17F13377   2.335   1.997   8.415 -0.0027 -0.0315  0.0213
  125OSM   H17F13378   2.443   2.014   8.433  0.1422  1.3343 -2.0149
  125OSM   H17G13379   2.330   1.899   8.364  1.3081 -0.0380 -0.1096
  125OSM   C18F13380   2.257   1.986   8.545  0.0329  0.1817  0.3451
  125OSM   H18F13381   2.147   1.978   8.532  0.1465 -2.1412  0.4772
  125OSM   H18G13382   2.284   2.070   8.612 -1.4770  1.0778 -0.1673
  125OSM   H18H13383   2.301   1.895   8.592  0.3159 -0.2305 -0.6927
  126OSM      N13384   0.072   0.168   6.415 -0.2890  0.1531  0.1178
  126OSM    C1513385   0.133   0.031   6.450  0.4447 -0.4337 -0.1004
  126OSM   H15A13386   0.140  -0.041   6.369 -1.4229  1.1696 -1.7360
  126OSM   H15B13387   0.073  -0.021   6.525 -0.6245  2.8243  1.3767
  126OSM   H15C13388   0.234   0.049   6.481 -0.3066  2.0967  0.9685
  126OSM    C1413389   0.165   0.241   6.324  0.0069 -0.4447 -0.8173
  126OSM   H14A13390   0.261   0.241   6.373 -3.0522  1.1289  5.5981
  126OSM   H14B13391   0.124   0.340   6.307  0.6754 -0.2282 -1.2012
  126OSM   H14C13392   0.167   0.193   6.227 -1.8986  0.6722 -1.4352
  126OSM    C1313393  -0.061   0.149   6.365  0.5760 -0.0602 -0.4754
  126OSM   H13A13394  -0.119   0.235   6.334 -0.8366 -0.9697 -0.3827
  126OSM   H13B13395  -0.128   0.092   6.428 -0.1929 -0.7811 -1.9221
  126OSM   H13C13396  -0.062   0.084   6.279 -2.0129 -1.2596  0.4146
  126OSM    C1213397   0.066   0.244   6.548  0.6489 -0.8028 -0.2454
  126OSM   H12A13398   0.157   0.235   6.605 -0.2816  2.5925  1.9615
  126OSM   H12B13399  -0.007   0.200   6.615  0.4829 -1.8840 -1.1330
  126OSM    C1113400   0.021   0.392   6.547  0.5614 -0.0880 -0.1914
  126OSM   H11A13401   0.088   0.438   6.471  1.1132 -3.3527 -1.7777
  126OSM   H11B13402   0.039   0.442   6.645  0.9372 -0.4884 -0.0561
  126OSM      P13403  -0.231   0.397   6.610  0.0311  0.6408 -0.0917
  126OSM    O1313404  -0.318   0.516   6.616  0.4415  0.3016  0.0911
  126OSM    O1413405  -0.292   0.263   6.585  0.1654 -0.1043  0.0429
  126OSM    O1113406  -0.158   0.387   6.750 -0.8780  0.1751  0.4211
  126OSM    O1213407  -0.114   0.413   6.502  0.2504  0.3099  0.2807
  126OSM    C1S13408  -0.225   0.334   6.868 -0.0390  0.2458  0.4719
  126OSM    H1S13409  -0.232   0.223   6.865  0.9874  0.1320  1.6393
  126OSM    H1T13410  -0.327   0.377   6.859 -1.9487 -4.2887 -1.0823
  126OSM     NF13411  -0.225   0.303   7.107  0.9044  0.2963  0.2802
  126OSM    HNF13412  -0.299   0.347   7.157 -0.3561  0.5865 -1.8069
  126OSM    C2S13413  -0.164   0.372   6.999 -0.1288  0.0953 -0.1323
  126OSM    H2S13414  -0.060   0.334   6.991  0.2541  1.0981 -0.0515
  126OSM    C3S13415  -0.161   0.528   7.013  0.6480 -0.0794 -0.2211
  126OSM    H3S13416  -0.264   0.565   7.028  0.2420 -1.3559  0.2921
  126OSM     O313417  -0.097   0.589   6.902 -0.0832 -0.0545  0.1416
  126OSM    HO313418  -0.093   0.518   6.838 -0.2484 -1.1214  1.3001
  126OSM    C4S13419  -0.084   0.563   7.132  0.8234  0.7856 -0.0449
  126OSM    H4S13420  -0.010   0.485   7.154  1.6445  1.7341  0.5891
  126OSM    C5S13421  -0.101   0.674   7.205 -0.2613 -1.0236  0.4354
  126OSM    H5S13422  -0.162   0.760   7.174 -0.1779 -0.7983  0.8925
  126OSM    C6S13423  -0.028   0.695   7.337 -0.2067  0.0484  0.3659
  126OSM    H6S13424   0.039   0.784   7.338  1.8365 -1.4741  0.8936
  126OSM    H6T13425   0.039   0.609   7.356  1.2590  1.0086 -0.3101
  126OSM    C7S13426  -0.136   0.720   7.441 -0.1037  0.4629  0.0877
  126OSM    H7S13427  -0.204   0.632   7.441  0.1827  0.2021  2.4623
  126OSM    H7T13428  -0.202   0.807   7.423  0.1968  0.8916  0.9907
  126OSM    C8S13429  -0.077   0.738   7.579  0.3609  0.2112 -0.4818
  126OSM    H8S13430  -0.028   0.838   7.581 -0.5370  0.6533  0.8456
  126OSM    H8T13431  -0.008   0.660   7.617 -0.2288  0.3995  1.0198
  126OSM    C9S13432  -0.189   0.737   7.690  0.4942  0.0381  0.3471
  126OSM    H9S13433  -0.239   0.638   7.696 -0.4220  0.3967 -1.0777
  126OSM    H9T13434  -0.259   0.811   7.647  0.8179 -0.7137 -1.5151
  126OSM   C10S13435  -0.135   0.786   7.826 -0.2044 -0.2044  0.0640
  126OSM   H10S13436  -0.114   0.894   7.814  0.3149 -0.2821  0.2554
  126OSM   H10T13437  -0.037   0.739   7.847  0.4820  0.9803 -0.4233
  126OSM   C11S13438  -0.239   0.754   7.936  1.0615  0.2384 -0.4735
  126OSM   H11S13439  -0.202   0.669   7.998  1.8823  0.3657 -0.7863
  126OSM   H11T13440  -0.339   0.718   7.904  1.3534 -1.5763  0.5553
  126OSM   C12S13441  -0.259   0.866   8.038  0.2476  0.8057  0.5939
  126OSM   H12S13442  -0.306   0.952   7.986 -0.8998 -1.1351 -1.7197
  126OSM   H12T13443  -0.159   0.896   8.074  0.4168 -0.0330  0.8333
  126OSM   C13S13444  -0.332   0.817   8.162  0.2812 -0.0335  0.7054
  126OSM   H13S13445  -0.273   0.733   8.204 -1.1508 -0.0742  2.7179
  126OSM   H13T13446  -0.432   0.772   8.145 -0.3967  1.0062  1.8991
  126OSM   C14S13447  -0.368   0.925   8.259  0.0370  0.4867  0.3623
  126OSM   H14S13448  -0.460   0.976   8.224  0.9805  1.3645 -0.9069
  126OSM   H14T13449  -0.282   0.996   8.263 -1.4212  2.3765 -0.5897
  126OSM   C15S13450  -0.395   0.879   8.404 -0.5570 -0.0021  0.4373
  126OSM   H15S13451  -0.477   0.805   8.413 -0.4177 -1.0015 -4.9333
  126OSM   H15T13452  -0.432   0.976   8.443 -2.8891 -0.0929 -1.4272
  126OSM   C16S13453  -0.267   0.842   8.476  0.4584  0.1965 -0.3091
  126OSM   H16S13454  -0.189   0.915   8.443 -0.4282  0.3155 -2.2070
  126OSM   H16T13455  -0.235   0.741   8.444  0.0365 -1.0610  3.1098
  126OSM   C17S13456  -0.290   0.832   8.634  0.5415  0.5436  0.0667
  126OSM   H17S13457  -0.380   0.772   8.662  1.4794  0.0717  2.1888
  126OSM   H17T13458  -0.307   0.932   8.680 -1.3888 -0.3511  1.3869
  126OSM   C18S13459  -0.174   0.764   8.707 -0.4635  0.1441  0.1336
  126OSM   H18S13460  -0.164   0.661   8.666 -1.0171  1.0577 -2.4091
  126OSM   H18T13461  -0.180   0.762   8.818 -0.7865 -0.7949  0.1043
  126OSM   H18U13462  -0.078   0.819   8.697 -1.6032  2.8368  3.1383
  126OSM    C1F13463  -0.220   0.167   7.118 -0.1433 -1.1339 -0.3577
  126OSM     OF13464  -0.122   0.113   7.064  0.2296  0.1306 -0.5254
  126OSM    C2F13465  -0.325   0.090   7.190 -0.0897  0.0080 -0.5014
  126OSM    H2F13466  -0.390   0.014   7.142 -1.2370  0.4654  0.3076
  126OSM    H2G13467  -0.391   0.171   7.229  0.6993  0.5199 -0.2148
  126OSM    C3F13468  -0.283   0.006   7.319  0.2507 -0.3285  0.0826
  126OSM    H3F13469  -0.378  -0.012   7.375 -0.4676 -0.7135 -1.2314
  126OSM    H3G13470  -0.219   0.068   7.385  2.4918 -1.7801 -0.6748
  126OSM    C4F13471  -0.218  -0.125   7.280 -0.2982  0.0972 -1.0128
  126OSM    H4F13472  -0.159  -0.107   7.188 -1.0580 -0.0381 -1.5348
  126OSM    H4G13473  -0.294  -0.200   7.252  1.0193 -1.8460  0.5019
  126OSM    C5F13474  -0.124  -0.192   7.382 -0.6580 -0.5287  0.8944
  126OSM    H5F13475  -0.153  -0.195   7.490  0.5225 -2.0060  1.1851
  126OSM    H5G13476  -0.021  -0.151   7.392 -0.2545 -1.0183 -1.1076
  126OSM    C6F13477  -0.101  -0.338   7.333  0.0864  0.3429 -0.3792
  126OSM    H6F13478  -0.006  -0.381   7.371 -0.8015 -0.7625  0.5979
  126OSM    H6G13479  -0.106  -0.344   7.222  1.4994 -0.0664 -0.4228
  126OSM    C7F13480  -0.213  -0.432   7.387  0.5936  0.0182  0.4795
  126OSM    H7F13481  -0.204  -0.531   7.339 -0.2345 -0.2862  0.9541
  126OSM    H7G13482  -0.316  -0.394   7.372  1.0473  1.3474  0.6341
  126OSM    C8F13483  -0.211  -0.451   7.543 -1.0057  0.4164  0.0177
  126OSM    H8F13484  -0.301  -0.513   7.562 -0.6626 -0.1351 -0.1434
  126OSM    H8G13485  -0.233  -0.358   7.601  1.7844  1.7610 -0.9629
  126OSM    C9F13486  -0.087  -0.520   7.594  0.0039 -0.7464  0.1264
  126OSM    H9F13487  -0.074  -0.620   7.552 -0.9457 -0.2247 -1.4704
  126OSM   C10F13488  -0.000  -0.458   7.679 -0.0005  0.6044  0.2134
  126OSM   H10F13489   0.088  -0.520   7.699 -0.4598 -0.2580 -0.3901
  126OSM   C11F13490  -0.013  -0.320   7.744  1.5600  0.2592  0.1082
  126OSM   H11F13491  -0.101  -0.258   7.715  1.3567  0.9713  2.1254
  126OSM   H11G13492   0.073  -0.262   7.703  0.7094 -0.8991 -3.5087
  126OSM   C12F13493  -0.012  -0.336   7.899 -0.1840  0.7708 -0.0812
  126OSM   H12F13494   0.028  -0.243   7.944  0.3176  0.9297 -0.8598
  126OSM   H12G13495   0.052  -0.418   7.939 -2.5095 -1.9861 -1.7566
  126OSM   C13F13496  -0.157  -0.354   7.958 -0.0711 -0.1237  0.1413
  126OSM   H13F13497  -0.214  -0.431   7.902 -1.0417  2.6010 -2.7642
  126OSM   H13G13498  -0.215  -0.259   7.955 -1.1285 -0.6665  2.6395
  126OSM   C14F13499  -0.173  -0.388   8.107 -0.2538 -0.9788 -0.5727
  126OSM   H14F13500  -0.106  -0.471   8.141 -1.0067 -1.1141  0.6097
  126OSM   H14G13501  -0.276  -0.413   8.138  0.6332 -1.1288  2.3791
  126OSM   C15F13502  -0.117  -0.278   8.199  0.4515  0.4758 -0.4572
  126OSM   H15F13503  -0.173  -0.187   8.168 -2.1302 -0.6689  0.6663
  126OSM   H15G13504  -0.007  -0.276   8.183  0.5134  0.4392 -0.0388
  126OSM   C16F13505  -0.126  -0.302   8.355 -0.1461 -0.8999 -0.3058
  126OSM   H16F13506  -0.037  -0.364   8.380  0.4231  0.1088  0.1821
  126OSM   H16G13507  -0.219  -0.354   8.389 -0.6462  0.2963  0.1743
  126OSM   C17F13508  -0.109  -0.183   8.452  0.3404  0.1894  0.3382
  126OSM   H17F13509  -0.188  -0.113   8.419  0.4153  0.2502  0.2878
  126OSM   H17G13510  -0.018  -0.123   8.430  0.6426 -0.9689 -1.7016
  126OSM   C18F13511  -0.117  -0.235   8.597 -1.1655 -0.4213 -0.4498
  126OSM   H18F13512  -0.215  -0.285   8.612  0.0487 -2.8708 -0.4531
  126OSM   H18G13513  -0.089  -0.164   8.678  0.1688  1.3416 -2.4147
  126OSM   H18H13514  -0.044  -0.318   8.609 -1.7621 -0.9520 -0.4527
  127OSM      N13515   5.332   0.765   6.088 -0.1703  0.1671  0.0458
  127OSM    C1513516   5.343   0.618   6.092 -0.2178 -0.4094 -0.3872
  127OSM   H15A13517   5.335   0.573   5.994 -2.1851 -2.6288  0.7545
  127OSM   H15B13518   5.266   0.597   6.164 -0.8807  4.6189  0.5501
  127OSM   H15C13519   5.438   0.585   6.130  0.8322  2.3045 -0.4929
  127OSM    C1413520   5.439   0.816   5.993  0.2499  0.1943  0.0352
  127OSM   H14A13521   5.431   0.921   5.968  0.4484  0.2292  0.1191
  127OSM   H14B13522   5.448   0.759   5.901 -0.7262 -1.5111  0.9734
  127OSM   H14C13523   5.535   0.793   6.037 -0.3711 -0.5062  1.0518
  127OSM    C1313524   5.192   0.801   6.034  0.8391 -0.2593  0.5515
  127OSM   H13A13525   5.200   0.907   6.053  0.9900 -0.1274 -0.2296
  127OSM   H13B13526   5.117   0.771   6.106 -0.3414 -0.1002 -0.5871
  127OSM   H13C13527   5.174   0.759   5.936  0.3681 -1.3437  1.0946
  127OSM    C1213528   5.340   0.827   6.226  0.4271 -0.7670  0.3533
  127OSM   H12A13529   5.350   0.934   6.215 -0.4533 -0.6512  0.6183
  127OSM   H12B13530   5.429   0.795   6.279  0.8068 -0.3094 -0.0109
  127OSM    C1113531   5.223   0.794   6.331 -1.1245  0.5909  0.7498
  127OSM   H11A13532   5.133   0.842   6.287 -0.1873 -0.3116 -2.2200
  127OSM   H11B13533   5.243   0.829   6.435 -1.2500  1.3390  0.5234
  127OSM      P13534   5.064   0.596   6.335  0.4468 -0.0081 -0.3206
  127OSM    O1313535   4.993   0.650   6.217  0.0901 -1.1043 -0.1591
  127OSM    O1413536   5.077   0.448   6.360  0.2958  0.8327 -0.8430
  127OSM    O1113537   5.001   0.675   6.460 -0.2824 -0.5120 -0.5777
  127OSM    O1213538   5.214   0.654   6.343  0.2838 -0.2883 -0.4959
  127OSM    C1S13539   5.036   0.644   6.593  0.6697 -0.5759 -0.2626
  127OSM    H1S13540   5.137   0.598   6.598  0.6813 -0.5074  0.1859
  127OSM    H1T13541   4.963   0.578   6.645  0.1612  0.0426 -0.1885
  127OSM     NF13542   5.099   0.764   6.806  0.0304  0.2929 -0.0512
  127OSM    HNF13543   5.060   0.810   6.886 -1.5966 -3.1126  1.2342
  127OSM    C2S13544   5.039   0.783   6.674  0.3771 -0.1383  0.7423
  127OSM    H2S13545   5.108   0.846   6.614  2.6092 -2.5574  0.7000
  127OSM    C3S13546   4.904   0.858   6.670  0.1490  0.0909 -0.5006
  127OSM    H3S13547   4.828   0.800   6.725  2.0142 -1.6358  0.3243
  127OSM     O313548   4.848   0.890   6.543  0.2809 -0.4518  0.6825
  127OSM    HO313549   4.895   0.841   6.475  1.8568  0.3181  1.2035
  127OSM    C4S13550   4.933   0.988   6.742 -0.1132  0.1196 -0.2107
  127OSM    H4S13551   5.026   1.034   6.704  0.8875 -0.8915  0.9437
  127OSM    C5S13552   4.869   1.050   6.838 -0.3503  0.2123 -0.3306
  127OSM    H5S13553   4.782   0.999   6.883 -0.3363 -1.2482 -1.8707
  127OSM    C6S13554   4.914   1.178   6.897  0.0697  0.4225 -0.2172
  127OSM    H6S13555   4.856   1.269   6.870  0.6340  0.6518 -0.6526
  127OSM    H6T13556   5.020   1.203   6.876  0.2880 -0.3013 -0.0071
  127OSM    C7S13557   4.923   1.177   7.051  0.8473 -0.1871  0.6581
  127OSM    H7S13558   4.978   1.265   7.092 -0.7087  2.1059 -1.9811
  127OSM    H7T13559   4.977   1.087   7.087  0.1666 -0.9890 -0.3088
  127OSM    C8S13560   4.797   1.189   7.133 -0.1714 -0.6864 -1.0089
  127OSM    H8S13561   4.729   1.107   7.101 -1.9265  2.3009 -5.2848
  127OSM    H8T13562   4.743   1.277   7.092  2.3703  1.6295  0.4783
  127OSM    C9S13563   4.805   1.212   7.284 -0.7785 -0.0235  0.1260
  127OSM    H9S13564   4.697   1.224   7.305 -1.4047 -0.1608 -2.8034
  127OSM    H9T13565   4.859   1.306   7.309 -0.0490  0.0115 -1.5204
  127OSM   C10S13566   4.871   1.105   7.374  0.4587  0.1108  0.2630
  127OSM   H10S13567   4.982   1.103   7.368  0.4222 -0.3468 -0.2534
  127OSM   H10T13568   4.838   1.002   7.350 -1.4126  0.6638  0.4358
  127OSM   C11S13569   4.838   1.136   7.527 -0.0681  0.3534 -0.2474
  127OSM   H11S13570   4.859   1.045   7.587  0.1398  0.5683  0.0035
  127OSM   H11T13571   4.727   1.147   7.532 -0.4083 -1.8005 -2.5108
  127OSM   C12S13572   4.903   1.265   7.583  0.3256  0.5427 -0.6558
  127OSM   H12S13573   4.868   1.355   7.529 -1.8812 -0.2805 -0.6141
  127OSM   H12T13574   5.014   1.265   7.578  0.2848 -0.7587 -1.9286
  127OSM   C13S13575   4.856   1.278   7.728 -0.8086 -0.2284  0.1659
  127OSM   H13S13576   4.748   1.258   7.743 -0.7014 -0.8191  0.1589
  127OSM   H13T13577   4.865   1.385   7.758 -1.9174 -1.2270  4.2394
  127OSM   C14S13578   4.939   1.185   7.819 -0.3946 -0.3592  0.6250
  127OSM   H14S13579   5.046   1.213   7.809 -0.9840  1.6550 -0.3661
  127OSM   H14T13580   4.938   1.079   7.787  1.6124  0.4175 -2.1812
  127OSM   C15S13581   4.891   1.197   7.964 -0.4129  0.0506  0.0472
  127OSM   H15S13582   4.947   1.118   8.020 -1.8825 -0.1980  1.2248
  127OSM   H15T13583   4.786   1.165   7.981 -0.6515  0.4666 -0.6541
  127OSM   C16S13584   4.915   1.333   8.026  0.4526  0.2087  0.1815
  127OSM   H16S13585   4.909   1.312   8.135 -0.0963 -1.9575 -0.2349
  127OSM   H16T13586   4.837   1.408   8.000  0.6855  1.0854  1.9750
  127OSM   C17S13587   5.050   1.404   8.003 -0.1735 -0.1618  0.7155
  127OSM   H17S13588   5.056   1.439   7.898 -1.0711 -3.3003 -0.4256
  127OSM   H17T13589   5.132   1.332   8.019  0.0412  0.1419  1.0014
  127OSM   C18S13590   5.073   1.512   8.103  0.0809  0.2049  0.2375
  127OSM   H18S13591   5.182   1.538   8.102  0.3693 -0.9570 -2.4739
  127OSM   H18T13592   5.033   1.477   8.200 -1.0579  2.2852  0.5455
  127OSM   H18U13593   5.035   1.614   8.082 -1.9500 -0.7266 -0.6632
  127OSM    C1F13594   5.211   0.698   6.827  0.2485  0.9119 -0.0980
  127OSM     OF13595   5.298   0.697   6.743  0.2668 -0.0294  0.1887
  127OSM    C2F13596   5.225   0.627   6.952  0.2544 -0.9372 -0.0431
  127OSM    H2F13597   5.183   0.526   6.935  0.3932 -1.0538  0.3127
  127OSM    H2G13598   5.185   0.677   7.043  1.6837 -2.2390  1.3233
  127OSM    C3F13599   5.373   0.615   7.006 -0.0216  0.0760 -0.3053
  127OSM    H3F13600   5.410   0.715   7.035 -1.9746  1.0403 -1.0527
  127OSM    H3G13601   5.446   0.596   6.924 -0.0594 -2.0455  0.1092
  127OSM    C4F13602   5.390   0.510   7.117 -0.8636  0.5074  0.0921
  127OSM    H4F13603   5.492   0.510   7.160  0.4400  0.9301 -2.8480
  127OSM    H4G13604   5.377   0.414   7.063  1.8971 -0.1557  0.5028
  127OSM    C5F13605   5.289   0.514   7.236 -0.0082  0.7503  0.0002
  127OSM    H5F13606   5.249   0.413   7.260 -0.9884  1.2049  0.3125
  127OSM    H5G13607   5.197   0.565   7.202  0.5841  1.4772 -0.5142
  127OSM    C6F13608   5.333   0.589   7.360 -0.0022 -0.6145 -0.3995
  127OSM    H6F13609   5.410   0.666   7.339  0.2530 -0.4841  0.9601
  127OSM    H6G13610   5.393   0.518   7.421  1.3863 -0.0091 -1.0392
  127OSM    C7F13611   5.218   0.640   7.445 -0.1092 -0.1978  0.2908
  127OSM    H7F13612   5.158   0.550   7.471 -0.6091  0.6111  1.9893
  127OSM    H7G13613   5.158   0.709   7.383  0.6679 -1.0089 -1.4022
  127OSM    C8F13614   5.267   0.704   7.588 -0.0250 -0.1555 -0.3017
  127OSM    H8F13615   5.343   0.780   7.560 -0.6607  1.3781  2.0258
  127OSM    H8G13616   5.322   0.626   7.645  1.7314  1.8529  0.8137
  127OSM    C9F13617   5.149   0.751   7.674 -0.1815 -0.0019  0.3900
  127OSM    H9F13618   5.058   0.691   7.657 -0.5370  0.9474 -1.1743
  127OSM   C10F13619   5.136   0.872   7.729 -0.3220  0.3358  0.0741
  127OSM   H10F13620   5.043   0.888   7.787  1.1004 -1.6779  3.0760
  127OSM   C11F13621   5.238   0.980   7.746  0.0664  0.2964 -0.0542
  127OSM   H11F13622   5.206   1.080   7.710 -0.2295  0.1643 -0.1610
  127OSM   H11G13623   5.341   0.961   7.710 -0.0925  0.0875 -0.4011
  127OSM   C12F13624   5.249   0.988   7.904  0.1810  0.0056  0.0928
  127OSM   H12F13625   5.283   0.887   7.937 -2.0330 -0.6080  0.6000
  127OSM   H12G13626   5.151   1.013   7.949 -0.8896  0.8687 -2.6306
  127OSM   C13F13627   5.347   1.097   7.949  0.7095  0.0993  0.4449
  127OSM   H13F13628   5.329   1.185   7.883  0.7360  0.3954  0.8316
  127OSM   H13G13629   5.448   1.064   7.917  1.5629  2.3909  0.6410
  127OSM   C14F13630   5.327   1.142   8.096 -0.3092  0.7820  0.4249
  127OSM   H14F13631   5.221   1.130   8.125 -0.6441  1.9531 -0.2405
  127OSM   H14G13632   5.342   1.252   8.096 -1.0932  0.9059 -0.6994
  127OSM   C15F13633   5.413   1.060   8.196 -0.6683 -0.1461 -0.1951
  127OSM   H15F13634   5.523   1.062   8.178 -0.3932 -0.3409  1.3610
  127OSM   H15G13635   5.381   0.954   8.187 -1.4423  0.1254 -0.7486
  127OSM   C16F13636   5.402   1.114   8.342  0.4836  0.7902  0.4680
  127OSM   H16F13637   5.297   1.105   8.378  0.7894 -0.9435  0.9457
  127OSM   H16G13638   5.424   1.223   8.341  1.1536  0.6506 -0.1751
  127OSM   C17F13639   5.500   1.046   8.439  0.4757 -0.3574 -0.0276
  127OSM   H17F13640   5.469   0.945   8.473 -1.4987  0.2821  0.1220
  127OSM   H17G13641   5.509   1.114   8.527  0.5544  1.5348 -1.4661
  127OSM   C18F13642   5.654   1.029   8.409 -0.6142 -0.3209 -0.2013
  127OSM   H18F13643   5.673   1.007   8.302  2.5357 -1.5304  0.5589
  127OSM   H18G13644   5.702   0.951   8.470 -0.6688 -0.3035 -0.1346
  127OSM   H18H13645   5.701   1.128   8.428 -0.0794 -0.6650  0.2957
  128OSM      N13646   4.325   4.477   6.157  0.2802  0.2046 -0.1266
  128OSM    C1513647   4.437   4.389   6.132 -0.8682 -0.0363  0.1756
  128OSM   H15A13648   4.412   4.328   6.046 -0.0338  0.2946 -0.2992
  128OSM   H15B13649   4.460   4.319   6.211  2.1354  0.7286  0.0446
  128OSM   H15C13650   4.519   4.452   6.102 -1.6179  0.9531  0.1764
  128OSM    C1413651   4.297   4.568   6.040  0.3305 -0.2088 -0.0738
  128OSM   H14A13652   4.381   4.630   6.013 -1.2302  1.6307 -0.9290
  128OSM   H14B13653   4.212   4.631   6.063  0.8060  0.0572  0.9614
  128OSM   H14C13654   4.263   4.500   5.963 -1.0676 -2.3700  2.3632
  128OSM    C1313655   4.194   4.405   6.188  0.2581  0.2918  1.1422
  128OSM   H13A13656   4.161   4.333   6.115 -0.5198  1.7243  0.0527
  128OSM   H13B13657   4.111   4.470   6.212 -0.0168  0.5335 -0.3997
  128OSM   H13C13658   4.207   4.333   6.267 -3.5607  0.4461  2.0139
  128OSM    C1213659   4.357   4.558   6.277 -0.6529 -0.2296  0.1338
  128OSM   H12A13660   4.366   4.492   6.362  1.1483 -0.6347 -0.3572
  128OSM   H12B13661   4.267   4.614   6.298 -0.9619 -0.8747  0.5487
  128OSM    C1113662   4.484   4.660   6.269  0.3812  0.5454 -0.6957
  128OSM   H11A13663   4.565   4.616   6.207  0.5612  0.7661 -0.6168
  128OSM   H11B13664   4.514   4.683   6.373  0.8836  1.4716 -1.0356
  128OSM      P13665   4.473   4.924   6.235  0.1735 -0.0003 -0.2455
  128OSM    O1313666   4.612   4.937   6.186 -0.0525 -1.0147 -0.1094
  128OSM    O1413667   4.373   5.025   6.181 -0.2241 -0.6819 -0.2658
  128OSM    O1113668   4.474   4.920   6.393  0.4208  0.2794 -0.0271
  128OSM    O1213669   4.424   4.775   6.195 -0.2907  0.3629  0.0027
  128OSM    C1S13670   4.351   4.890   6.467 -0.7153  0.7906  0.5944
  128OSM    H1S13671   4.316   4.786   6.454 -2.1918  1.2927  0.5386
  128OSM    H1T13672   4.270   4.960   6.437 -2.7941 -2.3109 -1.2994
  128OSM     NF13673   4.247   4.869   6.684  0.0443 -0.1411 -0.4103
  128OSM    HNF13674   4.177   4.933   6.714  0.9326  0.5335  0.2567
  128OSM    C2S13675   4.366   4.917   6.620  0.6906 -0.2902 -0.9641
  128OSM    H2S13676   4.453   4.850   6.641  2.2969  1.2314 -2.5561
  128OSM    C3S13677   4.400   5.066   6.643  0.8732  0.6592 -0.2538
  128OSM    H3S13678   4.311   5.131   6.629 -0.1847 -0.8165 -0.4650
  128OSM     O313679   4.506   5.121   6.566  0.6924  0.6121 -0.0016
  128OSM    HO313680   4.537   5.049   6.511  2.8167  1.7418 -0.3353
  128OSM    C4S13681   4.443   5.076   6.791  0.4617  0.1671  1.1084
  128OSM    H4S13682   4.357   5.116   6.847 -0.0593 -1.3617  1.4192
  128OSM    C5S13683   4.563   5.066   6.851 -0.2129  0.6117 -0.3212
  128OSM    H5S13684   4.652   5.049   6.789 -0.8375 -0.5146 -0.9135
  128OSM    C6S13685   4.601   5.111   6.989 -0.4640 -0.7631 -1.0403
  128OSM    H6S13686   4.647   5.212   6.986 -0.8932 -0.6017 -2.3465
  128OSM    H6T13687   4.674   5.034   7.022 -0.4629 -1.2148 -2.0962
  128OSM    C7S13688   4.482   5.101   7.086 -0.1202  0.4925 -0.4630
  128OSM    H7S13689   4.411   5.020   7.058 -1.7144  1.8950 -0.4868
  128OSM    H7T13690   4.426   5.194   7.065  1.2558  0.9433 -2.3148
  128OSM    C8S13691   4.534   5.102   7.230  0.5910 -0.5710  0.5399
  128OSM    H8S13692   4.577   5.203   7.242 -0.5978  0.0787 -0.5749
  128OSM    H8T13693   4.602   5.014   7.227 -0.7515 -1.6299  0.5058
  128OSM    C9S13694   4.426   5.071   7.332 -0.1388 -0.7218 -0.2069
  128OSM    H9S13695   4.383   4.975   7.296  0.1823 -0.9760  0.0877
  128OSM    H9T13696   4.351   5.153   7.324  0.0577 -0.4927  0.3083
  128OSM   C10S13697   4.476   5.061   7.468 -0.4216  1.1707 -0.6634
  128OSM   H10S13698   4.507   5.154   7.521  1.7741  0.8889 -1.3978
  128OSM   H10T13699   4.562   4.991   7.474 -0.9194  0.6679  0.8268
  128OSM   C11S13700   4.369   4.988   7.553 -0.1160 -0.2780 -0.0889
  128OSM   H11S13701   4.333   4.899   7.496  1.0856 -1.0247  0.2991
  128OSM   H11T13702   4.281   5.051   7.579 -0.4105 -0.9275  0.5135
  128OSM   C12S13703   4.422   4.951   7.693 -0.4071  0.3125  0.3032
  128OSM   H12S13704   4.524   4.909   7.678 -1.3502 -1.5851 -1.0256
  128OSM   H12T13705   4.359   4.870   7.735 -0.5684  1.3549  2.1134
  128OSM   C13S13706   4.425   5.068   7.783 -0.3409 -0.4706 -0.3103
  128OSM   H13S13707   4.318   5.095   7.800  0.5576  1.3779  2.6307
  128OSM   H13T13708   4.475   5.158   7.741 -0.7103 -0.2884 -0.3651
  128OSM   C14S13709   4.496   5.036   7.919  0.5470  0.4869 -0.9870
  128OSM   H14S13710   4.604   5.065   7.920  0.3840  1.0744  2.1169
  128OSM   H14T13711   4.481   4.928   7.939 -1.9644  1.0641  0.4274
  128OSM   C15S13712   4.440   5.124   8.038 -0.0253 -0.2399 -0.1590
  128OSM   H15S13713   4.334   5.094   8.054 -0.4072  2.4107  2.7692
  128OSM   H15T13714   4.439   5.233   8.016  0.8494 -0.3154 -0.6076
  128OSM   C16S13715   4.517   5.087   8.165  0.3907  0.5285  0.4825
  128OSM   H16S13716   4.627   5.098   8.161  0.3074  1.2406  0.1698
  128OSM   H16T13717   4.499   4.982   8.200  3.3681 -0.0663  0.3250
  128OSM   C17S13718   4.479   5.180   8.277 -0.6392 -0.3981  0.5805
  128OSM   H17S13719   4.369   5.188   8.291 -0.4988  0.1203  1.4466
  128OSM   H17T13720   4.497   5.284   8.242 -0.7840 -1.0465 -1.4514
  128OSM   C18S13721   4.548   5.150   8.409  0.1943  0.6415  0.1965
  128OSM   H18S13722   4.489   5.073   8.464  0.6766 -1.0414 -1.5983
  128OSM   H18T13723   4.540   5.238   8.477  1.7846  0.1099  1.1079
  128OSM   H18U13724   4.653   5.117   8.392 -1.0221 -2.3842 -1.7745
  128OSM    C1F13725   4.226   4.738   6.700  0.2670 -0.0734  0.3046
  128OSM     OF13726   4.301   4.651   6.654 -0.5701  0.2028 -0.2072
  128OSM    C2F13727   4.096   4.700   6.760  0.4458  0.1780  0.1313
  128OSM    H2F13728   4.039   4.642   6.684  0.4071 -0.6873  0.8226
  128OSM    H2G13729   4.040   4.791   6.791  0.0888 -0.3732  1.1116
  128OSM    C3F13730   4.098   4.626   6.899 -0.1754 -0.5494  0.1985
  128OSM    H3F13731   4.149   4.528   6.884 -1.4676 -0.9960 -1.3725
  128OSM    H3G13732   3.994   4.597   6.927 -0.0361 -0.1608  1.1234
  128OSM    C4F13733   4.159   4.706   7.017  0.4203 -0.2717 -0.3844
  128OSM    H4F13734   4.117   4.808   7.002  1.5429  0.4987  1.4839
  128OSM    H4G13735   4.270   4.703   7.016  0.3807 -1.7682 -0.8316
  128OSM    C5F13736   4.125   4.661   7.160 -0.1239  0.0587  0.1299
  128OSM    H5F13737   4.139   4.554   7.184  0.3353 -0.1631 -1.0715
  128OSM    H5G13738   4.018   4.688   7.174  0.2634  0.8685  1.5552
  128OSM    C6F13739   4.191   4.728   7.277 -0.9254 -0.9070 -0.2217
  128OSM    H6F13740   4.175   4.837   7.284 -0.6991 -0.7961 -1.3993
  128OSM    H6G13741   4.299   4.714   7.259 -0.2361  1.5197  1.8501
  128OSM    C7F13742   4.148   4.657   7.414  0.2798  0.6234 -0.2010
  128OSM    H7F13743   4.223   4.711   7.477 -1.3359  2.3866  0.2446
  128OSM    H7G13744   4.173   4.549   7.416 -0.9850  0.3458  1.2689
  128OSM    C8F13745   4.004   4.677   7.471  0.1406 -0.2503  0.6185
  128OSM    H8F13746   4.001   4.622   7.567 -0.0023 -2.2830 -0.5276
  128OSM    H8G13747   3.935   4.631   7.398  1.1128  0.6316 -0.8958
  128OSM    C9F13748   3.979   4.826   7.480 -0.3345  0.0523  0.4749
  128OSM    H9F13749   3.945   4.870   7.385 -1.0398 -1.6722 -0.0985
  128OSM   C10F13750   3.961   4.891   7.597 -1.1972 -0.1854 -0.4280
  128OSM   H10F13751   3.938   4.998   7.587 -0.6704  0.1578  1.8655
  128OSM   C11F13752   3.981   4.841   7.736  0.6045 -0.4636 -0.4439
  128OSM   H11F13753   4.043   4.750   7.743  0.4988 -0.4122  1.5978
  128OSM   H11G13754   3.887   4.813   7.789  0.7019 -2.0708 -1.1147
  128OSM   C12F13755   4.063   4.947   7.817  0.4714  0.1508  0.2653
  128OSM   H12F13756   4.006   5.042   7.825  0.2194  0.1693 -1.5080
  128OSM   H12G13757   4.164   4.958   7.772  0.0762 -2.3302 -1.2870
  128OSM   C13F13758   4.094   4.893   7.961  0.2030  0.0069 -1.2895
  128OSM   H13F13759   4.198   4.917   7.990 -0.0450 -0.7143  0.3124
  128OSM   H13G13760   4.082   4.782   7.966 -0.6739  0.0630 -1.9138
  128OSM   C14F13761   3.992   4.955   8.059 -0.2174  0.4957 -0.3466
  128OSM   H14F13762   3.983   4.899   8.155  1.5935 -2.3866 -1.8050
  128OSM   H14G13763   3.889   4.955   8.016 -1.2603 -1.1080  2.0264
  128OSM   C15F13764   4.036   5.094   8.106  0.5381 -0.2229 -0.1707
  128OSM   H15F13765   4.034   5.159   8.017  0.1098 -1.8159 -1.3525
  128OSM   H15G13766   4.139   5.080   8.145 -0.0059 -0.3370  1.2688
  128OSM   C16F13767   3.960   5.151   8.223  0.2167  0.9149 -0.1973
  128OSM   H16F13768   3.854   5.161   8.188  0.3604 -0.4914 -1.0637
  128OSM   H16G13769   3.997   5.254   8.244  2.0979 -0.4688  3.5853
  128OSM   C17F13770   3.960   5.077   8.358 -0.6827 -0.2640  0.1143
  128OSM   H17F13771   4.061   5.097   8.399 -1.8236 -1.1855  3.5324
  128OSM   H17G13772   3.960   4.966   8.346  1.7271 -0.0800 -2.1760
  128OSM   C18F13773   3.860   5.134   8.470  0.5924  0.0011 -0.5442
  128OSM   H18F13774   3.758   5.155   8.434  0.7566 -0.2685 -1.1777
  128OSM   H18G13775   3.888   5.235   8.507  0.5718 -0.8365  1.8512
  128OSM   H18H13776   3.857   5.068   8.560  2.5164 -1.9751 -1.8770
  129OSM      N13777   2.749   1.450   6.170  0.3223 -0.8009  0.0775
  129OSM    C1513778   2.753   1.502   6.305 -0.4233  0.9389  0.0712
  129OSM   H15A13779   2.780   1.607   6.303  0.8597  0.6331  0.4316
  129OSM   H15B13780   2.834   1.470   6.369 -0.3842 -1.4409 -1.1135
  129OSM   H15C13781   2.661   1.481   6.357 -0.6842 -1.2572 -1.1998
  129OSM    C1413782   2.691   1.318   6.178 -0.2455 -0.5234 -0.0564
  129OSM   H14A13783   2.674   1.278   6.079  0.5095  1.0941 -0.8526
  129OSM   H14B13784   2.608   1.303   6.246  0.9928 -1.9298  1.1930
  129OSM   H14C13785   2.767   1.252   6.217  1.1904  0.7508 -0.6871
  129OSM    C1313786   2.645   1.533   6.085 -0.5775  0.0591  0.3773
  129OSM   H13A13787   2.559   1.537   6.150 -0.7588 -0.2663  0.1592
  129OSM   H13B13788   2.619   1.475   5.997  0.6368 -1.2169  0.8477
  129OSM   H13C13789   2.678   1.631   6.055  0.4520 -0.1761  0.7324
  129OSM    C1213790   2.883   1.439   6.088 -0.2576 -0.1857 -1.3183
  129OSM   H12A13791   2.917   1.539   6.066  0.7830 -0.0887  0.6431
  129OSM   H12B13792   2.863   1.394   5.992 -0.0437 -1.1438 -0.9223
  129OSM    C1113793   3.008   1.373   6.159  0.0158 -0.5370  0.3172
  129OSM   H11A13794   3.034   1.427   6.252  0.0494 -2.1305  1.2516
  129OSM   H11B13795   3.092   1.378   6.087 -0.0131 -0.6985  0.2746
  129OSM      P13796   2.998   1.123   6.105 -0.3042  0.2100 -0.4498
  129OSM    O1313797   2.968   1.160   5.967 -0.0029 -0.1728 -0.4133
  129OSM    O1413798   3.125   1.057   6.135 -0.3653 -0.3777  0.1549
  129OSM    O1113799   2.872   1.035   6.153  0.4602 -0.0662  0.2983
  129OSM    O1213800   2.969   1.242   6.206  0.5035  0.6822  0.2665
  129OSM    C1S13801   2.897   0.902   6.205 -0.0257 -0.3764  0.4799
  129OSM    H1S13802   2.996   0.859   6.181 -1.1941 -2.4145 -0.8106
  129OSM    H1T13803   2.832   0.831   6.149  1.8156 -2.1726  0.5669
  129OSM     NF13804   2.925   0.783   6.431  0.1852 -0.2567  0.1155
  129OSM    HNF13805   2.854   0.731   6.479 -1.5006  2.3067  0.5250
  129OSM    C2S13806   2.872   0.902   6.361  0.5529  0.3321  0.1864
  129OSM    H2S13807   2.930   0.988   6.400 -1.7000  1.3498  1.4031
  129OSM    C3S13808   2.724   0.924   6.389 -0.2829 -0.3379  0.0674
  129OSM    H3S13809   2.684   0.825   6.356  0.1195 -0.8533  1.1152
  129OSM     O313810   2.658   1.023   6.317 -0.6545 -0.4029  0.4583
  129OSM    HO313811   2.721   1.043   6.247 -0.5695 -1.0988  0.3312
  129OSM    C4S13812   2.698   0.951   6.534 -0.1541  0.0366  0.4946
  129OSM    H4S13813   2.620   0.888   6.579 -0.6379 -1.4714 -2.3025
  129OSM    C5S13814   2.752   1.043   6.611 -0.2761 -0.8876  0.8897
  129OSM    H5S13815   2.810   1.119   6.556  0.2461 -1.4241  0.6918
  129OSM    C6S13816   2.706   1.065   6.754 -0.1560  0.4484 -0.7540
  129OSM    H6S13817   2.617   1.007   6.786 -0.9205  1.5395 -0.8695
  129OSM    H6T13818   2.682   1.173   6.766  1.7364  0.8987 -0.7867
  129OSM    C7S13819   2.819   1.028   6.840 -0.3257  0.5260  0.3437
  129OSM    H7S13820   2.835   0.921   6.861  2.8098  0.8605 -0.0574
  129OSM    H7T13821   2.793   1.065   6.941  2.5056  1.9330  0.6168
  129OSM    C8S13822   2.966   1.085   6.793 -0.0585 -0.0707  0.1289
  129OSM    H8S13823   2.954   1.195   6.785 -2.5991 -0.3146  0.3997
  129OSM    H8T13824   2.997   1.052   6.691 -1.3622  0.5140 -0.4709
  129OSM    C9S13825   3.071   1.036   6.892 -0.5124 -0.5995 -0.0299
  129OSM    H9S13826   3.163   1.098   6.883 -1.0576 -0.0659 -2.1256
  129OSM    H9T13827   3.106   0.934   6.866  0.0767 -0.2014 -0.7915
  129OSM   C10S13828   3.027   1.031   7.037  0.0614 -0.6123 -0.3391
  129OSM   H10S13829   2.939   0.965   7.054 -1.3442  1.0859 -0.8678
  129OSM   H10T13830   3.026   1.138   7.067  0.6773 -0.4765 -0.7771
  129OSM   C11S13831   3.129   0.965   7.124 -0.1655  0.5441 -0.5703
  129OSM   H11S13832   3.215   1.034   7.131 -0.9347  1.4867 -0.2336
  129OSM   H11T13833   3.164   0.879   7.063  1.0368  1.9091 -1.8435
  129OSM   C12S13834   3.085   0.949   7.272  0.3706  0.2978  0.5229
  129OSM   H12S13835   3.172   0.917   7.334  0.0254  0.4699  1.0951
  129OSM   H12T13836   3.004   0.872   7.275  0.9701 -0.5242 -2.8818
  129OSM   C13S13837   3.022   1.076   7.346 -0.2051 -0.8423 -0.3258
  129OSM   H13S13838   2.954   1.134   7.279  1.8786 -0.9095 -2.5551
  129OSM   H13T13839   3.101   1.148   7.378  1.1112 -2.1030 -0.7125
  129OSM   C14S13840   2.938   1.038   7.470 -0.9281  0.4860  1.1488
  129OSM   H14S13841   3.002   0.964   7.524 -1.0535  0.0080  0.6480
  129OSM   H14T13842   2.842   0.989   7.443  0.0165 -1.3002  0.9621
  129OSM   C15S13843   2.897   1.166   7.541  0.1326  0.3195  0.1099
  129OSM   H15S13844   2.807   1.214   7.496  1.6830  1.8851 -1.3391
  129OSM   H15T13845   2.974   1.245   7.548  2.3436 -2.0077  3.6184
  129OSM   C16S13846   2.849   1.142   7.687 -0.1610 -0.7569  0.8902
  129OSM   H16S13847   2.929   1.092   7.745  0.7055 -2.0009 -1.3326
  129OSM   H16T13848   2.761   1.075   7.682 -0.4521 -0.1999 -2.0074
  129OSM   C17S13849   2.813   1.276   7.755 -0.3398  0.4873 -0.0547
  129OSM   H17S13850   2.750   1.334   7.684 -0.0878  1.2498  0.3335
  129OSM   H17T13851   2.912   1.325   7.758  0.9085 -1.6426 -3.6826
  129OSM   C18S13852   2.750   1.264   7.893  0.7318  0.1104 -0.1504
  129OSM   H18S13853   2.648   1.222   7.882  1.3378 -1.7921  1.1016
  129OSM   H18T13854   2.727   1.363   7.937 -0.3967  0.2401 -1.0190
  129OSM   H18U13855   2.821   1.217   7.965 -1.4799 -1.6278  0.9691
  129OSM    C1F13856   3.046   0.742   6.440 -0.1883 -0.2862  0.3918
  129OSM     OF13857   3.136   0.805   6.383 -0.2302 -0.5781  0.4582
  129OSM    C2F13858   3.072   0.626   6.535 -0.1665  0.0375 -0.0966
  129OSM    H2F13859   3.181   0.619   6.555 -0.2620  1.7346  1.0938
  129OSM    H2G13860   3.033   0.534   6.486 -1.4242 -0.3707  1.6258
  129OSM    C3F13861   3.009   0.664   6.674 -0.1832  0.0874 -0.5338
  129OSM    H3F13862   2.899   0.681   6.665 -0.0833  0.3220 -1.3373
  129OSM    H3G13863   3.060   0.747   6.727  0.0638  0.1826 -0.9204
  129OSM    C4F13864   3.044   0.545   6.773  0.2033  0.0101  0.2399
  129OSM    H4F13865   3.155   0.542   6.766  0.0979 -0.5025 -1.3781
  129OSM    H4G13866   2.998   0.456   6.726  1.6513 -1.1273  0.9401
  129OSM    C5F13867   2.993   0.558   6.920 -0.0145  0.5781  0.0246
  129OSM    H5F13868   2.885   0.585   6.917 -0.4780 -1.3459 -1.4044
  129OSM    H5G13869   3.058   0.639   6.960  0.1588  0.3668  0.1732
  129OSM    C6F13870   3.001   0.428   6.998  0.2323 -0.3297  0.1407
  129OSM    H6F13871   3.106   0.397   7.018  1.2763  2.2834 -1.1661
  129OSM    H6G13872   2.966   0.334   6.951  2.9595 -1.3981  0.1671
  129OSM    C7F13873   2.919   0.435   7.127  0.1414 -0.0883  0.4926
  129OSM    H7F13874   2.926   0.338   7.181  3.0642 -0.3305 -0.2164
  129OSM    H7G13875   2.812   0.457   7.108  0.3234  0.6613  0.2971
  129OSM    C8F13876   2.963   0.545   7.227  0.4051  0.5831 -0.1897
  129OSM    H8F13877   2.899   0.542   7.318 -2.2740  1.2080 -1.9811
  129OSM    H8G13878   2.923   0.640   7.186 -3.7731 -0.6444  0.8520
  129OSM    C9F13879   3.103   0.562   7.258  1.0802  0.5189 -0.6079
  129OSM    H9F13880   3.165   0.560   7.167  0.9091 -1.0565 -0.6984
  129OSM   C10F13881   3.168   0.548   7.381  0.7746  0.2226 -0.3151
  129OSM   H10F13882   3.275   0.570   7.387  0.7206  1.0001 -1.8331
  129OSM   C11F13883   3.106   0.525   7.519 -0.3979 -0.2051  0.6393
  129OSM   H11F13884   3.175   0.460   7.577  3.5180  2.5294 -0.7479
  129OSM   H11G13885   2.999   0.497   7.519 -0.4169 -0.1928 -0.7105
  129OSM   C12F13886   3.093   0.660   7.597  0.0457  0.1762  0.6539
  129OSM   H12F13887   3.029   0.738   7.550 -1.5820 -1.1855  0.6051
  129OSM   H12G13888   3.195   0.705   7.596  0.7715 -1.4052  1.5239
  129OSM   C13F13889   3.055   0.642   7.745  0.1479 -0.0980 -0.9753
  129OSM   H13F13890   3.128   0.570   7.787 -0.0132 -0.2209 -0.9010
  129OSM   H13G13891   2.960   0.584   7.751  0.3513 -0.2420  1.1528
  129OSM   C14F13892   3.035   0.771   7.822  0.0376 -0.4620  0.7879
  129OSM   H14F13893   2.971   0.836   7.758  0.8462 -1.6705 -1.3096
  129OSM   H14G13894   3.128   0.830   7.836 -0.6944  0.7360  0.7079
  129OSM   C15F13895   2.973   0.754   7.959  0.4559  0.4636 -0.7848
  129OSM   H15F13896   3.023   0.682   8.028 -0.3297  1.0092  0.3831
  129OSM   H15G13897   2.872   0.713   7.937 -0.8131  1.3834  2.9304
  129OSM   C16F13898   2.940   0.881   8.036  0.4904 -0.3970 -0.0993
  129OSM   H16F13899   2.842   0.912   7.994  0.5026 -0.0513  0.1267
  129OSM   H16G13900   3.017   0.959   8.019 -1.2630  1.4402  0.1561
  129OSM   C17F13901   2.928   0.865   8.187 -0.7476  0.5690  0.1262
  129OSM   H17F13902   3.019   0.814   8.222 -0.9181  0.3350  0.2269
  129OSM   H17G13903   2.843   0.796   8.205 -1.9092  1.8013 -0.4650
  129OSM   C18F13904   2.910   1.000   8.266  0.3524 -0.1364 -0.4251
  129OSM   H18F13905   2.992   1.070   8.238  0.1557 -0.2158 -1.2033
  129OSM   H18G13906   2.922   0.981   8.375  2.1716 -0.3414 -0.6398
  129OSM   H18H13907   2.813   1.044   8.237  0.0443 -0.9607 -0.6777
  130OSM      N13908   3.020   3.617   5.848 -0.1615  0.0279  0.2778
  130OSM    C1513909   3.139   3.705   5.864  0.7947  0.7140  0.9240
  130OSM   H15A13910   3.149   3.791   5.798  0.7061  0.7803  0.9973
  130OSM   H15B13911   3.224   3.641   5.844  1.1779  1.3554  0.4534
  130OSM   H15C13912   3.141   3.745   5.964  1.5189 -1.6205  1.8565
  130OSM    C1413913   2.890   3.683   5.827  0.7333  0.7377 -0.0617
  130OSM   H14A13914   2.816   3.610   5.798  0.6427  0.4450  0.8825
  130OSM   H14B13915   2.894   3.762   5.753 -1.0110  1.4921  0.6046
  130OSM   H14C13916   2.862   3.723   5.923 -0.1760 -0.8713  0.3562
  130OSM    C1313917   3.041   3.522   5.734  0.3188  0.4752 -0.4765
  130OSM   H13A13918   2.950   3.468   5.711  0.8936 -0.5023 -0.4511
  130OSM   H13B13919   3.120   3.451   5.752  0.8613  0.8783 -1.2552
  130OSM   H13C13920   3.074   3.575   5.646  0.3520  0.8402 -0.2438
  130OSM    C1213921   3.004   3.534   5.978  0.3487 -0.2720  0.7455
  130OSM   H12A13922   3.092   3.473   5.994  1.1091  0.7752  0.6306
  130OSM   H12B13923   2.925   3.462   5.969 -1.0402  1.1327  1.5617
  130OSM    C1113924   2.989   3.611   6.114 -0.1050  0.3088 -0.2104
  130OSM   H11A13925   2.931   3.549   6.186  2.0074  0.8086  1.9897
  130OSM   H11B13926   2.934   3.707   6.112  0.7893  0.8297 -0.1446
  130OSM      P13927   3.153   3.704   6.305  0.6581  0.1768  0.1969
  130OSM    O1313928   3.162   3.600   6.412  0.2931 -0.1329  0.4300
  130OSM    O1413929   3.270   3.788   6.294 -0.4629  0.8758 -0.1026
  130OSM    O1113930   3.030   3.794   6.349 -0.2025  0.5041  0.3827
  130OSM    O1213931   3.123   3.647   6.164 -0.0910 -0.0942  0.1872
  130OSM    C1S13932   2.914   3.752   6.421 -0.7736 -0.5758  0.2340
  130OSM    H1S13933   2.901   3.645   6.397  0.9586 -0.0092 -3.5623
  130OSM    H1T13934   2.824   3.804   6.380 -0.1508 -0.1969 -0.6679
  130OSM     NF13935   2.826   3.715   6.634 -0.2462  0.0356  0.0986
  130OSM    HNF13936   2.741   3.767   6.639 -1.2498 -1.5950  0.4053
  130OSM    C2S13937   2.943   3.778   6.571  0.5914  0.3704 -0.5793
  130OSM    H2S13938   3.035   3.725   6.605  0.7475  0.6331 -0.5890
  130OSM    C3S13939   2.968   3.931   6.607  0.3762 -0.2909  0.5070
  130OSM    H3S13940   2.891   4.001   6.566  2.2867  1.1639 -0.6943
  130OSM     O313941   3.086   3.989   6.555  0.1633 -0.2533 -0.1963
  130OSM    HO313942   3.115   3.918   6.496  1.2372 -0.5786  0.6995
  130OSM    C4S13943   2.982   3.943   6.757 -0.4008  0.0923  0.1942
  130OSM    H4S13944   3.078   3.907   6.799  0.3666  0.1641 -1.4560
  130OSM    C5S13945   2.898   3.993   6.843  0.1571  0.1781 -0.3707
  130OSM    H5S13946   2.801   4.028   6.805 -0.1457 -0.4965 -0.2236
  130OSM    C6S13947   2.919   3.988   6.994 -0.2735  0.7554 -0.5530
  130OSM    H6S13948   3.009   3.930   7.023 -3.0528 -2.3113  2.2839
  130OSM    H6T13949   2.835   3.929   7.037  1.2062 -0.0158  1.3545
  130OSM    C7S13950   2.940   4.124   7.060 -0.3450 -0.3677 -0.0903
  130OSM    H7S13951   2.867   4.203   7.029 -0.9200 -0.1969  1.6801
  130OSM    H7T13952   3.040   4.150   7.018  1.1370 -1.1155  2.8792
  130OSM    C8S13953   2.957   4.112   7.218  0.2572  0.0291  0.3519
  130OSM    H8S13954   3.034   4.039   7.252 -0.9201 -1.0945  0.6179
  130OSM    H8T13955   2.860   4.089   7.266 -0.0256 -2.2593 -1.2402
  130OSM    C9S13956   2.997   4.244   7.279  0.4104 -0.0963  0.6483
  130OSM    H9S13957   3.103   4.262   7.253 -0.0789  2.8141  0.4972
  130OSM    H9T13958   2.992   4.235   7.389  0.8198 -2.4580  0.4984
  130OSM   C10S13959   2.920   4.373   7.244 -0.0458  0.1874  0.0595
  130OSM   H10S13960   2.897   4.378   7.135  1.5383  3.2785 -0.1803
  130OSM   H10T13961   2.982   4.462   7.268 -0.2267  0.5769 -0.8721
  130OSM   C11S13962   2.781   4.379   7.299  0.8475  0.0068 -0.7298
  130OSM   H11S13963   2.714   4.298   7.264  1.4412 -1.1014  0.6654
  130OSM   H11T13964   2.734   4.476   7.269  0.0865 -0.2621 -0.4266
  130OSM   C12S13965   2.784   4.376   7.454 -0.2313  0.2905  0.4635
  130OSM   H12S13966   2.856   4.454   7.487 -1.2073  1.0754  0.7600
  130OSM   H12T13967   2.822   4.277   7.488  2.2315  1.5406  1.5171
  130OSM   C13S13968   2.651   4.419   7.520 -0.4866 -0.1985 -0.3363
  130OSM   H13S13969   2.573   4.354   7.474  0.2590 -0.9923 -0.4871
  130OSM   H13T13970   2.631   4.526   7.497  0.4903 -0.2929 -1.7271
  130OSM   C14S13971   2.636   4.419   7.675  0.7022  0.3483 -0.5733
  130OSM   H14S13972   2.708   4.485   7.728 -0.0238  1.2062 -0.6541
  130OSM   H14T13973   2.649   4.313   7.703  1.0696  0.5291 -0.0530
  130OSM   C15S13974   2.495   4.464   7.727 -0.4408  0.6402 -0.4037
  130OSM   H15S13975   2.405   4.431   7.671 -0.7947  2.9076 -1.2330
  130OSM   H15T13976   2.504   4.575   7.732 -0.8492  0.6683 -0.2488
  130OSM   C16S13977   2.473   4.411   7.872  0.8420  0.2483 -0.0990
  130OSM   H16S13978   2.544   4.455   7.945 -1.3289 -1.6765  3.3673
  130OSM   H16T13979   2.490   4.302   7.861 -1.0746 -0.0203 -0.6375
  130OSM   C17S13980   2.337   4.442   7.929 -0.7275  0.9464 -0.2078
  130OSM   H17S13981   2.262   4.381   7.874 -0.1467 -0.0142  0.0539
  130OSM   H17T13982   2.320   4.548   7.901 -0.1835  1.2685  0.6807
  130OSM   C18S13983   2.327   4.427   8.079 -0.3735  0.6417 -0.0171
  130OSM   H18S13984   2.354   4.323   8.108  2.4388  1.9812  2.3308
  130OSM   H18T13985   2.226   4.460   8.112 -0.3598  0.9541 -0.2887
  130OSM   H18U13986   2.399   4.490   8.135 -0.6765 -1.0326  2.3625
  130OSM    C1F13987   2.824   3.581   6.658 -0.3734 -1.1609 -0.9413
  130OSM     OF13988   2.911   3.511   6.613  0.1094  0.1265  0.2161
  130OSM    C2F13989   2.707   3.525   6.736  0.0376  0.2991  0.4669
  130OSM    H2F13990   2.634   3.489   6.661  0.5396  0.6398 -0.1893
  130OSM    H2G13991   2.653   3.607   6.789 -2.1870 -0.6219 -0.3414
  130OSM    C3F13992   2.753   3.422   6.836 -0.1247 -0.4915 -0.4424
  130OSM    H3F13993   2.858   3.421   6.874  0.2337 -1.2182 -1.4328
  130OSM    H3G13994   2.768   3.328   6.778  0.6097 -0.3206 -0.5362
  130OSM    C4F13995   2.652   3.405   6.944 -0.6010 -0.2271 -0.4825
  130OSM    H4F13996   2.666   3.304   6.989 -0.4608  0.1871  0.4045
  130OSM    H4G13997   2.550   3.420   6.901  0.6812  2.0106 -2.8790
  130OSM    C5F13998   2.675   3.514   7.053 -0.7098  0.2028  0.4622
  130OSM    H5F13999   2.644   3.614   7.016  0.7386  0.2792 -0.6331
  130OSM    H5G14000   2.786   3.522   7.063 -0.5406  0.0837 -1.1676
  130OSM    C6F14001   2.615   3.474   7.187 -0.3769 -0.0666  0.0008
  130OSM    H6F14002   2.506   3.452   7.186 -0.5066  0.5571  0.3381
  130OSM    H6G14003   2.636   3.562   7.252 -2.3677  0.5491 -0.1533
  130OSM    C7F14004   2.700   3.356   7.245  0.3538  0.3485  0.0346
  130OSM    H7F14005   2.806   3.367   7.215  0.2134  2.2668  0.1597
  130OSM    H7G14006   2.673   3.258   7.200 -0.3359  0.8886 -0.7360
  130OSM    C8F14007   2.697   3.365   7.398  0.3333 -1.1963 -0.6951
  130OSM    H8F14008   2.586   3.364   7.408  0.3476  1.7662 -0.0170
  130OSM    H8G14009   2.738   3.460   7.436 -0.2622  0.1624 -3.3669
  130OSM    C9F14010   2.739   3.235   7.469 -0.0222 -0.2081  0.1079
  130OSM    H9F14011   2.690   3.148   7.423 -1.1240  1.3184 -1.6782
  130OSM   C10F14012   2.839   3.220   7.559  0.8946 -0.5430 -0.1141
  130OSM   H10F14013   2.861   3.117   7.593  1.1026 -0.0774  1.2034
  130OSM   C11F14014   2.932   3.328   7.620  0.2397 -0.2690 -0.4680
  130OSM   H11F14015   2.948   3.417   7.555  1.0349 -1.0411 -1.3416
  130OSM   H11G14016   3.032   3.286   7.642  0.7420  1.1585  0.0506
  130OSM   C12F14017   2.865   3.363   7.757  0.5186  0.2867  0.2187
  130OSM   H12F14018   2.758   3.391   7.747 -0.0649 -2.2769 -1.0372
  130OSM   H12G14019   2.925   3.445   7.804  0.6361  1.2001 -1.4852
  130OSM   C13F14020   2.885   3.251   7.866  0.2030 -0.1530  0.2084
  130OSM   H13F14021   2.986   3.207   7.855  0.6126  1.1822 -1.6219
  130OSM   H13G14022   2.806   3.175   7.845 -0.3538  0.0597  1.4299
  130OSM   C14F14023   2.871   3.303   8.010 -0.2014  0.7429 -0.4601
  130OSM   H14F14024   2.784   3.372   8.018  1.6876  2.9524  1.8592
  130OSM   H14G14025   2.961   3.366   8.026 -1.2364  2.4435 -1.2203
  130OSM   C15F14026   2.854   3.197   8.123 -0.6230 -0.1319 -0.1580
  130OSM   H15F14027   2.957   3.156   8.120 -0.0347  1.3457 -1.6652
  130OSM   H15G14028   2.781   3.126   8.077  0.4129 -2.0332  1.0809
  130OSM   C16F14029   2.817   3.253   8.256 -0.8180 -0.0998 -0.0734
  130OSM   H16F14030   2.718   3.300   8.239 -1.1160 -0.6997 -0.0064
  130OSM   H16G14031   2.884   3.339   8.279 -2.0973  1.0427 -0.5064
  130OSM   C17F14032   2.816   3.151   8.364 -0.2931 -0.3052  0.4826
  130OSM   H17F14033   2.917   3.104   8.368  0.8842  1.9643 -1.2806
  130OSM   H17G14034   2.744   3.068   8.348 -0.7324  0.2483 -0.4465
  130OSM   C18F14035   2.794   3.204   8.511 -0.3994 -0.4405 -0.2176
  130OSM   H18F14036   2.790   3.126   8.589  1.3919 -0.9074 -0.5726
  130OSM   H18G14037   2.700   3.264   8.509  0.1138  0.3793 -0.1159
  130OSM   H18H14038   2.881   3.267   8.539  0.0817 -1.4497  0.5908
  131OSM      N14039   4.366   1.044   6.200  0.0204 -0.8425 -0.4292
  131OSM    C1514040   4.448   0.943   6.274 -0.4445  0.3448 -1.0771
  131OSM   H15A14041   4.517   0.882   6.219 -0.0807  0.2796 -0.5523
  131OSM   H15B14042   4.389   0.873   6.332 -1.9478  0.4146 -2.4857
  131OSM   H15C14043   4.512   0.981   6.352  0.6954 -2.6127 -0.5285
  131OSM    C1414044   4.466   1.130   6.131  0.2874  0.1030 -0.8245
  131OSM   H14A14045   4.554   1.144   6.193 -0.5628 -3.2864  1.2412
  131OSM   H14B14046   4.430   1.226   6.098  0.9405  0.5324 -0.3158
  131OSM   H14C14047   4.497   1.076   6.043  0.2271 -0.5704 -0.4304
  131OSM    C1314048   4.298   0.970   6.090 -0.3073 -0.5771  0.1477
  131OSM   H13A14049   4.214   0.912   6.124  0.9040 -2.9885 -0.9105
  131OSM   H13B14050   4.367   0.900   6.046  1.8813  2.1574 -0.9735
  131OSM   H13C14051   4.275   1.039   6.009  1.9600 -0.1835 -0.1846
  131OSM    C1214052   4.272   1.113   6.294 -0.3066  0.7918  0.6870
  131OSM   H12A14053   4.335   1.154   6.371  1.5450 -1.5109  0.4705
  131OSM   H12B14054   4.211   1.034   6.335 -1.9793  2.0433  0.6254
  131OSM    C1114055   4.174   1.214   6.230 -0.5033  0.1925  0.4276
  131OSM   H11A14056   4.117   1.268   6.308 -1.2450 -1.0478  0.7650
  131OSM   H11B14057   4.109   1.149   6.168 -0.3896 -0.2856  0.8078
  131OSM      P14058   4.306   1.442   6.183 -0.0394  0.2176 -0.0866
  131OSM    O1314059   4.446   1.424   6.156  0.3686 -0.1038  0.0079
  131OSM    O1414060   4.249   1.560   6.122 -0.2365  0.2010 -0.1408
  131OSM    O1114061   4.289   1.450   6.340 -0.1478 -0.0042  0.1981
  131OSM    O1214062   4.234   1.309   6.141 -0.2802 -0.4223 -0.3505
  131OSM    C1S14063   4.355   1.557   6.418 -0.6215 -0.6476 -0.1988
  131OSM    H1S14064   4.312   1.654   6.383  2.4861  0.5728 -0.8462
  131OSM    H1T14065   4.465   1.564   6.402  0.0818 -2.0870  3.6698
  131OSM     NF14066   4.386   1.664   6.633  0.3066 -0.0637  0.1706
  131OSM    HNF14067   4.470   1.642   6.682  0.5504  0.9668  0.2262
  131OSM    C2S14068   4.324   1.548   6.567  0.0343  0.3981  0.1347
  131OSM    H2S14069   4.215   1.565   6.583 -0.2820 -0.9852 -0.4594
  131OSM    C3S14070   4.352   1.416   6.640  0.0364 -0.2427  0.7496
  131OSM    H3S14071   4.460   1.394   6.623  0.1669 -1.8058  3.3017
  131OSM     O314072   4.276   1.316   6.592 -0.2615 -0.5400  0.0636
  131OSM    HO314073   4.233   1.350   6.514  1.1509 -0.8273 -0.8565
  131OSM    C4S14074   4.318   1.433   6.788  0.2625  0.1142  0.4257
  131OSM    H4S14075   4.215   1.468   6.807  0.4123  2.7317 -3.0076
  131OSM    C5S14076   4.407   1.428   6.890  0.2974  0.3422 -0.2065
  131OSM    H5S14077   4.509   1.398   6.863 -0.0961  0.9007 -2.3988
  131OSM    C6S14078   4.377   1.459   7.029  0.5740 -0.5629 -0.1723
  131OSM    H6S14079   4.390   1.365   7.087 -2.6805  0.1940  1.8975
  131OSM    H6T14080   4.276   1.504   7.042  0.7474 -0.1303 -0.3175
  131OSM    C7S14081   4.478   1.565   7.081  0.1269 -0.2016  0.3863
  131OSM    H7S14082   4.524   1.631   7.004 -0.5322 -1.7368 -1.3749
  131OSM    H7T14083   4.558   1.507   7.132  1.6964  0.3070 -1.4468
  131OSM    C8S14084   4.423   1.647   7.200 -0.1492  0.1645 -0.0365
  131OSM    H8S14085   4.324   1.687   7.169 -0.6507  0.2257  1.6091
  131OSM    H8T14086   4.496   1.726   7.225 -0.4634  0.7920 -1.0715
  131OSM    C9S14087   4.397   1.556   7.327 -0.2461  0.2065 -0.2711
  131OSM    H9S14088   4.493   1.532   7.378 -0.4479 -0.7113 -0.3146
  131OSM    H9T14089   4.349   1.460   7.296  1.1249 -0.6797  0.2926
  131OSM   C10S14090   4.319   1.619   7.438 -0.1650 -0.1231  0.1056
  131OSM   H10S14091   4.280   1.537   7.502  1.9493 -1.8206 -0.7430
  131OSM   H10T14092   4.230   1.664   7.389  0.7496 -0.7228 -2.1756
  131OSM   C11S14093   4.390   1.721   7.532 -0.0087 -0.2466  0.1264
  131OSM   H11S14094   4.420   1.812   7.477 -1.5667  0.2791  0.1262
  131OSM   H11T14095   4.486   1.676   7.566  1.0119  2.4797  0.9599
  131OSM   C12S14096   4.319   1.755   7.663  0.3658 -0.5022  0.8041
  131OSM   H12S14097   4.292   1.670   7.728  2.7118 -2.2460 -0.4387
  131OSM   H12T14098   4.228   1.817   7.644 -0.2764 -1.0016  2.1846
  131OSM   C13S14099   4.399   1.851   7.749 -0.4114  0.6234  0.2579
  131OSM   H13S14100   4.414   1.945   7.691 -0.2275 -0.7013 -1.9264
  131OSM   H13T14101   4.501   1.815   7.775  0.4259  3.0110  0.3844
  131OSM   C14S14102   4.344   1.884   7.884 -0.3719  0.5497 -0.2972
  131OSM   H14S14103   4.326   1.798   7.953  2.6173  1.0229  1.1645
  131OSM   H14T14104   4.243   1.927   7.870 -0.2389  0.9167 -0.1231
  131OSM   C15S14105   4.428   1.979   7.961  0.3470 -0.5127 -0.0881
  131OSM   H15S14106   4.445   2.066   7.894  0.6393 -0.4807  0.0240
  131OSM   H15T14107   4.523   1.925   7.982  0.8170  0.0379 -0.7889
  131OSM   C16S14108   4.359   2.023   8.096  0.0007  0.2182  0.0599
  131OSM   H16S14109   4.345   1.944   8.173  1.0690  0.4712  0.5204
  131OSM   H16T14110   4.253   2.049   8.073 -0.3823  0.2474  1.8193
  131OSM   C17S14111   4.418   2.142   8.157  0.2780 -0.0726  0.1299
  131OSM   H17S14112   4.354   2.163   8.246 -2.9235  0.4971 -2.2297
  131OSM   H17T14113   4.423   2.225   8.083 -0.8939 -0.4641 -0.3935
  131OSM   C18S14114   4.563   2.125   8.207  0.4143  0.0343  0.3887
  131OSM   H18S14115   4.572   2.050   8.288 -5.0221  1.0464  2.0873
  131OSM   H18T14116   4.595   2.224   8.249 -0.1208 -0.1835  1.3158
  131OSM   H18U14117   4.627   2.102   8.119  2.2089  1.5349  1.2696
  131OSM    C1F14118   4.351   1.796   6.619 -0.6678 -0.7744  0.5353
  131OSM     OF14119   4.250   1.825   6.557  0.0132 -0.1203 -0.5331
  131OSM    C2F14120   4.452   1.893   6.671  0.3145  0.0672  0.2791
  131OSM    H2F14121   4.523   1.913   6.588  1.3342  0.3103  1.2027
  131OSM    H2G14122   4.516   1.842   6.746  3.3653  0.9135 -1.6538
  131OSM    C3F14123   4.395   2.029   6.723  0.5034  0.2192 -0.5187
  131OSM    H3F14124   4.348   2.083   6.638  0.4037  0.2370 -0.4527
  131OSM    H3G14125   4.484   2.080   6.765  0.3635  0.3268 -0.3516
  131OSM    C4F14126   4.299   2.016   6.836  0.2612 -0.2248  0.4171
  131OSM    H4F14127   4.316   1.925   6.896 -2.5762 -0.4418  0.9664
  131OSM    H4G14128   4.196   2.011   6.795 -0.0256 -2.7260  1.3283
  131OSM    C5F14129   4.285   2.135   6.935 -0.2011  0.2459  0.1982
  131OSM    H5F14130   4.175   2.134   6.953 -0.2325 -0.4038 -0.0261
  131OSM    H5G14131   4.316   2.230   6.886 -1.4780  0.7695  0.3844
  131OSM    C6F14132   4.361   2.120   7.068 -0.2006 -0.1960 -0.0776
  131OSM    H6F14133   4.467   2.110   7.038  0.5525  3.4354  1.1035
  131OSM    H6G14134   4.327   2.028   7.121 -0.0482 -0.1208  0.1551
  131OSM    C7F14135   4.338   2.247   7.156  0.2632 -0.2652  0.1134
  131OSM    H7F14136   4.234   2.237   7.194  0.0655  1.7456  0.1703
  131OSM    H7G14137   4.339   2.335   7.087  0.6493 -0.2317  0.1611
  131OSM    C8F14138   4.447   2.249   7.256 -0.2036 -0.8412  0.0466
  131OSM    H8F14139   4.439   2.335   7.326  0.1619 -0.4427 -0.3989
  131OSM    H8G14140   4.541   2.251   7.196 -0.6526 -0.5469 -0.6599
  131OSM    C9F14141   4.435   2.127   7.336 -0.2351  0.2066  0.1135
  131OSM    H9F14142   4.336   2.080   7.329 -0.0510  0.0838 -2.0044
  131OSM   C10F14143   4.543   2.081   7.403  0.2858 -0.0519  0.0784
  131OSM   H10F14144   4.545   1.983   7.454 -0.3685 -0.8226 -1.3479
  131OSM   C11F14145   4.682   2.140   7.414  0.0104  0.4467 -0.2376
  131OSM   H11F14146   4.700   2.203   7.325 -2.4064 -1.6773 -2.3156
  131OSM   H11G14147   4.762   2.063   7.420  0.5125  0.9610 -0.3426
  131OSM   C12F14148   4.694   2.228   7.533 -0.1865  0.8794 -0.0890
  131OSM   H12F14149   4.681   2.178   7.632  0.6672  0.2730 -0.2847
  131OSM   H12G14150   4.613   2.304   7.526  0.5972  1.6497 -0.8909
  131OSM   C13F14151   4.834   2.300   7.546  0.4345  0.0656 -0.1361
  131OSM   H13F14152   4.868   2.347   7.452 -1.7223  1.1096 -0.4181
  131OSM   H13G14153   4.912   2.221   7.554  1.9572  1.2393 -2.8936
  131OSM   C14F14154   4.844   2.409   7.654  0.2048  0.5055  0.6900
  131OSM   H14F14155   4.761   2.481   7.637  0.1429  1.0081  3.0368
  131OSM   H14G14156   4.938   2.466   7.639  0.4689 -0.2131 -0.4912
  131OSM   C15F14157   4.854   2.353   7.790  0.2999  0.2402 -0.2094
  131OSM   H15F14158   4.907   2.256   7.780  1.1625  0.5663  1.1197
  131OSM   H15G14159   4.749   2.327   7.816  0.2630 -1.0309 -1.5441
  131OSM   C16F14160   4.920   2.443   7.898  0.4650  0.6679 -0.6455
  131OSM   H16F14161   4.873   2.415   7.995  0.5741  1.1639 -0.4474
  131OSM   H16G14162   4.908   2.550   7.873 -2.7889  0.5690  0.2318
  131OSM   C17F14163   5.067   2.414   7.912  1.0313 -0.2863  0.4735
  131OSM   H17F14164   5.115   2.442   7.815 -0.4773  1.5374  0.2160
  131OSM   H17G14165   5.074   2.310   7.951 -1.4510 -0.5524  0.2874
  131OSM   C18F14166   5.128   2.512   8.015 -0.3755 -0.0381 -0.0335
  131OSM   H18F14167   5.229   2.475   8.042 -0.0198  1.0680  0.1666
  131OSM   H18G14168   5.052   2.521   8.095 -0.5999 -2.8788  0.1372
  131OSM   H18H14169   5.142   2.618   7.986  0.5405 -0.4105 -0.9841
  132OSM      N14170   5.370   5.620   5.938  0.4351 -0.3314  0.8791
  132OSM    C1514171   5.517   5.613   5.924 -0.0437 -0.4203 -0.1386
  132OSM   H15A14172   5.542   5.545   5.844 -0.1004 -1.2337  0.5275
  132OSM   H15B14173   5.566   5.592   6.017  0.7599 -1.1063 -0.7131
  132OSM   H15C14174   5.557   5.708   5.893  1.8009 -0.7672  1.1583
  132OSM    C1414175   5.322   5.674   5.810 -0.1162 -0.0200 -0.4093
  132OSM   H14A14176   5.214   5.671   5.806 -0.0866 -0.4451 -0.9602
  132OSM   H14B14177   5.348   5.606   5.730 -0.3464 -1.4422  0.7111
  132OSM   H14C14178   5.356   5.776   5.798  0.0807 -0.2208 -1.6369
  132OSM    C1314179   5.326   5.480   5.949  0.2944  0.0056 -0.5116
  132OSM   H13A14180   5.370   5.409   5.880 -0.7976 -1.1902 -0.0187
  132OSM   H13B14181   5.219   5.466   5.962  0.5942 -0.9216  1.0738
  132OSM   H13C14182   5.361   5.438   6.042  0.4636  2.2156  0.4561
  132OSM    C1214183   5.336   5.698   6.061 -0.5412  0.0988 -0.4750
  132OSM   H12A14184   5.231   5.708   6.082 -0.2094  1.4645  0.5896
  132OSM   H12B14185   5.348   5.801   6.031 -0.8075 -0.0298 -1.0297
  132OSM    C1114186   5.412   5.657   6.187 -0.2194  0.1478  0.3961
  132OSM   H11A14187   5.362   5.715   6.267 -1.1675 -1.5638  1.0571
  132OSM   H11B14188   5.518   5.692   6.187  0.2566 -1.2163  1.1596
  132OSM      P14189   5.508   5.443   6.298  0.0259  0.3671 -0.2068
  132OSM    O1314190   5.460   5.308   6.341  0.5772 -0.1515  0.1495
  132OSM    O1414191   5.624   5.450   6.203 -0.3416 -0.5683 -0.5885
  132OSM    O1114192   5.541   5.532   6.427 -0.2977  0.3900 -0.0983
  132OSM    O1214193   5.397   5.518   6.226  0.1323 -0.1622 -0.5944
  132OSM    C1S14194   5.443   5.531   6.529 -0.4389  0.1773 -0.6228
  132OSM    H1S14195   5.418   5.427   6.558  0.1296 -0.3329 -1.9307
  132OSM    H1T14196   5.350   5.584   6.499 -1.0448 -0.9782 -0.7808
  132OSM     NF14197   5.421   5.582   6.771 -0.0862 -0.2439  0.5594
  132OSM    HNF14198   5.353   5.647   6.803  0.5690  0.0698  1.3390
  132OSM    C2S14199   5.502   5.607   6.652  0.4249 -0.6166  0.1334
  132OSM    H2S14200   5.605   5.566   6.663  0.9182  0.8338  0.9411
  132OSM    C3S14201   5.517   5.759   6.618  0.7710  0.1783  0.5547
  132OSM    H3S14202   5.422   5.817   6.608  0.5806  0.2400  2.5280
  132OSM     O314203   5.588   5.789   6.502 -0.4448 -0.2790  0.6900
  132OSM    HO314204   5.605   5.708   6.453 -1.4843  0.3704 -0.7834
  132OSM    C4S14205   5.591   5.829   6.734 -0.1451 -0.7577  0.7540
  132OSM    H4S14206   5.698   5.804   6.737 -0.3140 -1.4719  0.9276
  132OSM    C5S14207   5.531   5.914   6.826  0.1707  0.1940  0.1564
  132OSM    H5S14208   5.426   5.942   6.808  0.4282 -0.0579 -1.8316
  132OSM    C6S14209   5.611   5.979   6.933  0.5644 -0.4482  0.6080
  132OSM    H6S14210   5.636   6.082   6.898  1.9514 -0.6085  1.0955
  132OSM    H6T14211   5.710   5.931   6.951 -0.1376 -2.5421 -0.9293
  132OSM    C7S14212   5.555   5.986   7.075  0.2664  0.9016  0.3977
  132OSM    H7S14213   5.516   5.886   7.106 -0.5862  1.0392 -0.2174
  132OSM    H7T14214   5.460   6.042   7.063  0.1656  0.5541 -0.4756
  132OSM    C8S14215   5.643   6.055   7.183 -0.5470 -0.1151 -0.1923
  132OSM    H8S14216   5.673   6.159   7.155  0.3593 -0.2670  0.1899
  132OSM    H8T14217   5.741   6.004   7.171 -0.1494  0.5617  0.0835
  132OSM    C9S14218   5.601   6.047   7.327  0.5528 -0.4062  0.3672
  132OSM    H9S14219   5.677   6.088   7.397 -0.1154  1.7217 -0.1147
  132OSM    H9T14220   5.585   5.940   7.351  0.7732 -0.5017  0.1032
  132OSM   C10S14221   5.474   6.129   7.358 -0.1774  0.2484 -0.1138
  132OSM   H10S14222   5.402   6.091   7.282  2.2537 -1.0466 -1.8544
  132OSM   H10T14223   5.492   6.236   7.339  0.3536  0.1489 -0.1894
  132OSM   C11S14224   5.423   6.109   7.504 -0.3317  0.0446  0.5941
  132OSM   H11S14225   5.386   6.005   7.498 -0.0258  0.0390 -2.4493
  132OSM   H11T14226   5.329   6.166   7.516  0.4098  1.5239 -0.3371
  132OSM   C12S14227   5.525   6.140   7.611 -0.2128 -0.2286 -0.4948
  132OSM   H12S14228   5.551   6.248   7.609 -0.9427 -0.0526 -0.6152
  132OSM   H12T14229   5.621   6.087   7.589  0.5885  1.3866 -0.9759
  132OSM   C13S14230   5.479   6.103   7.748  0.5136  0.5453 -0.2647
  132OSM   H13S14231   5.454   5.997   7.729  1.9753  0.1827 -0.2767
  132OSM   H13T14232   5.385   6.152   7.780 -0.3030 -2.0320  1.4217
  132OSM   C14S14233   5.587   6.096   7.853  0.9526 -0.7018  0.3199
  132OSM   H14S14234   5.607   6.191   7.908 -2.3712 -0.8431  1.8819
  132OSM   H14T14235   5.669   6.045   7.797  0.9405 -0.9460  0.5246
  132OSM   C15S14236   5.537   5.998   7.969  0.3928 -0.5325 -0.2478
  132OSM   H15S14237   5.617   5.963   8.039 -0.0501  0.2697  0.6675
  132OSM   H15T14238   5.493   5.902   7.935  0.0810 -0.3391 -0.3882
  132OSM   C16S14239   5.430   6.070   8.064 -0.5403  0.5413 -0.5734
  132OSM   H16S14240   5.330   6.075   8.015 -2.2069 -1.7915  2.3843
  132OSM   H16T14241   5.471   6.169   8.093 -1.7432  0.9647 -0.2810
  132OSM   C17S14242   5.414   6.008   8.206 -0.1871 -0.2376 -0.3374
  132OSM   H17S14243   5.493   5.933   8.225  1.5941  2.0003  1.3571
  132OSM   H17T14244   5.317   5.953   8.213  0.6881 -1.9311 -1.1666
  132OSM   C18S14245   5.439   6.106   8.323 -0.5366  0.0621  0.7761
  132OSM   H18S14246   5.378   6.074   8.410  1.9008 -2.0579  1.7965
  132OSM   H18T14247   5.416   6.211   8.295 -0.5046 -0.1583 -0.1026
  132OSM   H18U14248   5.547   6.103   8.348  0.3031 -0.6340 -2.5953
  132OSM    C1F14249   5.427   5.468   6.838 -0.0478  0.0041 -0.1113
  132OSM     OF14250   5.485   5.369   6.791 -0.3024 -0.2702 -0.4983
  132OSM    C2F14251   5.341   5.456   6.961  0.1703  0.0278  0.3533
  132OSM    H2F14252   5.322   5.347   6.973  0.9363 -0.2539 -0.8910
  132OSM    H2G14253   5.239   5.497   6.941 -0.6555 -2.1146  0.0500
  132OSM    C3F14254   5.420   5.518   7.085  0.0749  0.4423 -0.0454
  132OSM    H3F14255   5.440   5.627   7.071 -1.0025  0.6169 -0.3008
  132OSM    H3G14256   5.515   5.463   7.096 -1.3849 -2.0009  0.7439
  132OSM    C4F14257   5.342   5.484   7.205 -0.8488  0.6764 -0.1733
  132OSM    H4F14258   5.326   5.376   7.227 -0.4097  0.8469  1.0210
  132OSM    H4G14259   5.236   5.520   7.202 -1.4879 -1.0411  1.0512
  132OSM    C5F14260   5.400   5.546   7.330  0.3347  0.7334 -0.7953
  132OSM    H5F14261   5.379   5.655   7.319  0.8300  1.0549  1.1752
  132OSM    H5G14262   5.508   5.521   7.338  0.0586 -0.2018  0.0219
  132OSM    C6F14263   5.338   5.507   7.467  0.2519 -0.3002 -0.6696
  132OSM    H6F14264   5.340   5.396   7.472 -0.8423 -0.2692  1.0503
  132OSM    H6G14265   5.231   5.539   7.463  0.6410  0.7646 -2.6821
  132OSM    C7F14266   5.405   5.567   7.596 -0.3149 -0.2883 -0.1568
  132OSM    H7F14267   5.510   5.531   7.599  0.1869  0.9535 -1.7974
  132OSM    H7G14268   5.360   5.511   7.681  0.7805  0.4169  0.9218
  132OSM    C8F14269   5.398   5.720   7.617 -0.1154 -0.0019 -0.4862
  132OSM    H8F14270   5.452   5.771   7.535 -1.5679  0.2286 -1.3329
  132OSM    H8G14271   5.461   5.747   7.704 -0.2236  1.4182 -0.8368
  132OSM    C9F14272   5.253   5.769   7.628  0.7565  0.0060 -0.5286
  132OSM    H9F14273   5.211   5.814   7.537 -2.4583 -2.9825 -0.6342
  132OSM   C10F14274   5.167   5.743   7.736  0.6494 -0.1789 -0.0347
  132OSM   H10F14275   5.063   5.777   7.724  1.7111  2.2948 -2.7957
  132OSM   C11F14276   5.214   5.663   7.856  0.0917 -0.9106 -0.0126
  132OSM   H11F14277   5.322   5.638   7.849 -0.1935 -2.1451  0.0003
  132OSM   H11G14278   5.154   5.570   7.851 -2.4888  0.6977 -0.2463
  132OSM   C12F14279   5.207   5.718   8.002  0.1357 -0.0551  0.1811
  132OSM   H12F14280   5.104   5.757   8.015  1.1447  2.5026  0.7554
  132OSM   H12G14281   5.282   5.799   8.016 -1.1163  1.0168  0.7738
  132OSM   C13F14282   5.230   5.617   8.105 -0.1039  1.2792 -0.2920
  132OSM   H13F14283   5.302   5.539   8.074 -0.2857  1.1907 -0.4876
  132OSM   H13G14284   5.136   5.571   8.142 -0.1126  2.3411  1.0787
  132OSM   C14F14285   5.262   5.690   8.237  0.3752  0.1853  0.5868
  132OSM   H14F14286   5.181   5.764   8.257 -0.4069 -0.1987 -1.0707
  132OSM   H14G14287   5.357   5.746   8.228  0.7906 -0.5798  0.1933
  132OSM   C15F14288   5.271   5.606   8.360 -0.2524 -0.4647 -0.0495
  132OSM   H15F14289   5.165   5.577   8.375 -0.2421 -1.1795 -1.3105
  132OSM   H15G14290   5.307   5.675   8.440  0.3693 -0.7973 -0.0415
  132OSM   C16F14291   5.370   5.490   8.349  0.1210 -0.2657  0.0373
  132OSM   H16F14292   5.459   5.538   8.302  0.3186 -0.3503  0.3233
  132OSM   H16G14293   5.326   5.401   8.300  0.0260 -1.8050  2.8328
  132OSM   C17F14294   5.424   5.428   8.486  0.4358  0.6494 -0.4976
  132OSM   H17F14295   5.485   5.337   8.468 -1.4935 -1.0763  1.2599
  132OSM   H17G14296   5.329   5.404   8.540 -0.2027  2.3319 -0.8520
  132OSM   C18F14297   5.519   5.517   8.573  0.3166 -0.0336 -0.0065
  132OSM   H18F14298   5.452   5.590   8.623  0.9965  0.8917 -0.4339
  132OSM   H18G14299   5.599   5.560   8.509  1.1770 -2.2309 -0.4510
  132OSM   H18H14300   5.575   5.461   8.652  2.2823  2.1387  0.1932
  133SAPE     N14301   0.955   3.581  10.884  0.3548 -0.3761 -0.1476
  133SAPE   HN114302   0.888   3.639  10.829  0.1324  0.9283  1.4511
  133SAPE   HN214303   1.038   3.560  10.826 -0.6205 -2.8164 -0.7075
  133SAPE   HN314304   0.920   3.487  10.913 -0.1067 -0.7146 -1.7796
  133SAPE   C1214305   0.990   3.666  11.003 -0.0766  0.7490  0.6949
  133SAPE  H12A14306   1.038   3.606  11.083  0.5051  2.0211  1.3128
  133SAPE  H12B14307   0.889   3.698  11.036 -0.4934 -0.4971  0.6518
  133SAPE   C1114308   1.084   3.788  10.967  0.0815 -0.1846  1.0743
  133SAPE  H11A14309   1.189   3.756  10.950 -0.1797 -0.7693  0.5261
  133SAPE  H11B14310   1.088   3.853  11.057 -2.3046 -0.5499  1.4928
  133SAPE     P14311   0.953   3.994  10.868 -0.1568  0.0505 -0.1263
  133SAPE   O1314312   0.813   3.951  10.891  0.3258  0.4060 -0.5111
  133SAPE   O1414313   1.021   4.105  10.947 -0.0902 -0.0719  0.4173
  133SAPE   O1214314   1.044   3.873  10.860 -0.5308  0.3483 -0.0457
  133SAPE   O1114315   0.959   4.033  10.716  0.0092 -0.6927  0.2339
  133SAPE    C114316   1.090   4.055  10.654 -0.3064  1.0399 -0.0677
  133SAPE    HA14317   1.099   4.162  10.625 -0.1826  1.0385 -0.0331
  133SAPE    HB14318   1.172   4.013  10.716  2.1799  1.3263 -3.0485
  133SAPE    C214319   1.091   3.973  10.515  0.3869 -0.3771 -0.0770
  133SAPE    HS14320   1.192   3.970  10.469 -1.0425 -1.1205 -3.2873
  133SAPE   O2114321   0.992   4.024  10.419 -0.4841 -0.4769 -0.2996
  133SAPE   C2114322   1.047   4.145  10.377 -0.0747  0.0960 -0.0679
  133SAPE   O2214323   1.160   4.185  10.398 -0.6974 -0.5411  0.2620
  133SAPE   C2214324   0.945   4.219  10.294 -0.0774 -0.0521 -0.4186
  133SAPE   H2R14325   0.845   4.171  10.291  0.0258 -0.1909 -2.3013
  133SAPE   H2S14326   0.924   4.316  10.344 -0.7624 -0.7215  0.6240
  133SAPE    C314327   1.050   3.825  10.548 -0.1794  0.0153 -0.0941
  133SAPE    HX14328   0.945   3.835  10.581  0.3075 -0.6140  1.7392
  133SAPE    HY14329   1.106   3.781  10.634  1.7877 -2.6783 -2.6590
  133SAPE   O3114330   1.049   3.740  10.435 -0.0020  0.0259  0.3504
  133SAPE   C3114331   1.163   3.714  10.376  0.1719 -0.0030  0.2253
  133SAPE   O3214332   1.270   3.746  10.421  0.3037 -0.1443 -0.0432
  133SAPE   C3214333   1.137   3.638  10.246 -0.4407  0.1075  0.6903
  133SAPE   H2X14334   1.028   3.631  10.224  0.1446  0.9165 -2.7577
  133SAPE   H2Y14335   1.185   3.538  10.241 -0.5716  0.1177 -1.5374
  133SAPE   C2314336   0.984   4.232  10.149  0.3040  0.3136  0.4393
  133SAPE   H3R14337   1.038   4.146  10.104 -0.5028 -0.2632  0.5755
  133SAPE   H3S14338   1.042   4.325  10.126  0.9180 -0.5626 -1.7113
  133SAPE   C2414339   0.867   4.247  10.056  0.2826  0.3897  0.3355
  133SAPE   H4R14340   0.793   4.166  10.075  1.1005 -0.5368 -0.3732
  133SAPE   H4S14341   0.898   4.243   9.949 -1.7049 -0.7462 -0.2263
  133SAPE   C2514342   0.795   4.381  10.071 -0.4814 -0.3630  0.2357
  133SAPE   H5R14343   0.834   4.441  10.154 -1.1795  1.4982 -0.7562
  133SAPE   C2614344   0.715   4.449   9.992 -0.7060  0.6163  0.6701
  133SAPE   H6R14345   0.679   4.542  10.039  2.1809  1.5790  1.0771
  133SAPE   C2714346   0.662   4.408   9.859 -0.0457  0.5292 -0.0410
  133SAPE   H7R14347   0.745   4.431   9.788 -0.0887 -1.0415 -0.6205
  133SAPE   H7S14348   0.583   4.479   9.827 -0.7166  0.0246  0.4749
  133SAPE   C2814349   0.609   4.264   9.841 -0.0727  0.3968 -0.4199
  133SAPE   H8R14350   0.543   4.239   9.925  1.9979 -0.6978  0.9149
  133SAPE   C2914351   0.625   4.170   9.745  0.0637 -0.2560  0.5733
  133SAPE   H9R14352   0.586   4.068   9.749  2.2966 -1.1766 -0.0462
  133SAPE  C21014353   0.725   4.192   9.634  0.1177 -0.0320 -0.0910
  133SAPE  H10R14354   0.798   4.272   9.659  0.2990 -0.0600 -0.5342
  133SAPE  H10S14355   0.666   4.234   9.550  0.2052  2.0479  0.8636
  133SAPE  C21114356   0.810   4.073   9.589 -0.0916  0.4464 -1.2404
  133SAPE  H11R14357   0.886   4.047   9.664  1.0290 -0.8440 -2.7958
  133SAPE  C21214358   0.816   4.013   9.468  0.1007  0.4305 -0.0486
  133SAPE  H12R14359   0.899   3.942   9.455 -2.8966 -2.8799 -2.2231
  133SAPE  C21314360   0.731   4.040   9.346 -0.4865 -0.1695 -0.0682
  133SAPE  H13R14361   0.638   4.095   9.373  0.9671  2.5920 -0.5935
  133SAPE  H13S14362   0.705   3.946   9.291 -0.2651  0.8091 -1.8834
  133SAPE  C21414363   0.802   4.140   9.254  0.5415  0.6461  0.2040
  133SAPE  H14R14364   0.873   4.211   9.298  0.4558 -0.1875  1.7613
  133SAPE  C21514365   0.795   4.139   9.119 -1.1136 -0.5308  0.7526
  133SAPE  H15R14366   0.851   4.214   9.062 -0.2381 -0.7331  1.3395
  133SAPE  C21614367   0.704   4.044   9.045 -0.2140  0.0013  0.1442
  133SAPE  H16R14368   0.602   4.045   9.088 -0.5036  1.6172 -0.5530
  133SAPE  H16S14369   0.746   3.941   9.042  0.5645  0.2378  1.8283
  133SAPE  C21714370   0.680   4.077   8.894  0.8019  0.7888  0.7461
  133SAPE  H17R14371   0.785   4.095   8.859 -0.3251  1.8630 -2.2904
  133SAPE  H17S14372   0.627   4.172   8.872 -0.0621 -0.2256 -1.7414
  133SAPE  C21814373   0.615   3.958   8.827 -0.2877  0.9357 -0.2144
  133SAPE  H18R14374   0.513   3.939   8.865  0.6899 -0.1783  1.8949
  133SAPE  H18S14375   0.663   3.860   8.846  0.2212  1.1827 -0.2271
  133SAPE  C21914376   0.620   3.964   8.671  0.5080 -0.2125 -0.0902
  133SAPE  H19R14377   0.722   3.944   8.632  0.0379 -0.2611 -1.3084
  133SAPE  H19S14378   0.600   4.067   8.634  3.1009  0.2481 -0.3043
  133SAPE  C22014379   0.523   3.856   8.613  0.1179  0.2687  0.9283
  133SAPE  H20R14380   0.561   3.756   8.645  0.8152 -0.1919 -1.2549
  133SAPE  H20S14381   0.522   3.861   8.502  2.1575  0.7736  0.9292
  133SAPE  H20T14382   0.417   3.865   8.647  0.8295 -1.9089  3.9841
  133SAPE   C3314383   1.185   3.720  10.130 -0.5655  0.5847  0.2955
  133SAPE   H3X14384   1.287   3.754  10.156 -0.0257 -0.5436 -0.2790
  133SAPE   H3Y14385   1.123   3.810  10.109  0.5098  1.5716  1.3135
  133SAPE   C3414386   1.194   3.632  10.005 -0.3258  0.7798 -0.1356
  133SAPE   H4X14387   1.103   3.568  10.007 -0.5875  1.1828  1.3279
  133SAPE   H4Y14388   1.280   3.562  10.002  1.0612  2.5043 -1.9429
  133SAPE   C3514389   1.198   3.717   9.877 -0.4682 -0.5357  0.1831
  133SAPE   H5X14390   1.299   3.759   9.863 -0.6999  0.8072  2.2655
  133SAPE   H5Y14391   1.128   3.801   9.894 -1.7035 -1.6243  0.6326
  133SAPE   C3614392   1.166   3.640   9.747  0.2677 -0.1012 -0.2002
  133SAPE   H6X14393   1.067   3.592   9.757  0.6332 -0.7679  0.2683
  133SAPE   H6Y14394   1.237   3.558   9.724 -0.1071 -0.6219  0.4942
  133SAPE   C3714395   1.169   3.744   9.636 -0.1544  0.5603  0.0534
  133SAPE   H7X14396   1.267   3.795   9.639 -0.5301  1.3165 -0.3547
  133SAPE   H7Y14397   1.089   3.820   9.626  2.3168  3.1774 -0.1181
  133SAPE   C3814398   1.179   3.672   9.497  1.0191 -0.2386  0.7838
  133SAPE   H8X14399   1.090   3.605   9.502 -1.0055  2.2878 -0.5803
  133SAPE   H8Y14400   1.271   3.609   9.502 -0.6452 -2.6955  1.6986
  133SAPE   C3914401   1.167   3.757   9.370 -0.1352  0.0392 -0.5279
  133SAPE   H9X14402   1.260   3.818   9.371 -0.8432  1.1363 -0.1645
  133SAPE   H9Y14403   1.079   3.824   9.379 -0.6229 -0.6863  0.2503
  133SAPE  C31014404   1.162   3.678   9.243 -0.7682 -0.2347  0.0308
  133SAPE  H10X14405   1.088   3.595   9.251 -1.0620  0.1841  1.8700
  133SAPE  H10Y14406   1.263   3.633   9.228  0.5707  2.3130  1.0374
  133SAPE  C31114407   1.114   3.770   9.129  0.0184 -0.6065 -0.4336
  133SAPE  H11X14408   1.176   3.862   9.135  1.1153 -1.3760  0.3181
  133SAPE  H11Y14409   1.017   3.818   9.154  0.0685 -0.3018 -0.8369
  133SAPE  C31214410   1.149   3.712   8.992 -0.0548 -0.0343 -0.4083
  133SAPE  H12X14411   1.097   3.615   8.978 -0.4273 -0.0327  0.9035
  133SAPE  H12Y14412   1.258   3.690   8.990 -0.0913 -0.4703  1.5002
  133SAPE  C31314413   1.104   3.806   8.875 -0.5931 -0.2051  0.1724
  133SAPE  H13X14414   1.163   3.899   8.893 -1.8579  0.4194  1.1748
  133SAPE  H13Y14415   0.997   3.834   8.885 -1.3060 -2.4449 -0.9120
  133SAPE  C31414416   1.138   3.758   8.735 -0.4636 -0.0258 -1.1198
  133SAPE  H14X14417   1.100   3.832   8.661 -0.7467  1.5027  0.5144
  133SAPE  H14Y14418   1.083   3.661   8.724  0.5952 -0.9683  1.6090
  133SAPE  C31514419   1.275   3.735   8.703 -0.5809 -0.4962  0.2611
  133SAPE  H15X14420   1.297   3.642   8.760  0.1920 -0.1428  0.5469
  133SAPE  H15Y14421   1.341   3.812   8.747 -1.2499  0.0149  0.3681
  133SAPE  C31614422   1.292   3.704   8.554 -0.2222 -0.3591 -0.5558
  133SAPE  H16X14423   1.268   3.791   8.489 -2.2130 -0.6116 -0.2103
  133SAPE  H16Y14424   1.213   3.632   8.523  0.7360 -0.7901 -2.0629
  133SAPE  C31714425   1.425   3.643   8.516 -0.3866  0.2880 -0.0044
  133SAPE  H17X14426   1.416   3.534   8.535 -1.2475  0.4670  0.6838
  133SAPE  H17Y14427   1.502   3.694   8.579  0.5524 -0.8355 -0.2273
  133SAPE  C31814428   1.464   3.657   8.366 -0.3997  0.5681 -0.0446
  133SAPE  H18X14429   1.507   3.756   8.339  0.6162 -0.5554 -2.6831
  133SAPE  H18Y14430   1.380   3.633   8.296 -0.5797  1.2714 -0.0768
  133SAPE  H18Z14431   1.551   3.590   8.352 -1.0562 -0.4308  0.6331
  134SAPE     N14432   3.505   3.680  11.060  0.5049 -0.0065 -0.1563
  134SAPE   HN114433   3.475   3.592  11.107 -0.5227  0.4463  0.0544
  134SAPE   HN214434   3.527   3.649  10.964  0.1131 -0.3545 -0.1361
  134SAPE   HN314435   3.597   3.710  11.098 -0.3608  2.1464  0.3202
  134SAPE   C1214436   3.406   3.802  11.051 -0.1738  0.8263 -0.1861
  134SAPE  H12A14437   3.390   3.847  11.151 -1.4409  0.6701 -0.2991
  134SAPE  H12B14438   3.310   3.763  11.009  0.1671 -2.7674  2.1956
  134SAPE   C1114439   3.456   3.910  10.955  0.5598 -0.2101  0.0486
  134SAPE  H11A14440   3.381   3.991  10.945  1.3408  0.3337 -1.6714
  134SAPE  H11B14441   3.437   3.857  10.859 -1.2140  0.0883  0.2250
  134SAPE     P14442   3.661   4.051  10.883 -0.4976 -0.1218 -0.0696
  134SAPE   O1314443   3.593   4.182  10.879 -0.1709 -0.0165  0.1493
  134SAPE   O1414444   3.800   4.053  10.925  0.3134 -0.3355  0.1222
  134SAPE   O1214445   3.591   3.951  10.981  0.1308  0.6182 -0.3284
  134SAPE   O1114446   3.655   3.976  10.750 -0.3031  0.5194  0.5513
  134SAPE    C114447   3.751   3.874  10.716  0.2315 -0.5674  0.2892
  134SAPE    HA14448   3.835   3.855  10.786 -0.6056  1.8379  2.0000
  134SAPE    HB14449   3.707   3.772  10.709 -0.6838 -0.0801 -1.5446
  134SAPE    C214450   3.811   3.905  10.574  0.5388 -0.5708 -0.3456
  134SAPE    HS14451   3.845   4.009  10.588 -2.0228  0.3822 -0.9207
  134SAPE   O2114452   3.705   3.884  10.483  0.5089  0.2306 -0.0684
  134SAPE   C2114453   3.675   3.985  10.403 -0.8568  0.2155 -0.1087
  134SAPE   O2214454   3.739   4.094  10.401  0.2181 -0.4993 -0.4916
  134SAPE   C2214455   3.569   3.948  10.293  0.4909 -0.0520 -0.0044
  134SAPE   H2R14456   3.469   3.928  10.337  0.9255 -4.4460 -0.8527
  134SAPE   H2S14457   3.582   4.031  10.221  0.5502  1.0867  1.2973
  134SAPE    C314458   3.925   3.803  10.536 -0.3575 -0.2424  0.4348
  134SAPE    HX14459   3.885   3.700  10.547 -2.9062  0.8843  2.0983
  134SAPE    HY14460   3.991   3.811  10.625  0.5296  0.0449 -0.2355
  134SAPE   O3114461   3.995   3.827  10.412  0.3823 -0.5212 -0.4030
  134SAPE   C3114462   4.101   3.902  10.437  0.2833 -1.3392  0.0551
  134SAPE   O3214463   4.123   3.966  10.544 -0.4135 -0.1744  0.6906
  134SAPE   C3214464   4.188   3.918  10.308  0.0452  0.4978 -0.5087
  134SAPE   H2X14465   4.291   3.890  10.341 -1.3330 -2.6548  1.3316
  134SAPE   H2Y14466   4.187   4.028  10.295 -0.4584  0.7601  1.6189
  134SAPE   C2314467   3.616   3.812  10.230  0.5233 -0.6485  0.3489
  134SAPE   H3R14468   3.541   3.767  10.161  1.1580 -2.2097  0.6536
  134SAPE   H3S14469   3.606   3.744  10.317  1.4383  0.6042  1.4556
  134SAPE   C2414470   3.757   3.805  10.175 -0.1385  0.2811 -0.5765
  134SAPE   H4R14471   3.829   3.825  10.257 -0.5104 -3.3891  0.7205
  134SAPE   H4S14472   3.762   3.889  10.102 -0.5093 -0.8969 -1.9964
  134SAPE   C2514473   3.801   3.672  10.113  0.1078  0.5140 -0.4937
  134SAPE   H5R14474   3.804   3.595  10.191  0.7385  2.1442  1.1329
  134SAPE   C2614475   3.809   3.633   9.986  0.1448  0.7978  0.3774
  134SAPE   H6R14476   3.849   3.533   9.964 -1.5663  0.4603 -1.3474
  134SAPE   C2714477   3.793   3.727   9.869 -0.7401 -0.7001  0.3397
  134SAPE   H7R14478   3.880   3.708   9.802  0.2540  0.3610  1.3208
  134SAPE   H7S14479   3.811   3.831   9.903 -1.3936 -0.4114 -0.1755
  134SAPE   C2814480   3.662   3.718   9.805 -0.4077  0.2288  0.0586
  134SAPE   H8R14481   3.573   3.734   9.867 -1.8397  1.1224 -2.1825
  134SAPE   C2914482   3.643   3.680   9.677  0.8018 -0.0654 -0.0931
  134SAPE   H9R14483   3.540   3.681   9.640 -0.0160 -0.1979  2.1346
  134SAPE  C21014484   3.749   3.642   9.573  0.1091 -0.5042  0.0055
  134SAPE  H10R14485   3.704   3.590   9.485  1.8327 -1.1559 -0.5271
  134SAPE  H10S14486   3.814   3.565   9.620 -1.7672 -2.3955 -0.4311
  134SAPE  C21114487   3.839   3.764   9.532 -0.6132 -0.5551 -0.5142
  134SAPE  H11R14488   3.885   3.823   9.612 -0.9454 -0.3869 -0.4438
  134SAPE  C21214489   3.873   3.804   9.408  0.3125 -0.3581  0.6068
  134SAPE  H12R14490   3.932   3.897   9.405 -0.9754  0.4150 -1.5325
  134SAPE  C21314491   3.824   3.750   9.274 -0.6505 -0.6830 -0.0014
  134SAPE  H13R14492   3.785   3.647   9.284 -2.4247 -0.0499 -0.0531
  134SAPE  H13S14493   3.906   3.738   9.200  0.5612  2.1963  0.7778
  134SAPE  C21414494   3.706   3.831   9.218  0.0438 -0.0578  0.4622
  134SAPE  H14R14495   3.638   3.854   9.300  0.2428  0.9826  0.3421
  134SAPE  C21514496   3.692   3.881   9.094 -0.0231 -0.3400  0.1401
  134SAPE  H15R14497   3.598   3.929   9.064 -0.0847 -0.0288  0.8259
  134SAPE  C21614498   3.793   3.860   8.981 -0.2799  0.1503  0.7560
  134SAPE  H16R14499   3.886   3.812   9.019 -0.5303 -1.7982 -1.0135
  134SAPE  H16S14500   3.827   3.958   8.943 -1.7069  0.2717 -0.2373
  134SAPE  C21714501   3.732   3.782   8.866 -0.1133 -0.0749 -0.0323
  134SAPE  H17R14502   3.812   3.768   8.790  0.4987 -1.3072  0.8304
  134SAPE  H17S14503   3.656   3.845   8.815 -0.6156  0.5734  1.4989
  134SAPE  C21814504   3.680   3.642   8.901  0.1405  0.3213  0.1128
  134SAPE  H18R14505   3.601   3.643   8.979 -0.0087 -0.7686 -0.0193
  134SAPE  H18S14506   3.772   3.596   8.943 -1.0326 -2.0715  0.1396
  134SAPE  C21914507   3.635   3.559   8.782  0.2162  0.5878  0.7124
  134SAPE  H19R14508   3.716   3.549   8.707 -0.9503  2.0415 -0.7905
  134SAPE  H19S14509   3.550   3.606   8.729 -0.0896 -1.1077 -0.3550
  134SAPE  C22014510   3.585   3.421   8.820 -0.2506  0.3866 -0.2603
  134SAPE  H20R14511   3.491   3.428   8.878 -0.6474  1.0920 -0.9757
  134SAPE  H20S14512   3.662   3.365   8.878  0.8271 -0.5727 -2.5398
  134SAPE  H20T14513   3.585   3.370   8.722  0.5405  0.4653 -0.3092
  134SAPE   C3314514   4.136   3.838  10.187  0.1979  0.2545  0.6081
  134SAPE   H3X14515   4.026   3.839  10.178  0.1362 -0.4814  1.2451
  134SAPE   H3Y14516   4.170   3.734  10.206  1.4104  0.5109 -0.0924
  134SAPE   C3414517   4.195   3.900  10.061 -0.7068  0.0127  0.9614
  134SAPE   H4X14518   4.303   3.884  10.083 -0.5755  1.5273  1.4784
  134SAPE   H4Y14519   4.180   4.010  10.057  1.9267  0.3993  1.0923
  134SAPE   C3514520   4.146   3.841   9.926  0.3323 -0.2954 -0.4462
  134SAPE   H5X14521   4.037   3.854   9.909 -0.0887 -2.5267  0.4999
  134SAPE   H5Y14522   4.167   3.732   9.927 -1.0488 -0.5889  1.6026
  134SAPE   C3614523   4.232   3.905   9.816 -0.4211 -0.4013 -0.6044
  134SAPE   H6X14524   4.342   3.904   9.831 -0.4705 -0.0695 -0.2354
  134SAPE   H6Y14525   4.202   4.011   9.809  1.7677  0.1521 -2.1929
  134SAPE   C3714526   4.201   3.843   9.678  0.1020 -0.9750 -0.2681
  134SAPE   H7X14527   4.092   3.862   9.669 -0.0320 -1.5438  0.1456
  134SAPE   H7Y14528   4.207   3.733   9.693 -0.4426 -1.0336 -0.4993
  134SAPE   C3814529   4.295   3.885   9.564  0.0136 -0.4251 -0.3626
  134SAPE   H8X14530   4.398   3.872   9.603  0.1606 -1.4004 -1.0722
  134SAPE   H8Y14531   4.288   3.996   9.557  1.6344 -0.0696  2.7300
  134SAPE   C3914532   4.252   3.806   9.439 -0.2944 -0.0687 -0.2491
  134SAPE   H9X14533   4.141   3.803   9.428 -0.7823  2.6050  3.3007
  134SAPE   H9Y14534   4.272   3.700   9.466 -2.6173 -0.2675  0.7871
  134SAPE  C31014535   4.301   3.851   9.305 -0.3335  0.9250  0.3085
  134SAPE  H10X14536   4.410   3.833   9.308 -0.6469 -1.8808 -2.5622
  134SAPE  H10Y14537   4.287   3.960   9.293 -1.3233  0.6895 -0.8022
  134SAPE  C31114538   4.244   3.772   9.190  0.7984  0.1605  0.1921
  134SAPE  H11X14539   4.134   3.765   9.206  0.9339  1.4934  1.8176
  134SAPE  H11Y14540   4.272   3.665   9.190  1.2633  0.2431 -2.4348
  134SAPE  C31214541   4.267   3.848   9.059 -0.3144 -0.2559  0.2597
  134SAPE  H12X14542   4.375   3.856   9.033 -0.1365 -3.2956 -0.0799
  134SAPE  H12Y14543   4.219   3.944   9.086  0.7431  0.5426 -0.6490
  134SAPE  C31314544   4.191   3.791   8.933  0.3710 -0.6282  0.1224
  134SAPE  H13X14545   4.081   3.780   8.942  0.0910  2.0031  0.2600
  134SAPE  H13Y14546   4.240   3.693   8.913 -0.1063 -1.1179  1.2651
  134SAPE  C31414547   4.216   3.869   8.808  0.2628 -0.0375 -0.3569
  134SAPE  H14X14548   4.318   3.899   8.777  0.8416 -1.4671  0.1256
  134SAPE  H14Y14549   4.158   3.962   8.826 -0.6500 -0.3600 -1.5320
  134SAPE  C31514550   4.142   3.801   8.690  0.1359  0.4092 -0.2432
  134SAPE  H15X14551   4.043   3.768   8.728  0.9351 -2.0020 -0.2083
  134SAPE  H15Y14552   4.212   3.724   8.653 -1.5375 -1.3519  0.1711
  134SAPE  C31614553   4.105   3.892   8.570  0.1439 -0.0058 -0.8260
  134SAPE  H16X14554   4.199   3.947   8.546  2.3101 -3.3873 -0.5300
  134SAPE  H16Y14555   4.041   3.972   8.611  0.0119 -1.7985  2.6090
  134SAPE  C31714556   4.039   3.823   8.448  0.3208  0.2784  0.6071
  134SAPE  H17X14557   4.090   3.729   8.419  0.5728  0.5260  0.2486
  134SAPE  H17Y14558   4.044   3.890   8.360 -1.4676  0.8196  0.8797
  134SAPE  C31814559   3.888   3.806   8.471 -0.4715  0.6314 -0.2876
  134SAPE  H18X14560   3.842   3.894   8.521  2.0017  1.4999  0.4892
  134SAPE  H18Y14561   3.872   3.726   8.546 -0.4942  0.6661 -0.2557
  134SAPE  H18Z14562   3.831   3.763   8.386 -0.3979 -2.5017  1.2054
  135SAPE     N14563   2.788   2.175  10.426  0.1489  0.4491 -0.4656
  135SAPE   HN114564   2.792   2.257  10.489 -1.2040 -0.1379  0.4127
  135SAPE   HN214565   2.873   2.168  10.367  0.2832 -2.5004  0.0051
  135SAPE   HN314566   2.704   2.166  10.365  0.2337 -1.8823 -0.2987
  135SAPE   C1214567   2.781   2.056  10.515 -0.3147  0.6587 -0.3393
  135SAPE  H12A14568   2.742   1.975  10.450  0.3829 -0.2421  0.3556
  135SAPE  H12B14569   2.709   2.085  10.595 -2.2164 -2.0219 -1.0312
  135SAPE   C1114570   2.929   2.014  10.556 -0.0017 -0.1147 -0.6302
  135SAPE  H11A14571   2.987   2.006  10.462 -0.8121  0.0715 -1.1459
  135SAPE  H11B14572   2.916   1.911  10.597  0.1670 -1.1264 -3.0353
  135SAPE     P14573   3.116   2.167  10.638  0.1936  0.7062 -0.0032
  135SAPE   O1314574   3.126   2.278  10.733  0.4665  0.0199  0.2121
  135SAPE   O1414575   3.223   2.061  10.634 -0.4203 -0.4912 -0.3994
  135SAPE   O1214576   2.979   2.096  10.654  0.6428 -0.0054 -0.2857
  135SAPE   O1114577   3.107   2.225  10.492  0.2542 -0.0821 -0.5112
  135SAPE    C114578   3.209   2.311  10.443  0.1486 -0.6875 -0.3275
  135SAPE    HA14579   3.196   2.411  10.490 -0.7542 -1.2190  0.5691
  135SAPE    HB14580   3.309   2.292  10.488  0.0708  0.1095  0.1997
  135SAPE    C214581   3.216   2.319  10.294 -0.4441 -0.1032  0.4395
  135SAPE    HS14582   3.114   2.347  10.263  1.1046  2.3753 -2.7216
  135SAPE   O2114583   3.265   2.194  10.249 -0.1777 -0.3879 -0.2122
  135SAPE   C2114584   3.172   2.106  10.231  0.3251  0.3097 -0.7375
  135SAPE   O2214585   3.052   2.129  10.246  0.0962  0.5636  0.1160
  135SAPE   C2214586   3.233   1.977  10.175 -0.6696 -0.4249 -0.0707
  135SAPE   H2R14587   3.343   1.989  10.165 -0.8868 -0.8677 -3.5225
  135SAPE   H2S14588   3.215   1.894  10.247  1.0873  0.3708  1.3233
  135SAPE    C314589   3.302   2.441  10.237  0.7042 -0.1662 -0.4057
  135SAPE    HX14590   3.405   2.429  10.277  0.9786  1.5113 -0.5710
  135SAPE    HY14591   3.257   2.539  10.264  1.6540  0.5420 -1.3243
  135SAPE   O3114592   3.302   2.434  10.093  0.3165 -0.1493  0.3887
  135SAPE   C3114593   3.410   2.375  10.039 -0.7104  0.2176 -0.4482
  135SAPE   O3214594   3.497   2.315  10.103 -0.1782  0.6063  0.3344
  135SAPE   C3214595   3.399   2.379   9.883 -0.8561 -0.1003  0.4583
  135SAPE   H2X14596   3.446   2.477   9.860 -1.4196  0.6000  2.1772
  135SAPE   H2Y14597   3.291   2.377   9.855 -1.0521  1.3043  1.0576
  135SAPE   C2314598   3.175   1.922  10.040  0.4576  0.8977  0.2526
  135SAPE   H3R14599   3.186   2.000   9.962  3.8648 -0.6145 -0.8992
  135SAPE   H3S14600   3.065   1.918  10.052  0.2492  0.2173 -1.7637
  135SAPE   C2414601   3.233   1.790   9.989  0.4461 -0.1428  0.0987
  135SAPE   H4R14602   3.169   1.738   9.915 -2.0666  1.8219  0.8268
  135SAPE   H4S14603   3.225   1.731  10.084 -0.0708 -0.4128 -0.1097
  135SAPE   C2514604   3.382   1.803   9.961  0.0033  0.3979 -0.1740
  135SAPE   H5R14605   3.452   1.811  10.045  1.3119 -2.0952 -0.9716
  135SAPE   C2614606   3.446   1.803   9.837  0.7214  0.8175 -0.1813
  135SAPE   H6R14607   3.553   1.818   9.820  0.7996  0.4417 -0.0341
  135SAPE   C2714608   3.362   1.794   9.712 -0.6255 -0.2994  0.1184
  135SAPE   H7R14609   3.378   1.888   9.655  0.1742  0.1726  1.1011
  135SAPE   H7S14610   3.255   1.788   9.742 -0.2811  2.3145  2.0267
  135SAPE   C2814611   3.398   1.663   9.629 -0.7968  0.2944  0.1842
  135SAPE   H8R14612   3.445   1.582   9.687 -0.2397 -1.5323 -2.6904
  135SAPE   C2914613   3.386   1.640   9.496 -0.5184  0.6201  0.1862
  135SAPE   H9R14614   3.423   1.544   9.458  0.2985  0.3781  1.5564
  135SAPE  C21014615   3.328   1.747   9.398 -0.3545 -0.2669  0.0643
  135SAPE  H10R14616   3.243   1.800   9.446 -1.4139  0.1920 -2.2684
  135SAPE  H10S14617   3.289   1.683   9.316  0.6865 -2.7089  1.4290
  135SAPE  C21114618   3.436   1.844   9.355  0.4337  0.4382 -0.4430
  135SAPE  H11R14619   3.515   1.855   9.431  3.1869 -0.5164 -3.0235
  135SAPE  C21214620   3.461   1.897   9.236 -0.3412  0.4683  0.6885
  135SAPE  H12R14621   3.549   1.961   9.220  1.8446 -1.7361  3.4928
  135SAPE  C21314622   3.383   1.866   9.110  0.6256 -0.0097 -0.3027
  135SAPE  H13R14623   3.418   1.927   9.024 -0.4186 -1.0549 -1.4722
  135SAPE  H13S14624   3.278   1.896   9.130  1.3269  0.3935  3.0962
  135SAPE  C21414625   3.399   1.725   9.069  0.3539 -0.1249 -0.7334
  135SAPE  H14R14626   3.459   1.669   9.143 -1.3287  1.5779  2.0234
  135SAPE  C21514627   3.343   1.665   8.962 -0.2305 -0.0935  0.4798
  135SAPE  H15R14628   3.354   1.555   8.953 -2.9743 -0.5997  2.6278
  135SAPE  C21614629   3.265   1.738   8.859  0.6576  0.7422 -0.0727
  135SAPE  H16R14630   3.262   1.849   8.873 -1.0269  0.6190  0.6450
  135SAPE  H16S14631   3.159   1.709   8.874 -0.2372  1.7768 -3.9210
  135SAPE  C21714632   3.289   1.691   8.714  0.4988  0.1316  0.6494
  135SAPE  H17R14633   3.398   1.689   8.693  0.6765 -1.3445  1.6321
  135SAPE  H17S14634   3.252   1.759   8.634  2.6187  0.2167 -0.3128
  135SAPE  C21814635   3.232   1.555   8.684  0.4962 -0.1638 -0.7482
  135SAPE  H18R14636   3.123   1.561   8.702  0.7053 -0.3222  0.5745
  135SAPE  H18S14637   3.265   1.473   8.752 -1.7155 -1.7660 -1.5660
  135SAPE  C21914638   3.256   1.512   8.545 -0.5420  0.1052  0.3917
  135SAPE  H19R14639   3.363   1.502   8.515 -0.6376 -1.0798  0.4277
  135SAPE  H19S14640   3.226   1.586   8.468  0.3146 -0.4735 -0.5184
  135SAPE  C22014641   3.192   1.387   8.502  0.2262 -0.1385  0.0453
  135SAPE  H20R14642   3.105   1.361   8.567 -1.4606  0.1552 -2.0277
  135SAPE  H20S14643   3.269   1.307   8.492 -1.3622 -1.4821 -2.0270
  135SAPE  H20T14644   3.162   1.377   8.395  0.7073  1.2204 -0.2202
  135SAPE   C3314645   3.468   2.258   9.820  0.8254 -0.1191 -0.0437
  135SAPE   H3X14646   3.425   2.161   9.852 -1.3162  0.0332 -2.2562
  135SAPE   H3Y14647   3.577   2.253   9.841  1.3056 -0.2711 -2.4543
  135SAPE   C3414648   3.464   2.258   9.666 -0.1197 -0.7834 -0.5904
  135SAPE   H4X14649   3.556   2.206   9.630 -0.0469 -2.0355  1.2966
  135SAPE   H4Y14650   3.470   2.360   9.623 -4.0762  0.5355  1.7665
  135SAPE   C3514651   3.337   2.194   9.615  0.3515  0.3866  0.1415
  135SAPE   H5X14652   3.253   2.256   9.654  1.1192  2.0337 -0.7642
  135SAPE   H5Y14653   3.324   2.088   9.644 -1.2008 -0.9361 -4.8228
  135SAPE   C3614654   3.336   2.204   9.463 -0.3272 -0.5791  0.4011
  135SAPE   H6X14655   3.425   2.142   9.439  1.4699  1.6499  1.1910
  135SAPE   H6Y14656   3.354   2.308   9.428  1.8588 -0.9648  0.2729
  135SAPE   C3714657   3.212   2.143   9.395 -0.4599  0.9670  0.2955
  135SAPE   H7X14658   3.116   2.190   9.422 -0.7411 -1.3136  3.5276
  135SAPE   H7Y14659   3.199   2.040   9.434  1.1395  0.7149  0.2296
  135SAPE   C3814660   3.217   2.144   9.243  0.5228 -0.5055  0.2084
  135SAPE   H8X14661   3.155   2.061   9.204  2.0859 -1.3642 -0.5073
  135SAPE   H8Y14662   3.322   2.130   9.208 -0.0474 -4.1357 -0.2245
  135SAPE   C3914663   3.148   2.264   9.181  0.3253  0.3892  0.1915
  135SAPE   H9X14664   3.211   2.356   9.187  0.6166  0.1797  0.3431
  135SAPE   H9Y14665   3.061   2.293   9.243  0.8279  1.8227  0.2520
  135SAPE  C31014666   3.089   2.235   9.040  0.0279 -0.1892 -0.5493
  135SAPE  H10X14667   3.008   2.310   9.030  2.5797  2.8659  0.9413
  135SAPE  H10Y14668   3.030   2.142   9.047  0.8025 -0.5816  0.8423
  135SAPE  C31114669   3.182   2.225   8.917  0.0540 -0.0245 -0.2169
  135SAPE  H11X14670   3.252   2.142   8.942  0.6293  0.4985 -0.0914
  135SAPE  H11Y14671   3.238   2.319   8.900 -2.9746  1.6970 -0.9751
  135SAPE  C31214672   3.118   2.184   8.787  0.3573  0.6467  0.5366
  135SAPE  H12X14673   3.047   2.259   8.746  0.0344 -1.2091 -2.4471
  135SAPE  H12Y14674   3.052   2.096   8.807  1.0987  0.2598  1.3496
  135SAPE  C31314675   3.224   2.149   8.683  0.1676  0.5885  0.3376
  135SAPE  H13X14676   3.278   2.066   8.733 -0.3255  0.5966  0.9004
  135SAPE  H13Y14677   3.308   2.222   8.676 -1.3088  2.3385  0.4471
  135SAPE  C31414678   3.163   2.114   8.549 -0.4249  0.4078 -0.3094
  135SAPE  H14X14679   3.112   2.198   8.496 -0.4824  0.4032 -0.2607
  135SAPE  H14Y14680   3.085   2.044   8.586 -2.0557  1.1332 -2.2240
  135SAPE  C31514681   3.260   2.056   8.444  0.6965 -0.2721  1.0751
  135SAPE  H15X14682   3.206   2.000   8.364 -1.8853  0.5758  2.1607
  135SAPE  H15Y14683   3.321   1.980   8.498  1.5906  0.0404  0.5148
  135SAPE  C31614684   3.348   2.165   8.386  0.1687 -0.0824 -0.2921
  135SAPE  H16X14685   3.445   2.161   8.439  0.2743 -0.1215 -0.4865
  135SAPE  H16Y14686   3.291   2.256   8.414  0.2923 -0.0257 -0.2245
  135SAPE  C31714687   3.379   2.160   8.239 -0.8546  0.0310  0.2937
  135SAPE  H17X14688   3.292   2.190   8.177 -0.1321 -3.1014 -2.4019
  135SAPE  H17Y14689   3.403   2.055   8.211  1.1780  0.0756  1.7140
  135SAPE  C31814690   3.497   2.247   8.203 -0.0531 -0.6094 -0.1960
  135SAPE  H18X14691   3.507   2.248   8.093 -1.2804  0.9752 -0.3137
  135SAPE  H18Y14692   3.591   2.202   8.241  0.2460 -0.6098 -0.9280
  135SAPE  H18Z14693   3.494   2.352   8.239 -2.3118 -0.7177  0.0321
  136SAPE     N14694   5.494   2.853  10.777  0.3051  0.0865  0.2518
  136SAPE   HN114695   5.578   2.854  10.839 -0.7902 -2.1754  1.8741
  136SAPE   HN214696   5.495   2.931  10.709  1.5412 -0.0721  0.0764
  136SAPE   HN314697   5.406   2.852  10.833 -0.6480 -0.2930 -1.2451
  136SAPE   C1214698   5.517   2.729  10.693 -0.7737 -0.6604  0.3255
  136SAPE  H12A14699   5.622   2.729  10.657 -0.2891 -1.0803  1.6665
  136SAPE  H12B14700   5.442   2.719  10.612 -2.3103 -0.3527  1.6738
  136SAPE   C1114701   5.499   2.604  10.780  0.4399 -0.5097 -0.5278
  136SAPE  H11A14702   5.532   2.511  10.729  0.7583 -1.6418  1.7230
  136SAPE  H11B14703   5.391   2.595  10.803  0.6512  1.1190  1.2489
  136SAPE     P14704   5.723   2.569  10.935  0.0101  0.0300 -0.1197
  136SAPE   O1314705   5.819   2.681  10.912 -0.0378 -0.1235  0.2859
  136SAPE   O1414706   5.721   2.503  11.068  0.0034 -0.0941 -0.1469
  136SAPE   O1214707   5.579   2.622  10.896  0.7746 -0.0039 -0.3230
  136SAPE   O1114708   5.758   2.459  10.827  0.0262 -0.1515 -0.0808
  136SAPE    C114709   5.848   2.481  10.720 -0.3600 -0.5566  0.8936
  136SAPE    HA14710   5.789   2.459  10.629  0.7263 -0.3191  0.1270
  136SAPE    HB14711   5.877   2.586  10.700  1.6370 -1.2782 -0.0774
  136SAPE    C214712   5.975   2.395  10.718 -0.8589 -1.4014  0.3777
  136SAPE    HS14713   6.038   2.410  10.808  1.4957  1.5541 -1.6854
  136SAPE   O2114714   6.046   2.411  10.598  0.0572  0.0119  0.5516
  136SAPE   C2114715   6.101   2.534  10.580  0.2083 -0.6239 -0.9581
  136SAPE   O2214716   6.118   2.620  10.667 -0.5992  0.0196  0.8544
  136SAPE   C2214717   6.147   2.540  10.436  0.6491  0.2316 -0.0711
  136SAPE   H2R14718   6.186   2.443  10.397  0.7204  0.5556 -0.8201
  136SAPE   H2S14719   6.050   2.555  10.384  0.8947 -0.5286 -0.7667
  136SAPE    C314720   5.938   2.242  10.717  0.1594 -0.4034  0.1265
  136SAPE    HX14721   5.857   2.229  10.792  0.1204 -0.1914  0.1203
  136SAPE    HY14722   6.023   2.185  10.760  0.6823  0.1551 -0.1585
  136SAPE   O3114723   5.888   2.191  10.590 -0.4155 -0.4796  0.2664
  136SAPE   C3114724   5.974   2.144  10.512  0.0520 -0.2938  0.5892
  136SAPE   O3214725   6.096   2.128  10.538  0.3370 -0.2720 -0.4641
  136SAPE   C3214726   5.912   2.119  10.369  0.4792  0.4884  0.1900
  136SAPE   H2X14727   5.803   2.138  10.380  0.8699  2.3888  0.8550
  136SAPE   H2Y14728   5.939   2.017  10.336  0.4112  0.9061 -1.1930
  136SAPE   C2314729   6.229   2.671  10.408 -0.3040  0.2194 -0.0327
  136SAPE   H3R14730   6.332   2.662  10.449 -0.2914 -1.5390 -0.4067
  136SAPE   H3S14731   6.192   2.765  10.454  1.7391  1.1979 -0.3396
  136SAPE   C2414732   6.231   2.683  10.254 -0.5654 -0.6081  0.0088
  136SAPE   H4R14733   6.126   2.692  10.219 -0.6399  1.6754  0.7119
  136SAPE   H4S14734   6.273   2.588  10.215 -1.2509 -0.4652 -1.1088
  136SAPE   C2514735   6.294   2.798  10.180  0.4067  0.1768  0.1282
  136SAPE   H5R14736   6.215   2.870  10.154 -2.2018 -2.0224  1.7003
  136SAPE   C2614737   6.426   2.816  10.157  0.6119  0.3510 -0.1979
  136SAPE   H6R14738   6.452   2.908  10.103 -0.8097  1.2909  0.6741
  136SAPE   C2714739   6.543   2.731  10.194  0.0062  0.1692  0.2100
  136SAPE   H7R14740   6.587   2.686  10.102  1.1053 -0.8850  1.2203
  136SAPE   H7S14741   6.523   2.645  10.262  0.2825  0.0204  0.1072
  136SAPE   C2814742   6.641   2.815  10.266 -0.1066  0.5254  0.8007
  136SAPE   H8R14743   6.589   2.874  10.343 -0.0856  0.0557  1.1683
  136SAPE   C2914744   6.769   2.839  10.229  0.1905 -0.2906 -0.3460
  136SAPE   H9R14745   6.813   2.922  10.286  1.6968 -0.9404 -0.5506
  136SAPE  C21014746   6.829   2.772  10.110 -0.0282 -0.2536 -0.4639
  136SAPE  H10R14747   6.772   2.780  10.015  1.7732 -1.3164 -1.6655
  136SAPE  H10S14748   6.812   2.665  10.137 -0.0415 -0.9298 -2.9977
  136SAPE  C21114749   6.976   2.795  10.088 -0.0209  0.2041  0.1945
  136SAPE  H11R14750   7.044   2.763  10.168 -1.2201 -0.7308  0.8400
  136SAPE  C21214751   7.023   2.852   9.973 -0.6752 -0.8539 -0.0567
  136SAPE  H12R14752   7.130   2.872   9.955 -0.2003 -2.2314  1.1340
  136SAPE  C21314753   6.943   2.898   9.853 -0.2680 -0.1326  0.0434
  136SAPE  H13R14754   7.004   2.984   9.816  1.1262  0.1609  2.9381
  136SAPE  H13S14755   6.852   2.945   9.895 -0.1405 -0.9723  1.2685
  136SAPE  C21414756   6.889   2.798   9.747  0.1987  0.1668  0.6633
  136SAPE  H14R14757   6.860   2.701   9.789 -2.1288  0.8934  0.7848
  136SAPE  C21514758   6.867   2.823   9.623  0.2943  0.3325 -0.1271
  136SAPE  H15R14759   6.843   2.736   9.560  2.0486 -0.7953  0.7119
  136SAPE  C21614760   6.880   2.962   9.548 -0.2697 -0.3890 -0.1606
  136SAPE  H16R14761   6.895   3.043   9.622 -1.2508 -1.2735  1.0220
  136SAPE  H16S14762   6.785   2.993   9.500 -0.1990  1.6818  0.9792
  136SAPE  C21714763   7.001   2.965   9.451 -0.6531  0.7030  0.5245
  136SAPE  H17R14764   7.098   2.947   9.503 -0.8683  2.1160  1.4432
  136SAPE  H17S14765   7.017   3.068   9.411  2.3525 -1.0980 -3.3032
  136SAPE  C21814766   6.996   2.889   9.316 -1.0443  0.3759  0.6430
  136SAPE  H18R14767   6.910   2.925   9.256 -0.6923 -0.2574 -0.2478
  136SAPE  H18S14768   6.966   2.782   9.330  1.1087 -0.3555 -0.1537
  136SAPE  C21914769   7.122   2.896   9.234 -0.0631  0.3119 -0.1930
  136SAPE  H19R14770   7.165   2.997   9.216  2.1924 -0.1570  2.1314
  136SAPE  H19S14771   7.106   2.849   9.135  2.4945  0.9955 -0.9753
  136SAPE  C22014772   7.232   2.810   9.303  0.3975 -0.1795  0.5341
  136SAPE  H20R14773   7.326   2.811   9.245  2.1085 -1.1403  3.2075
  136SAPE  H20S14774   7.205   2.705   9.327  2.9564 -1.8535 -3.4389
  136SAPE  H20T14775   7.254   2.869   9.395  1.4162 -0.6858  0.6238
  136SAPE   C3314776   5.949   2.219  10.245 -1.0107  0.1994  0.3679
  136SAPE   H3X14777   5.938   2.326  10.270 -2.0844  0.0048  0.7842
  136SAPE   H3Y14778   5.878   2.190  10.165 -1.3002  4.4090 -0.9774
  136SAPE   C3414779   6.094   2.193  10.188  0.1691 -0.3088 -0.7626
  136SAPE   H4X14780   6.094   2.088  10.152 -1.3196 -1.3364  2.0774
  136SAPE   H4Y14781   6.172   2.195  10.267 -1.3223 -2.9046  0.8321
  136SAPE   C3514782   6.133   2.295  10.082 -0.3496 -0.4157 -0.3897
  136SAPE   H5X14783   6.240   2.281  10.057 -0.4122  0.9793 -1.4921
  136SAPE   H5Y14784   6.126   2.397  10.124  0.7650 -0.9259  1.0532
  136SAPE   C3614785   6.058   2.284   9.955  0.0230 -0.0015 -0.7147
  136SAPE   H6X14786   5.957   2.325   9.977 -0.0467 -0.6015  0.0888
  136SAPE   H6Y14787   6.047   2.174   9.942  2.2337 -0.1933 -1.1852
  136SAPE   C3714788   6.125   2.348   9.839 -0.1387  0.5235  0.1837
  136SAPE   H7X14789   6.225   2.300   9.832 -0.6197 -0.6621  1.3670
  136SAPE   H7Y14790   6.148   2.456   9.849 -0.1062  0.5949 -0.5940
  136SAPE   C3814791   6.041   2.341   9.707 -1.0372  0.0318  0.1926
  136SAPE   H8X14792   5.939   2.382   9.723 -1.7350  0.0361 -3.6211
  136SAPE   H8Y14793   6.025   2.238   9.670 -1.5250  0.6114 -1.2538
  136SAPE   C3914794   6.114   2.428   9.596 -0.2530  0.7295  0.0916
  136SAPE   H9X14795   6.155   2.523   9.638  1.1072  0.5823 -0.8785
  136SAPE   H9Y14796   6.048   2.453   9.510 -3.7626  0.0766  2.4914
  136SAPE  C31014797   6.224   2.358   9.534 -0.1036 -0.3734  0.2334
  136SAPE  H10X14798   6.183   2.262   9.496 -0.3523 -0.9620  1.9272
  136SAPE  H10Y14799   6.299   2.342   9.614  1.6478  3.2422 -0.5859
  136SAPE  C31114800   6.291   2.455   9.433 -0.4398 -0.2615 -0.0096
  136SAPE  H11X14801   6.334   2.550   9.471  0.7575 -0.6419 -0.3664
  136SAPE  H11Y14802   6.205   2.476   9.365 -1.2675 -1.2601  0.7147
  136SAPE  C31214803   6.389   2.380   9.341 -0.1431  0.4325  0.3152
  136SAPE  H12X14804   6.339   2.287   9.306  1.6058 -0.1918 -0.5902
  136SAPE  H12Y14805   6.471   2.337   9.401  2.4536  2.4598 -1.6625
  136SAPE  C31314806   6.435   2.461   9.223 -0.3476  0.3710 -0.1289
  136SAPE  H13X14807   6.515   2.529   9.260 -0.7846  1.1516 -0.6132
  136SAPE  H13Y14808   6.351   2.524   9.186 -0.7678  1.4888  2.6228
  136SAPE  C31414809   6.490   2.387   9.105  0.2471 -0.5765  0.6488
  136SAPE  H14X14810   6.539   2.453   9.031  0.3883 -1.2404  0.1427
  136SAPE  H14Y14811   6.394   2.353   9.060 -0.3469  2.8874 -0.8492
  136SAPE  C31514812   6.586   2.274   9.124 -0.0131 -0.0771  0.2371
  136SAPE  H15X14813   6.549   2.202   9.200  1.8856 -0.0708  1.1941
  136SAPE  H15Y14814   6.675   2.323   9.170  0.6975 -0.8409 -0.3082
  136SAPE  C31614815   6.634   2.203   9.005 -0.0923  0.4847 -0.1020
  136SAPE  H16X14816   6.696   2.275   8.948  1.0700  0.2198  0.8117
  136SAPE  H16Y14817   6.561   2.149   8.941  0.7448 -1.7405  0.7628
  136SAPE  C31714818   6.736   2.087   9.034  0.1101 -0.7030 -1.3838
  136SAPE  H17X14819   6.691   2.011   9.102 -3.1711  0.1836 -2.4701
  136SAPE  H17Y14820   6.824   2.130   9.086 -1.2680 -0.5418  0.8870
  136SAPE  C31814821   6.755   2.019   8.902 -0.7915  0.1330  0.0864
  136SAPE  H18X14822   6.667   1.958   8.870 -0.4737 -0.3821  0.1733
  136SAPE  H18Y14823   6.839   1.946   8.911 -0.2677  0.8647  1.2108
  136SAPE  H18Z14824   6.798   2.081   8.821  0.0814  1.5853  1.6371
  137SAPE     N14825   4.730   5.041  11.003 -0.3950  0.0182  0.2466
  137SAPE   HN114826   4.698   4.943  11.016 -0.0829 -0.1308 -0.1126
  137SAPE   HN214827   4.683   5.070  10.914 -2.2342  0.7350  1.4105
  137SAPE   HN314828   4.832   5.032  10.988 -0.1681  1.1508  1.0151
  137SAPE   C1214829   4.686   5.138  11.115  0.1838  0.2743  0.8926
  137SAPE  H12A14830   4.735   5.234  11.086 -1.9650  0.2617 -3.0249
  137SAPE  H12B14831   4.739   5.108  11.208  2.7364 -3.9727 -1.7754
  137SAPE   C1114832   4.536   5.149  11.122 -0.0878 -0.9674  0.1299
  137SAPE  H11A14833   4.519   5.237  11.188  1.9376 -0.2617 -0.2624
  137SAPE  H11B14834   4.488   5.059  11.166 -1.4177 -0.2261  0.2079
  137SAPE     P14835   4.322   5.224  10.990 -0.2717 -0.2264 -0.8857
  137SAPE   O1314836   4.241   5.103  10.983 -0.0147  0.1181  0.2698
  137SAPE   O1414837   4.294   5.320  11.102 -0.2762 -0.3873 -0.1468
  137SAPE   O1214838   4.478   5.187  10.999  0.6357  0.3330 -0.8263
  137SAPE   O1114839   4.307   5.296  10.861  0.3828  0.0907  0.7104
  137SAPE    C114840   4.406   5.383  10.809  0.0484  0.6399  0.0275
  137SAPE    HA14841   4.495   5.400  10.873 -0.5333 -0.1280  1.0709
  137SAPE    HB14842   4.437   5.346  10.709 -0.9164  0.8252 -0.3425
  137SAPE    C214843   4.345   5.517  10.766 -0.3103 -0.0104  0.6327
  137SAPE    HS14844   4.322   5.579  10.856  0.6098  1.7996 -0.3595
  137SAPE   O2114845   4.225   5.501  10.680 -0.0823 -0.2231 -0.3659
  137SAPE   C2114846   4.166   5.619  10.661  0.2620 -0.0672 -0.2110
  137SAPE   O2214847   4.178   5.721  10.728 -0.2567  0.4065 -0.1423
  137SAPE   C2214848   4.066   5.606  10.547 -0.0267  0.1342  0.1497
  137SAPE   H2R14849   4.023   5.504  10.541 -1.0883  0.5530  0.6147
  137SAPE   H2S14850   3.984   5.681  10.552 -0.6511 -0.4632 -0.9004
  137SAPE    C314851   4.452   5.593  10.674  0.1755  0.3358  0.5104
  137SAPE    HX14852   4.553   5.583  10.720 -0.5105 -2.2201  1.5303
  137SAPE    HY14853   4.437   5.703  10.669 -0.3059  0.2361 -0.3692
  137SAPE   O3114854   4.455   5.549  10.541  0.1509 -0.0176  0.2119
  137SAPE   C3114855   4.561   5.495  10.486  1.2937  0.3994 -0.4757
  137SAPE   O3214856   4.668   5.464  10.539  0.0365  0.4550 -0.0397
  137SAPE   C3214857   4.542   5.490  10.334 -0.1804  0.0390  0.4390
  137SAPE   H2X14858   4.610   5.565  10.288 -1.0117  0.1258 -0.6852
  137SAPE   H2Y14859   4.436   5.520  10.320 -0.1700  0.5478  1.4212
  137SAPE   C2314860   4.137   5.624  10.414  0.4294 -0.0873 -0.3384
  137SAPE   H3R14861   4.231   5.564  10.414  1.2891  1.2015 -1.0329
  137SAPE   H3S14862   4.156   5.729  10.382  1.1355  0.2451  1.1351
  137SAPE   C2414863   4.057   5.581  10.288  0.1081 -1.1562  0.2891
  137SAPE   H4R14864   4.106   5.629  10.200  2.1497  0.5878  2.3432
  137SAPE   H4S14865   3.955   5.626  10.282  1.0362  0.7972 -2.0533
  137SAPE   C2514866   4.053   5.433  10.270 -0.3932 -1.4266 -0.1323
  137SAPE   H5R14867   4.050   5.379  10.366 -0.3799 -0.8844  0.1756
  137SAPE   C2614868   4.067   5.366  10.155  0.2561  0.0523 -0.0557
  137SAPE   H6R14869   4.059   5.257  10.172  1.2759  0.0091  0.1584
  137SAPE   C2714870   4.090   5.408  10.010  0.0991  0.0396  0.1149
  137SAPE   H7R14871   4.199   5.415   9.992 -0.2602  0.4742 -2.0205
  137SAPE   H7S14872   4.069   5.516   9.997 -3.7350 -1.0800 -4.1256
  137SAPE   C2814873   4.020   5.317   9.906  0.0474 -0.2206 -0.2083
  137SAPE   H8R14874   4.030   5.209   9.921  0.6464  0.0295  1.2627
  137SAPE   C2914875   3.955   5.357   9.785 -0.6955 -0.3826  0.6917
  137SAPE   H9R14876   3.917   5.274   9.724 -2.4399  1.0254 -0.1425
  137SAPE  C21014877   3.955   5.496   9.739 -0.0258 -0.0524  0.5546
  137SAPE  H10R14878   4.063   5.515   9.722 -0.6373  2.0110 -1.2232
  137SAPE  H10S14879   3.918   5.560   9.822  0.6798  0.3022  0.5998
  137SAPE  C21114880   3.879   5.528   9.614 -0.0440  0.3336 -0.1905
  137SAPE  H11R14881   3.788   5.589   9.629  1.0863  1.9923  0.1391
  137SAPE  C21214882   3.907   5.479   9.490 -0.1006  0.1039  0.0002
  137SAPE  H12R14883   3.845   5.498   9.401 -0.5488 -2.1914 -0.2225
  137SAPE  C21314884   4.022   5.383   9.448  0.2542  0.2178 -0.3773
  137SAPE  H13R14885   4.113   5.407   9.507 -0.4210 -0.2709  0.9006
  137SAPE  H13S14886   4.049   5.417   9.346  1.5151  0.2901 -0.0226
  137SAPE  C21414887   3.989   5.235   9.464  0.2555  0.2296 -0.1361
  137SAPE  H14R14888   3.916   5.210   9.542  1.5305 -3.1918  0.0527
  137SAPE  C21514889   4.033   5.141   9.380 -0.3272 -0.3514 -0.0022
  137SAPE  H15R14890   3.996   5.037   9.386 -1.9179  0.3327  2.8132
  137SAPE  C21614891   4.132   5.150   9.271  0.3922 -0.4168  0.9124
  137SAPE  H16R14892   4.185   5.053   9.279  0.1691 -0.7250 -1.0427
  137SAPE  H16S14893   4.208   5.228   9.294 -1.1121  1.0200  1.0970
  137SAPE  C21714894   4.074   5.148   9.124 -0.2624 -0.5774 -0.5119
  137SAPE  H17R14895   4.011   5.238   9.113 -1.0969 -1.2010 -0.8640
  137SAPE  H17S14896   4.001   5.069   9.097 -2.8065  0.7571  2.2387
  137SAPE  C21814897   4.173   5.136   9.008 -1.1537  0.3503  0.8469
  137SAPE  H18R14898   4.245   5.053   9.029  0.0432  1.1196 -0.1649
  137SAPE  H18S14899   4.231   5.230   9.005 -0.8317  0.1690  1.2927
  137SAPE  C21914900   4.089   5.123   8.878  0.0557 -0.4099 -0.4403
  137SAPE  H19R14901   4.032   5.218   8.884 -1.2984 -1.3440  2.4801
  137SAPE  H19S14902   4.011   5.045   8.879  0.3180 -0.6678  1.3189
  137SAPE  C22014903   4.177   5.113   8.750  0.2692 -0.8238 -0.7996
  137SAPE  H20R14904   4.104   5.102   8.667  0.7253  1.4832 -1.5660
  137SAPE  H20S14905   4.236   5.021   8.770 -0.2351 -0.8169  0.7565
  137SAPE  H20T14906   4.233   5.208   8.733  1.4948 -1.2885  0.6046
  137SAPE   C3314907   4.574   5.342  10.281 -0.4897 -0.6431  0.6440
  137SAPE   H3X14908   4.521   5.261  10.335  1.8886 -1.1701  2.2542
  137SAPE   H3Y14909   4.682   5.316  10.286  0.1934  1.6312 -1.2421
  137SAPE   C3414910   4.532   5.323  10.135  0.1233  0.0165 -0.7322
  137SAPE   H4X14911   4.423   5.344  10.127  0.1661  0.5900  0.1707
  137SAPE   H4Y14912   4.562   5.221  10.101 -0.3791 -0.6338  0.7400
  137SAPE   C3514913   4.598   5.421  10.030  0.3596  0.4106 -0.5410
  137SAPE   H5X14914   4.708   5.421  10.050  0.1926  1.6369  0.4089
  137SAPE   H5Y14915   4.564   5.525  10.049  1.3370  0.5194  0.7500
  137SAPE   C3614916   4.575   5.387   9.883  0.0157  0.2662  0.1027
  137SAPE   H6X14917   4.603   5.280   9.867 -0.9618  0.1519 -0.9369
  137SAPE   H6Y14918   4.641   5.449   9.818  3.3425 -3.5396 -0.3870
  137SAPE   C3714919   4.439   5.410   9.828  0.1528  0.2532 -0.0476
  137SAPE   H7X14920   4.402   5.512   9.854 -0.2020  0.2811 -0.6570
  137SAPE   H7Y14921   4.364   5.346   9.878  0.3945  0.7129  0.9233
  137SAPE   C3814922   4.429   5.412   9.671 -0.6159  1.0143  0.2549
  137SAPE   H8X14923   4.501   5.484   9.627 -0.1328  0.3394 -0.0549
  137SAPE   H8Y14924   4.325   5.433   9.640 -0.9781 -0.7985  0.1631
  137SAPE   C3914925   4.445   5.266   9.620 -0.1267 -1.3000  0.0386
  137SAPE   H9X14926   4.358   5.200   9.645 -0.9256  0.2549  1.4788
  137SAPE   H9Y14927   4.527   5.218   9.677  1.3388 -0.0092 -0.9388
  137SAPE  C31014928   4.476   5.244   9.471  0.9605  0.0401  0.5285
  137SAPE  H10X14929   4.396   5.295   9.413  0.1344 -2.3194 -0.4555
  137SAPE  H10Y14930   4.470   5.135   9.452 -1.3795 -0.2733  2.9334
  137SAPE  C31114931   4.622   5.299   9.443  0.2602 -0.2979 -0.2535
  137SAPE  H11X14932   4.702   5.286   9.520  1.4439  0.1416 -1.3952
  137SAPE  H11Y14933   4.599   5.408   9.444  0.8699 -0.1622  2.3932
  137SAPE  C31214934   4.683   5.263   9.301 -0.2487 -0.1134 -0.5479
  137SAPE  H12X14935   4.659   5.155   9.296  2.2831 -0.6650 -1.3754
  137SAPE  H12Y14936   4.792   5.283   9.293 -0.4306 -0.3453 -4.4206
  137SAPE  C31314937   4.612   5.325   9.182  0.2574  0.1235  0.0322
  137SAPE  H13X14938   4.625   5.435   9.185  0.8505 -0.0062  2.9617
  137SAPE  H13Y14939   4.502   5.306   9.179 -0.0464  1.6925  0.8972
  137SAPE  C31414940   4.664   5.271   9.039  0.3599  0.7395  0.0945
  137SAPE  H14X14941   4.614   5.172   9.042  0.0991  0.8759  0.2947
  137SAPE  H14Y14942   4.774   5.262   9.038  0.2212 -1.0683 -2.1115
  137SAPE  C31514943   4.614   5.365   8.918  0.3338 -0.9268 -0.6460
  137SAPE  H15X14944   4.664   5.338   8.823  0.4107  2.0788 -1.5268
  137SAPE  H15Y14945   4.642   5.471   8.937  0.0191 -0.8171 -0.7886
  137SAPE  C31614946   4.463   5.393   8.905 -0.0869  0.1980  0.2888
  137SAPE  H16X14947   4.428   5.419   9.007 -3.2557 -2.9999  0.1010
  137SAPE  H16Y14948   4.421   5.295   8.874  1.8419 -0.5331 -0.0961
  137SAPE  C31714949   4.419   5.509   8.811  0.3905  0.1531  0.2654
  137SAPE  H17X14950   4.469   5.602   8.845 -2.1975  2.2426 -1.4557
  137SAPE  H17Y14951   4.311   5.519   8.835  0.5578 -2.8254  2.4971
  137SAPE  C31814952   4.432   5.496   8.661 -0.5807 -0.3457  0.3939
  137SAPE  H18X14953   4.348   5.563   8.633 -1.8040 -1.7486  0.6409
  137SAPE  H18Y14954   4.402   5.397   8.620 -1.6297  0.0941  0.0662
  137SAPE  H18Z14955   4.526   5.534   8.616 -1.1226  0.2892 -0.2109
  138SAPE     N14956   1.683   0.420  10.725 -0.5041  0.8547  0.2709
  138SAPE   HN114957   1.652   0.497  10.662  0.8597  0.8522 -0.4362
  138SAPE   HN214958   1.613   0.390  10.795  0.0433 -1.1748  0.0021
  138SAPE   HN314959   1.770   0.460  10.765  0.4196 -1.5180  0.7541
  138SAPE   C1214960   1.702   0.311  10.623  0.6239  0.3444  0.2388
  138SAPE  H12A14961   1.772   0.236  10.665  0.0456 -0.0135  0.5756
  138SAPE  H12B14962   1.747   0.359  10.534  0.9805 -2.4983 -1.1690
  138SAPE   C1114963   1.568   0.243  10.583  0.2315 -0.0973 -0.2108
  138SAPE  H11A14964   1.582   0.149  10.526  0.2135 -0.9316  1.1254
  138SAPE  H11B14965   1.495   0.313  10.536  0.4229  0.3719  0.1822
  138SAPE     P14966   1.384   0.094  10.716 -0.3658  0.0767 -0.5768
  138SAPE   O1314967   1.326   0.118  10.849 -0.0570  0.0373  0.4832
  138SAPE   O1414968   1.299   0.122  10.597 -0.5500 -0.6352 -0.4721
  138SAPE   O1214969   1.502   0.200  10.709 -0.5473  0.2168 -0.1243
  138SAPE   O1114970   1.455  -0.048  10.713  0.3994  0.0483  0.7424
  138SAPE    C114971   1.374  -0.159  10.740  0.0112  0.4158 -0.0233
  138SAPE    HA14972   1.417  -0.193  10.837  1.3090 -0.5686 -0.9201
  138SAPE    HB14973   1.264  -0.141  10.735  0.1065  0.5663 -1.6903
  138SAPE    C214974   1.396  -0.286  10.645  0.3258 -0.4547  0.9084
  138SAPE    HS14975   1.501  -0.322  10.652  0.8819  0.5376 -1.9146
  138SAPE   O2114976   1.348  -0.251  10.512  0.0526  0.5036  0.6081
  138SAPE   C2114977   1.434  -0.197  10.434 -0.6881  0.7889 -0.2044
  138SAPE   O2214978   1.557  -0.185  10.453  0.5744  0.3104  0.0349
  138SAPE   C2214979   1.375  -0.172  10.299  0.3563 -1.2268 -0.4161
  138SAPE   H2R14980   1.264  -0.176  10.304  0.2866  1.7690  2.0956
  138SAPE   H2S14981   1.412  -0.071  10.271  2.1981 -1.6688  0.3104
  138SAPE    C314982   1.320  -0.406  10.695  0.1923 -0.0810 -0.0655
  138SAPE    HX14983   1.212  -0.378  10.693 -0.1337 -0.9314  3.2112
  138SAPE    HY14984   1.358  -0.411  10.799 -0.1757 -1.5385  0.0087
  138SAPE   O3114985   1.352  -0.524  10.610  0.2519 -0.2900 -0.2567
  138SAPE   C3114986   1.368  -0.636  10.666 -0.7972 -1.2505  0.2943
  138SAPE   O3214987   1.356  -0.655  10.788 -0.0436 -0.5281 -0.1372
  138SAPE   C3214988   1.418  -0.741  10.566  0.4499  0.0297  0.4588
  138SAPE   H2X14989   1.349  -0.745  10.479 -0.3775  0.8490  1.0643
  138SAPE   H2Y14990   1.408  -0.846  10.601 -1.8266 -0.0167 -0.2470
  138SAPE   C2314991   1.432  -0.257  10.184  0.9542  0.5991  0.0861
  138SAPE   H3R14992   1.377  -0.223  10.093 -0.2778  0.1378  0.6423
  138SAPE   H3S14993   1.400  -0.361  10.204 -2.4486  1.6051  0.1535
  138SAPE   C2414994   1.584  -0.249  10.156  0.1382  0.4075 -0.5225
  138SAPE   H4R14995   1.606  -0.329  10.081 -0.7047 -0.3496  0.0281
  138SAPE   H4S14996   1.643  -0.274  10.247 -0.4508 -0.8896 -0.4776
  138SAPE   C2514997   1.634  -0.119  10.105  0.7618  0.3549  0.0347
  138SAPE   H5R14998   1.610  -0.036  10.173  0.5252 -0.3619  0.8255
  138SAPE   C2614999   1.651  -0.081   9.980  0.5220  0.0348 -0.1002
  138SAPE   H6R15000   1.682   0.021   9.953  0.8098 -0.5473 -2.0394
  138SAPE   C2715001   1.660  -0.185   9.861 -0.2717 -0.0233  0.4765
  138SAPE   H7R15002   1.692  -0.288   9.890  1.5234  0.1904 -0.6865
  138SAPE   H7S15003   1.737  -0.146   9.792  0.5656  0.7224  1.8306
  138SAPE   C2815004   1.528  -0.198   9.789 -0.2439 -0.1744 -0.0002
  138SAPE   H8R15005   1.444  -0.233   9.850 -0.8585 -1.0493 -1.3389
  138SAPE   C2915006   1.513  -0.175   9.658 -0.0150  0.2123  0.2461
  138SAPE   H9R15007   1.410  -0.188   9.623  0.4818 -0.5070 -0.9804
  138SAPE  C21015008   1.608  -0.128   9.553  0.1439  0.8199 -0.5706
  138SAPE  H10R15009   1.624  -0.222   9.496  1.7677  1.7456 -1.6804
  138SAPE  H10S15010   1.713  -0.103   9.581 -0.1707  0.3819  1.0942
  138SAPE  C21115011   1.561  -0.010   9.476  0.0915  0.1927  0.3256
  138SAPE  H11R15012   1.538   0.078   9.538 -0.5041  0.1828  0.1216
  138SAPE  C21215013   1.532  -0.017   9.343  0.1735  0.0154  0.0484
  138SAPE  H12R15014   1.500   0.077   9.297  1.2980  1.0201  1.2948
  138SAPE  C21315015   1.540  -0.136   9.246  0.6794 -0.5135 -0.0389
  138SAPE  H13R15016   1.612  -0.213   9.280  1.2196  0.6182  1.4321
  138SAPE  H13S15017   1.577  -0.108   9.145  0.3131 -0.3598 -0.1336
  138SAPE  C21415018   1.394  -0.190   9.233 -0.9359  0.4409  0.7639
  138SAPE  H14R15019   1.364  -0.255   9.316 -1.8803  1.0631  0.9207
  138SAPE  C21515020   1.306  -0.163   9.131 -0.1257  0.0566  0.2363
  138SAPE  H15R15021   1.206  -0.207   9.129  1.1087 -2.8134 -1.7894
  138SAPE  C21615022   1.326  -0.074   9.013 -0.0454 -0.3619 -1.1405
  138SAPE  H16R15023   1.404   0.005   9.025 -1.0440  0.5463 -0.6011
  138SAPE  H16S15024   1.227  -0.025   9.005 -1.7137 -3.3627  0.3869
  138SAPE  C21715025   1.361  -0.141   8.880 -0.4343  0.0088  0.0731
  138SAPE  H17R15026   1.452  -0.200   8.906  0.3255 -0.3724 -3.1322
  138SAPE  H17S15027   1.394  -0.076   8.796  0.4155  0.7078  0.9372
  138SAPE  C21815028   1.241  -0.224   8.827  0.1161 -0.1364  0.1185
  138SAPE  H18R15029   1.174  -0.139   8.804 -2.7124 -2.7500 -1.7042
  138SAPE  H18S15030   1.181  -0.289   8.895  0.6559  0.2730  0.9902
  138SAPE  C21915031   1.265  -0.295   8.693  0.1123 -0.3718 -0.1014
  138SAPE  H19R15032   1.327  -0.385   8.711  0.2884 -0.4506 -1.0892
  138SAPE  H19S15033   1.322  -0.232   8.621  0.2273 -0.8245 -0.4060
  138SAPE  C22015034   1.138  -0.341   8.620  0.0637 -0.7568  0.1735
  138SAPE  H20R15035   1.160  -0.376   8.517 -1.4099  0.1439 -0.4676
  138SAPE  H20S15036   1.060  -0.262   8.615 -2.1886 -3.0008 -0.7662
  138SAPE  H20T15037   1.102  -0.432   8.673 -0.3015 -0.5642  0.2561
  138SAPE   C3315038   1.567  -0.709  10.541 -0.5163  0.5281  0.6987
  138SAPE   H3X15039   1.629  -0.754  10.622 -1.5933 -1.3079  0.5191
  138SAPE   H3Y15040   1.589  -0.600  10.553  3.0530  0.3349 -2.9379
  138SAPE   C3415041   1.610  -0.760  10.407  0.3105  1.2395 -0.0265
  138SAPE   H4X15042   1.559  -0.857  10.388  0.1274  1.4074 -0.4017
  138SAPE   H4Y15043   1.719  -0.781  10.410 -0.0266 -0.4206  1.5857
  138SAPE   C3515044   1.597  -0.669  10.285  0.2845 -0.1091 -0.0027
  138SAPE   H5X15045   1.686  -0.603  10.285  0.6476 -0.5825 -1.1744
  138SAPE   H5Y15046   1.506  -0.611  10.313  0.8852  0.0473  1.6574
  138SAPE   C3615047   1.574  -0.738  10.147 -0.2306  0.2360 -0.1739
  138SAPE   H6X15048   1.490  -0.810  10.146 -0.0318 -0.0263  0.8190
  138SAPE   H6Y15049   1.670  -0.783  10.114  1.5564  2.4602  1.7734
  138SAPE   C3715050   1.525  -0.638  10.047  0.3923  0.3819 -0.5491
  138SAPE   H7X15051   1.601  -0.558  10.032 -0.6714  1.4942 -0.1134
  138SAPE   H7Y15052   1.430  -0.589  10.076  0.7263  0.5015  0.3508
  138SAPE   C3815053   1.503  -0.718   9.919  0.6182  0.3786  0.3356
  138SAPE   H8X15054   1.422  -0.791   9.938  0.5168  0.4983  0.3660
  138SAPE   H8Y15055   1.595  -0.768   9.882 -0.1343 -1.5762  1.1036
  138SAPE   C3915056   1.443  -0.621   9.812  0.7373  0.2135 -0.4213
  138SAPE   H9X15057   1.484  -0.526   9.854  1.6163 -1.4263  2.5363
  138SAPE   H9Y15058   1.335  -0.617   9.838  0.7328  2.0763 -0.6557
  138SAPE  C31015059   1.464  -0.649   9.665  0.0508  0.2438 -0.0897
  138SAPE  H10X15060   1.400  -0.737   9.640 -1.4616  1.4085 -0.3945
  138SAPE  H10Y15061   1.570  -0.679   9.652  0.0463 -0.0895  0.6131
  138SAPE  C31115062   1.440  -0.529   9.571  0.8528 -0.6518  0.2048
  138SAPE  H11X15063   1.509  -0.455   9.618 -1.6330  0.6450  1.9812
  138SAPE  H11Y15064   1.331  -0.504   9.570  0.6230 -1.3261  2.8355
  138SAPE  C31215065   1.474  -0.552   9.426  0.4211 -0.6404  0.1532
  138SAPE  H12X15066   1.563  -0.618   9.427 -0.6025 -2.0726  3.3245
  138SAPE  H12Y15067   1.504  -0.460   9.371 -0.9388 -0.1830  0.1465
  138SAPE  C31315068   1.353  -0.616   9.346  0.5103 -0.0695  0.4678
  138SAPE  H13X15069   1.272  -0.540   9.348  0.8397  0.2965 -0.2078
  138SAPE  H13Y15070   1.315  -0.713   9.385  1.2007 -1.0325 -1.1935
  138SAPE  C31415071   1.384  -0.627   9.192 -0.7108 -0.5307 -1.0855
  138SAPE  H14X15072   1.470  -0.696   9.177  0.0304 -0.1345  1.1220
  138SAPE  H14Y15073   1.414  -0.533   9.139  0.9426 -0.6558 -0.3954
  138SAPE  C31515074   1.253  -0.662   9.118  0.1899  0.2555 -0.3729
  138SAPE  H15X15075   1.165  -0.615   9.168 -0.1047  0.9208 -1.5154
  138SAPE  H15Y15076   1.241  -0.772   9.135  1.3571  0.1462 -0.2327
  138SAPE  C31615077   1.266  -0.623   8.971 -0.1058 -0.7314  0.4442
  138SAPE  H16X15078   1.357  -0.661   8.919  0.0036 -0.8060  0.6947
  138SAPE  H16Y15079   1.276  -0.512   8.969  0.9474 -0.8021  1.3453
  138SAPE  C31715080   1.147  -0.666   8.883  0.5676  0.3523  0.1459
  138SAPE  H17X15081   1.142  -0.777   8.883  1.6147  0.1913  5.1815
  138SAPE  H17Y15082   1.162  -0.633   8.778 -0.9593  0.5505 -0.0140
  138SAPE  C31815083   1.019  -0.610   8.939 -0.4200 -0.9675 -0.8462
  138SAPE  H18X15084   0.989  -0.671   9.027 -0.9306  1.7938  0.9784
  138SAPE  H18Y15085   0.937  -0.603   8.865  0.5274  2.2906 -1.6752
  138SAPE  H18Z15086   1.036  -0.506   8.974 -2.2143 -0.6480 -0.8758
  139SAPE     N15087   0.157   4.891  10.899  0.0451 -0.2463 -1.0479
  139SAPE   HN115088   0.222   4.970  10.884  0.3492 -0.7570 -2.5542
  139SAPE   HN215089   0.107   4.920  10.986  0.2219  3.3519 -2.0673
  139SAPE   HN315090   0.221   4.814  10.927 -0.6687 -0.8067 -0.9441
  139SAPE   C1215091   0.059   4.849  10.790  0.2592 -0.2502  0.6436
  139SAPE  H12A15092  -0.006   4.936  10.765  0.3298 -0.3506  0.1202
  139SAPE  H12B15093  -0.005   4.771  10.837 -0.1802  0.7238  1.6974
  139SAPE   C1115094   0.134   4.814  10.659  0.2552  0.3390  0.3888
  139SAPE  H11A15095   0.186   4.904  10.620 -0.6487  1.1431  1.0280
  139SAPE  H11B15096   0.070   4.774  10.578  1.0564 -0.2809  0.0464
  139SAPE     P15097   0.381   4.712  10.635 -0.2441  0.7205  0.1364
  139SAPE   O1315098   0.450   4.823  10.703  0.1780 -0.8295 -0.1529
  139SAPE   O1415099   0.442   4.576  10.649 -0.4512  0.0357  0.0522
  139SAPE   O1215100   0.231   4.709  10.689  0.4540 -0.5508  0.6198
  139SAPE   O1115101   0.369   4.749  10.483  0.7091  0.5152  0.2348
  139SAPE    C115102   0.471   4.794  10.402  0.1077  0.1069  0.1483
  139SAPE    HA15103   0.497   4.899  10.427  0.7319  0.4902 -2.0045
  139SAPE    HB15104   0.567   4.741  10.420 -1.3858 -2.3440  1.1507
  139SAPE    C215105   0.449   4.785  10.242 -0.4397  0.4491 -0.0403
  139SAPE    HS15106   0.540   4.824  10.192  0.0993 -0.6362  0.0829
  139SAPE   O2115107   0.333   4.862  10.205 -0.2675 -0.5136 -0.1854
  139SAPE   C2115108   0.337   4.998  10.213 -0.5525  0.5565 -0.3076
  139SAPE   O2215109   0.424   5.065  10.257  0.1591  0.1567 -0.2602
  139SAPE   C2215110   0.213   5.043  10.146  0.6827 -0.0500  0.0020
  139SAPE   H2R15111   0.127   4.996  10.198  1.8507 -2.1942  0.0640
  139SAPE   H2S15112   0.196   5.153  10.145 -2.1910 -0.4596 -0.2461
  139SAPE    C315113   0.432   4.642  10.202  0.3961  0.6410  0.9203
  139SAPE    HX15114   0.349   4.599  10.263  0.0837 -0.4767 -0.2786
  139SAPE    HY15115   0.523   4.582  10.225  0.5200 -0.1184 -1.4129
  139SAPE   O3115116   0.401   4.629  10.063 -0.4179  0.7765 -0.0658
  139SAPE   C3115117   0.337   4.519  10.022  0.1269 -0.7624 -0.1335
  139SAPE   O3215118   0.302   4.431  10.097 -0.2583 -0.7510  0.1149
  139SAPE   C3215119   0.309   4.535   9.871 -0.5016  0.3472 -0.0737
  139SAPE   H2X15120   0.387   4.483   9.811  1.1366  0.4422  1.9351
  139SAPE   H2Y15121   0.310   4.643   9.846 -0.1033  0.2951 -0.2858
  139SAPE   C2315122   0.210   4.993  10.004  0.7393  0.2940 -1.0004
  139SAPE   H3R15123   0.110   5.011   9.958  0.3259 -1.1175 -0.6769
  139SAPE   H3S15124   0.219   4.883   9.991 -2.2349  0.0402 -1.3360
  139SAPE   C2415125   0.298   5.075   9.908 -0.7503 -0.6395  0.1708
  139SAPE   H4R15126   0.398   5.082   9.955 -1.8101  1.7738  2.1348
  139SAPE   H4S15127   0.254   5.176   9.901  2.3243  0.9482  2.7683
  139SAPE   C2515128   0.317   5.013   9.766 -0.3252 -0.2144  0.2123
  139SAPE   H5R15129   0.343   4.906   9.764 -1.0189 -0.3585 -2.6232
  139SAPE   C2615130   0.296   5.073   9.646 -0.3853  0.4304  0.1184
  139SAPE   H6R15131   0.324   5.009   9.561  1.2059  2.1849 -0.6936
  139SAPE   C2715132   0.244   5.204   9.617  0.0117  0.2731 -0.5356
  139SAPE   H7R15133   0.319   5.258   9.555 -0.5043  1.4629 -0.1443
  139SAPE   H7S15134   0.244   5.259   9.714  1.3818 -1.0599  0.2396
  139SAPE   C2815135   0.101   5.216   9.569  0.2693  0.4427 -0.2916
  139SAPE   H8R15136   0.043   5.277   9.639 -0.0919  1.0112 -1.0863
  139SAPE   C2915137   0.050   5.177   9.452  0.2545 -0.1511  0.6879
  139SAPE   H9R15138  -0.058   5.192   9.437  0.3759  1.2751  1.1132
  139SAPE  C21015139   0.120   5.102   9.342 -0.6568  0.1993 -0.5096
  139SAPE  H10R15140   0.209   5.049   9.380  1.4276  3.4145 -0.6538
  139SAPE  H10S15141   0.168   5.186   9.287  0.1717  0.1863  0.1928
  139SAPE  C21115142   0.050   4.995   9.265  0.5248  0.0455  0.5034
  139SAPE  H11R15143  -0.034   4.953   9.323  0.7512 -0.2928  0.5868
  139SAPE  C21215144   0.067   4.957   9.142  0.5693 -0.4791 -0.6123
  139SAPE  H12R15145  -0.006   4.884   9.105 -0.9584 -0.6755  2.6036
  139SAPE  C21315146   0.169   5.009   9.045  0.6250 -0.7348  0.2106
  139SAPE  H13R15147   0.227   4.915   9.035  0.8673 -0.3476 -2.5142
  139SAPE  H13S15148   0.241   5.081   9.089 -1.2160  0.4054  1.4154
  139SAPE  C21415149   0.110   5.057   8.913  0.7734 -0.1700 -0.2783
  139SAPE  H14R15150   0.068   5.158   8.922 -0.7518 -0.6407 -2.0277
  139SAPE  C21515151   0.085   4.982   8.805 -0.1028  0.1683  0.0843
  139SAPE  H15R15152   0.045   5.032   8.716 -0.3903 -1.9248 -1.0110
  139SAPE  C21615153   0.123   4.833   8.775  0.1375 -1.1183 -0.1492
  139SAPE  H16R15154   0.193   4.787   8.848  1.6160 -0.1726 -0.9683
  139SAPE  H16S15155   0.180   4.825   8.680 -0.5560  2.9904 -0.9960
  139SAPE  C21715156  -0.004   4.745   8.768 -0.3059  0.0169  0.3769
  139SAPE  H17R15157  -0.067   4.751   8.860 -0.2105  1.5034  0.3595
  139SAPE  H17S15158   0.036   4.644   8.746  1.4272  0.5984  0.8100
  139SAPE  C21815159  -0.086   4.783   8.639 -0.3124 -0.2040  0.0749
  139SAPE  H18R15160  -0.021   4.814   8.554  0.3646  0.5197  0.8528
  139SAPE  H18S15161  -0.156   4.864   8.669  1.2486  1.2847 -0.1963
  139SAPE  C21915162  -0.176   4.661   8.594  0.1456 -0.4454 -0.1331
  139SAPE  H19R15163  -0.241   4.636   8.681 -0.8098 -0.9638 -0.9943
  139SAPE  H19S15164  -0.104   4.578   8.575  1.2098 -0.0902  2.1045
  139SAPE  C22015165  -0.262   4.683   8.469 -0.0277  0.4671 -0.3846
  139SAPE  H20R15166  -0.322   4.595   8.441  0.7373 -0.5302  1.0346
  139SAPE  H20S15167  -0.188   4.701   8.388  0.8886  0.1809  0.3823
  139SAPE  H20T15168  -0.334   4.768   8.465  0.6265  1.0957  0.9194
  139SAPE   C3315169   0.178   4.467   9.819  0.2563 -0.5894 -0.2112
  139SAPE   H3X15170   0.130   4.528   9.740 -0.3125  2.6927  2.5467
  139SAPE   H3Y15171   0.105   4.474   9.903 -0.3708 -0.0870 -0.7859
  139SAPE   C3415172   0.202   4.320   9.772  0.1357  0.0977 -0.0600
  139SAPE   H4X15173   0.114   4.254   9.786 -1.1285  1.8827  0.4989
  139SAPE   H4Y15174   0.281   4.264   9.826  1.7042  0.9108 -1.4520
  139SAPE   C3515175   0.233   4.301   9.611  0.3217  0.1204  0.1071
  139SAPE   H5X15176   0.304   4.383   9.584 -0.9522  0.5434 -1.9955
  139SAPE   H5Y15177   0.133   4.321   9.568  0.3079 -1.2809 -0.5345
  139SAPE   C3615178   0.292   4.166   9.582  0.1396 -0.2125 -0.3344
  139SAPE   H6X15179   0.229   4.083   9.622 -2.0136  0.4301 -2.2652
  139SAPE   H6Y15180   0.390   4.151   9.631 -0.6936 -2.5247  0.7124
  139SAPE   C3715181   0.295   4.141   9.432 -0.0502 -0.2311  0.0307
  139SAPE   H7X15182   0.359   4.226   9.398  0.0293 -0.5186 -0.5429
  139SAPE   H7Y15183   0.192   4.156   9.394 -0.3097  1.6602  1.3884
  139SAPE   C3815184   0.357   4.005   9.401  0.3156  0.4061 -0.6083
  139SAPE   H8X15185   0.448   3.996   9.465  0.4854  1.4874 -0.6883
  139SAPE   H8Y15186   0.393   4.008   9.296 -1.2621 -0.5773 -1.1806
  139SAPE   C3915187   0.268   3.876   9.416  0.1221 -0.3226  0.2217
  139SAPE   H9X15188   0.192   3.863   9.336 -0.8367  0.2877  1.0200
  139SAPE   H9Y15189   0.202   3.890   9.505  0.8166  0.9799  0.5457
  139SAPE  C31015190   0.339   3.738   9.425 -0.1221  0.4254 -0.7133
  139SAPE  H10X15191   0.259   3.668   9.459  1.1129 -0.7915 -0.2650
  139SAPE  H10Y15192   0.424   3.727   9.496 -0.0473 -5.0632 -1.3842
  139SAPE  C31115193   0.400   3.683   9.294 -0.2904  0.5305  0.1029
  139SAPE  H11X15194   0.434   3.579   9.309 -1.4320 -0.0424 -1.1623
  139SAPE  H11Y15195   0.488   3.747   9.271 -0.2851  0.4076 -0.2222
  139SAPE  C31215196   0.308   3.672   9.176 -0.5117 -0.0948 -0.7033
  139SAPE  H12X15197   0.271   3.775   9.157  0.4651  0.4532  0.3248
  139SAPE  H12Y15198   0.211   3.620   9.187 -1.8252  2.1272 -1.4274
  139SAPE  C31315199   0.396   3.628   9.055  0.5973  0.3706 -0.3459
  139SAPE  H13X15200   0.434   3.532   9.096  0.7195  0.6174  0.1188
  139SAPE  H13Y15201   0.480   3.696   9.029  0.7698  0.5799  0.7597
  139SAPE  C31415202   0.313   3.609   8.930  0.2248  0.0400  0.3285
  139SAPE  H14X15203   0.250   3.698   8.909 -1.0731 -1.7001 -3.7568
  139SAPE  H14Y15204   0.239   3.528   8.947  1.4854 -1.2943 -0.4143
  139SAPE  C31515205   0.389   3.551   8.813  0.0038 -0.7570 -0.5326
  139SAPE  H15X15206   0.437   3.454   8.836  0.2089 -0.7633 -0.9821
  139SAPE  H15Y15207   0.469   3.627   8.800  0.4692 -0.8436  1.6221
  139SAPE  C31615208   0.319   3.571   8.679  0.0923  0.2282 -0.0629
  139SAPE  H16X15209   0.274   3.672   8.667 -0.5309 -0.0872 -0.4534
  139SAPE  H16Y15210   0.388   3.553   8.594 -0.5871  1.2337 -0.8439
  139SAPE  C31715211   0.217   3.458   8.655  0.6743  0.2531 -0.1934
  139SAPE  H17X15212   0.138   3.462   8.734  1.5887 -0.9752  0.7970
  139SAPE  H17Y15213   0.270   3.361   8.669 -1.6290 -0.9805  0.2824
  139SAPE  C31815214   0.154   3.476   8.517 -0.4695  0.1290 -0.0783
  139SAPE  H18X15215   0.080   3.559   8.511 -0.0388  0.5039 -0.1843
  139SAPE  H18Y15216   0.098   3.383   8.493  3.6750 -1.8161 -2.6575
  139SAPE  H18Z15217   0.228   3.492   8.436  3.2227 -2.0582  2.6853
  140SAPE     N15218   3.633   0.810  11.247  0.7756 -0.1769 -0.0091
  140SAPE   HN115219   3.692   0.896  11.245  0.1048  0.2681 -2.8105
  140SAPE   HN215220   3.601   0.785  11.343 -2.0822  1.5540 -0.4753
  140SAPE   HN315221   3.681   0.726  11.207  2.2799  0.2618  0.8532
  140SAPE   C1215222   3.518   0.859  11.166  0.4805  0.5409 -0.9289
  140SAPE  H12A15223   3.433   0.788  11.159 -0.0797  0.7582  2.6620
  140SAPE  H12B15224   3.566   0.864  11.066  0.7249 -0.8088 -0.8842
  140SAPE   C1115225   3.449   0.987  11.215 -0.7950 -0.0101 -0.5020
  140SAPE  H11A15226   3.400   0.966  11.313  0.3760 -1.8769 -0.2855
  140SAPE  H11B15227   3.367   1.028  11.153 -1.4118 -0.1476  0.2102
  140SAPE     P15228   3.580   1.210  11.162 -0.0444  0.0551 -0.3121
  140SAPE   O1315229   3.471   1.314  11.170  0.0640 -0.3895  0.1595
  140SAPE   O1415230   3.717   1.259  11.196  0.0632 -0.1416 -0.1269
  140SAPE   O1215231   3.556   1.083  11.245 -0.3350 -0.0855  0.4330
  140SAPE   O1115232   3.581   1.155  11.019 -0.0818  0.2910  0.1521
  140SAPE    C115233   3.467   1.161  10.927  0.0212 -0.1671  0.0570
  140SAPE    HA15234   3.373   1.116  10.964 -1.1035  0.6334 -1.7609
  140SAPE    HB15235   3.441   1.266  10.902 -2.0524 -0.6763  0.0545
  140SAPE    C215236   3.486   1.084  10.791  0.3469  0.0545  0.3410
  140SAPE    HS15237   3.502   0.979  10.823 -0.1447 -0.0734  0.1673
  140SAPE   O2115238   3.593   1.136  10.711  0.2426 -0.7291 -0.1374
  140SAPE   C2115239   3.712   1.083  10.717  0.1649  0.6193  0.3317
  140SAPE   O2215240   3.739   0.979  10.783 -0.0076  0.2499 -0.5926
  140SAPE   C2215241   3.806   1.139  10.607 -0.4734 -0.0448  0.0765
  140SAPE   H2R15242   3.868   1.220  10.651 -0.1267  0.3359 -1.0846
  140SAPE   H2S15243   3.876   1.061  10.573  0.3020  1.3003 -1.5243
  140SAPE    C315244   3.358   1.100  10.708  0.6306 -0.0333  0.7163
  140SAPE    HX15245   3.334   1.208  10.695  0.7367 -0.1725 -0.6158
  140SAPE    HY15246   3.267   1.056  10.754  0.4737 -0.1743  0.2723
  140SAPE   O3115247   3.378   1.045  10.579  0.2742 -0.1175  0.2664
  140SAPE   C3115248   3.362   0.912  10.570 -0.2485 -0.1064 -0.4546
  140SAPE   O3215249   3.352   0.830  10.662 -0.8776  0.3101  0.4970
  140SAPE   C3215250   3.363   0.888  10.422 -0.3978  0.2717 -1.0179
  140SAPE   H2X15251   3.461   0.919  10.380 -0.3006  1.3831  0.0063
  140SAPE   H2Y15252   3.277   0.945  10.380 -0.7447  0.2724 -0.3197
  140SAPE   C2315253   3.735   1.199  10.478 -0.7399 -0.4413 -0.2197
  140SAPE   H3R15254   3.810   1.264  10.428 -0.3749 -1.1509 -0.5994
  140SAPE   H3S15255   3.659   1.272  10.512  0.4961  0.5977  0.3735
  140SAPE   C2415256   3.679   1.088  10.379  0.4916  0.2663 -1.3271
  140SAPE   H4R15257   3.640   1.007  10.443  1.6303  0.3816 -0.4659
  140SAPE   H4S15258   3.769   1.054  10.324 -0.4911  0.0543 -2.8116
  140SAPE   C2515259   3.583   1.147  10.294  0.3867 -0.4278  0.4222
  140SAPE   H5R15260   3.512   1.211  10.349  0.4995  0.1140 -0.0630
  140SAPE   C2615261   3.573   1.135  10.159 -0.0077 -0.0960 -0.8493
  140SAPE   H6R15262   3.487   1.183  10.110  0.0581  0.1115 -0.7586
  140SAPE   C2715263   3.664   1.055  10.067  0.5650 -0.5187 -0.3799
  140SAPE   H7R15264   3.754   1.014  10.118  0.9701 -0.3300 -0.9390
  140SAPE   H7S15265   3.722   1.129  10.009  0.5189 -0.0037  0.2262
  140SAPE   C2815266   3.628   0.935   9.988  0.4234  0.1163 -0.2492
  140SAPE   H8R15267   3.543   0.883  10.036  0.0642  1.5194  0.6850
  140SAPE   C2915268   3.680   0.887   9.875  0.0306 -0.2933 -0.6301
  140SAPE   H9R15269   3.624   0.808   9.822  0.9713 -2.7924  1.9922
  140SAPE  C21015270   3.793   0.947   9.792 -0.3993  0.1357 -0.6841
  140SAPE  H10R15271   3.846   1.028   9.847  1.8513 -1.5920 -0.2073
  140SAPE  H10S15272   3.748   0.983   9.697 -1.3106 -1.8463 -1.0392
  140SAPE  C21115273   3.888   0.838   9.742 -0.7624  0.1459 -0.2525
  140SAPE  H11R15274   3.969   0.808   9.810 -2.3445  0.7655  1.9668
  140SAPE  C21215275   3.889   0.772   9.625 -0.2527 -0.3564  0.6014
  140SAPE  H12R15276   3.957   0.690   9.595  0.1338  0.1297  0.1347
  140SAPE  C21315277   3.790   0.796   9.511 -0.7332  0.4552  0.7389
  140SAPE  H13R15278   3.695   0.830   9.558 -0.6791 -0.3867  1.4608
  140SAPE  H13S15279   3.765   0.709   9.447 -1.7112  0.5868  0.9286
  140SAPE  C21415280   3.842   0.911   9.435 -0.4707 -0.2197 -0.0016
  140SAPE  H14R15281   3.808   1.008   9.473 -1.2121 -0.8039  0.8511
  140SAPE  C21515282   3.940   0.889   9.348  0.6713 -0.2055 -0.1846
  140SAPE  H15R15283   3.985   0.968   9.286  3.1897 -1.2375  0.2706
  140SAPE  C21615284   4.004   0.764   9.307 -0.8430  0.6403 -0.0202
  140SAPE  H16R15285   3.935   0.678   9.322  1.1990 -0.8227  1.1966
  140SAPE  H16S15286   4.095   0.747   9.368  0.2484  1.8869 -1.2590
  140SAPE  C21715287   4.056   0.788   9.157 -0.5001  0.4755  0.2333
  140SAPE  H17R15288   4.131   0.708   9.138  0.1599  0.7949  1.4686
  140SAPE  H17S15289   4.099   0.890   9.153 -0.7141  0.5324 -0.8010
  140SAPE  C21815290   3.945   0.773   9.053 -0.8886 -0.2340 -0.6959
  140SAPE  H18R15291   3.871   0.852   9.075  1.0283  1.0845  1.1915
  140SAPE  H18S15292   3.895   0.675   9.071  0.7426 -0.8029  0.8490
  140SAPE  C21915293   3.991   0.776   8.911 -0.7185 -0.8592  0.1994
  140SAPE  H19R15294   3.910   0.748   8.841 -2.1817  3.3569  0.0849
  140SAPE  H19S15295   4.078   0.709   8.893  0.3613  0.1657  1.4524
  140SAPE  C22015296   4.038   0.913   8.870  0.2552 -0.3617 -0.1275
  140SAPE  H20R15297   4.090   0.911   8.772  0.5714  0.1430  0.0239
  140SAPE  H20S15298   4.122   0.947   8.934  0.8755  0.7117 -1.4733
  140SAPE  H20T15299   3.958   0.990   8.872 -1.2812 -1.8744 -1.4652
  140SAPE   C3315300   3.339   0.738  10.390 -0.5292 -0.0374  0.1544
  140SAPE   H3X15301   3.235   0.713  10.416 -1.2731  1.8375 -0.8946
  140SAPE   H3Y15302   3.404   0.662  10.438  0.5792  0.1153 -1.0475
  140SAPE   C3415303   3.346   0.711  10.238  0.0427 -0.2377 -0.0745
  140SAPE   H4X15304   3.325   0.602  10.232  2.1563 -0.5963 -1.2900
  140SAPE   H4Y15305   3.451   0.724  10.206  0.0056 -1.9659 -0.9450
  140SAPE   C3515306   3.259   0.799  10.146 -0.2510  0.3187  0.8635
  140SAPE   H5X15307   3.317   0.894  10.143  0.5367 -0.2181 -1.4007
  140SAPE   H5Y15308   3.159   0.815  10.191 -0.4799  2.3145 -0.2979
  140SAPE   C3615309   3.227   0.735  10.020 -0.9064 -0.3677 -0.4749
  140SAPE   H6X15310   3.133   0.768   9.970 -0.6619 -1.2412 -1.5461
  140SAPE   H6Y15311   3.206   0.629  10.046 -2.5781 -0.0051 -0.2532
  140SAPE   C3715312   3.339   0.753   9.919  0.4347 -0.2373  0.8556
  140SAPE   H7X15313   3.439   0.719   9.955 -0.2176 -0.6836  2.2804
  140SAPE   H7Y15314   3.346   0.864   9.916 -1.0989 -0.1309  1.3877
  140SAPE   C3815315   3.319   0.681   9.786 -0.1644  0.3056 -0.1178
  140SAPE   H8X15316   3.231   0.725   9.734 -0.3863  2.2527  1.8266
  140SAPE   H8Y15317   3.306   0.572   9.798  1.7555 -0.1858 -2.1067
  140SAPE   C3915318   3.426   0.705   9.677 -0.6613  1.1534  0.6027
  140SAPE   H9X15319   3.518   0.645   9.691 -2.1125 -0.7881  2.0333
  140SAPE   H9Y15320   3.459   0.812   9.681 -0.4454  1.1948 -1.7956
  140SAPE  C31015321   3.373   0.681   9.536  0.5886 -0.5030  0.1433
  140SAPE  H10X15322   3.444   0.718   9.460  1.3293 -0.5140  0.8214
  140SAPE  H10Y15323   3.279   0.740   9.530  1.1307  0.1767 -2.2048
  140SAPE  C31115324   3.332   0.533   9.504 -1.0837  0.8773  0.7585
  140SAPE  H11X15325   3.243   0.498   9.559 -0.8589 -0.2848  0.4042
  140SAPE  H11Y15326   3.416   0.468   9.538  0.0333  1.3217 -1.0808
  140SAPE  C31215327   3.310   0.495   9.352 -0.1106  0.1546 -0.0686
  140SAPE  H12X15328   3.240   0.573   9.315 -0.5786 -1.0334 -1.7311
  140SAPE  H12Y15329   3.251   0.401   9.355  0.6734 -0.3075  1.5480
  140SAPE  C31315330   3.431   0.487   9.257  0.2219 -0.2537 -1.1674
  140SAPE  H13X15331   3.494   0.398   9.276 -0.8013 -0.7909 -0.2268
  140SAPE  H13Y15332   3.494   0.573   9.290  0.5355 -2.0476  3.3305
  140SAPE  C31415333   3.400   0.500   9.108 -0.2807 -0.0713  0.2550
  140SAPE  H14X15334   3.323   0.580   9.098 -0.9193 -0.8087 -0.9215
  140SAPE  H14Y15335   3.349   0.412   9.063 -0.7509  0.6175 -0.5980
  140SAPE  C31515336   3.526   0.513   9.017  0.5956 -0.4829  0.6723
  140SAPE  H15X15337   3.616   0.461   9.057 -0.1572 -1.4134  1.1813
  140SAPE  H15Y15338   3.559   0.614   8.986 -0.9080 -0.5390 -1.1974
  140SAPE  C31615339   3.504   0.435   8.878  0.3287  0.2473 -0.0605
  140SAPE  H16X15340   3.413   0.474   8.827  1.4112 -0.2297 -2.4098
  140SAPE  H16Y15341   3.480   0.329   8.896  0.5766  0.0269 -1.0105
  140SAPE  C31715342   3.635   0.425   8.801  0.2120  0.3707 -0.9559
  140SAPE  H17X15343   3.676   0.525   8.773  0.0779  0.2857 -1.4525
  140SAPE  H17Y15344   3.606   0.374   8.707 -0.2120  0.8811 -1.1044
  140SAPE  C31815345   3.750   0.338   8.864 -0.2800 -0.4722  0.1589
  140SAPE  H18X15346   3.802   0.281   8.784  1.8363  1.1121  0.3580
  140SAPE  H18Y15347   3.714   0.262   8.936  0.4277 -0.8568  0.1176
  140SAPE  H18Z15348   3.811   0.405   8.929 -1.7334 -1.7761  2.9317
  141SAPE     N15349   3.435   1.665  10.830 -0.1813  0.2381  0.4001
  141SAPE   HN115350   3.417   1.597  10.906  1.0624  0.4519  0.8886
  141SAPE   HN215351   3.517   1.718  10.865  2.3932 -1.7982 -2.2806
  141SAPE   HN315352   3.352   1.720  10.802 -1.3873 -1.2458  0.9813
  141SAPE   C1215353   3.477   1.575  10.718  0.0651 -0.2478 -0.1529
  141SAPE  H12A15354   3.503   1.631  10.626 -2.2617 -1.1073 -1.3400
  141SAPE  H12B15355   3.391   1.508  10.700  0.4209 -0.6125 -0.5080
  141SAPE   C1115356   3.601   1.502  10.769  0.2812  0.7252 -0.3250
  141SAPE  H11A15357   3.638   1.435  10.689 -0.5718  2.8146 -2.5389
  141SAPE  H11B15358   3.574   1.440  10.857 -0.4116  1.8582  0.2763
  141SAPE     P15359   3.854   1.556  10.824  0.3554 -0.0214 -0.3555
  141SAPE   O1315360   3.924   1.681  10.828  0.0249 -0.3553  0.3222
  141SAPE   O1415361   3.875   1.477  10.947  0.3004  0.6480 -0.1563
  141SAPE   O1215362   3.702   1.596  10.806  0.0701 -0.3117  0.4716
  141SAPE   O1115363   3.887   1.466  10.702  0.3803  0.3517 -0.3151
  141SAPE    C115364   3.976   1.527  10.601  0.0960  0.4030  0.6309
  141SAPE    HA15365   4.065   1.580  10.641  1.0890  0.2987 -1.3572
  141SAPE    HB15366   4.006   1.444  10.534  0.1399  0.5854  0.4227
  141SAPE    C215367   3.898   1.619  10.505 -0.2869  0.2814  0.1568
  141SAPE    HS15368   3.831   1.680  10.569 -1.2319 -1.0133  0.4127
  141SAPE   O2115369   3.815   1.531  10.427  0.2485  0.3087  0.7942
  141SAPE   C2115370   3.726   1.586  10.344 -0.0444  0.0063  0.5001
  141SAPE   O2215371   3.697   1.704  10.340 -0.2749 -0.8472  0.0238
  141SAPE   C2215372   3.665   1.486  10.261 -0.3375 -0.1473 -0.2785
  141SAPE   H2R15373   3.731   1.397  10.250  0.7354  0.7409 -1.1805
  141SAPE   H2S15374   3.570   1.459  10.312 -0.5284  0.3141 -0.3906
  141SAPE    C315375   3.992   1.710  10.418 -0.1639  0.0193  0.1116
  141SAPE    HX15376   4.066   1.759  10.485 -0.0875  2.8396 -1.9471
  141SAPE    HY15377   3.931   1.781  10.359 -0.2717  0.5284  0.8327
  141SAPE   O3115378   4.071   1.630  10.335 -0.4481 -0.2038  0.4986
  141SAPE   C3115379   4.167   1.703  10.268 -0.4988  0.3871  0.1652
  141SAPE   O3215380   4.187   1.821  10.287  0.3677 -0.4223 -0.2663
  141SAPE   C3215381   4.232   1.616  10.159 -0.6955 -0.1228 -0.3676
  141SAPE   H2X15382   4.237   1.508  10.183 -0.1429 -0.3525 -1.4886
  141SAPE   H2Y15383   4.335   1.652  10.143 -1.2898  2.2900  0.8838
  141SAPE   C2315384   3.645   1.541  10.109  0.1773  0.4604 -0.1039
  141SAPE   H3R15385   3.605   1.644  10.112  0.6383  0.5968  1.9074
  141SAPE   H3S15386   3.557   1.488  10.065  0.1537  0.3977  0.0184
  141SAPE   C2415387   3.775   1.536  10.023  0.3621  0.0830 -0.5625
  141SAPE   H4R15388   3.846   1.601  10.078  0.9349 -0.6788 -0.3882
  141SAPE   H4S15389   3.759   1.588   9.927  2.1800  3.1375  0.7130
  141SAPE   C2515390   3.837   1.399  10.013  0.3775  0.4360 -0.3354
  141SAPE   H5R15391   3.887   1.357  10.101 -2.2859  0.5384  1.2861
  141SAPE   C2615392   3.860   1.333   9.895  0.4837 -0.4840 -0.1954
  141SAPE   H6R15393   3.912   1.236   9.900  0.7572 -0.3196  0.1495
  141SAPE   C2715394   3.827   1.380   9.754 -0.2380 -0.4789 -0.4945
  141SAPE   H7R15395   3.807   1.489   9.743 -3.1264 -0.8765  0.5301
  141SAPE   H7S15396   3.723   1.340   9.754 -1.3860  2.3194  1.8708
  141SAPE   C2815397   3.918   1.315   9.646  0.2482 -0.5314  0.0297
  141SAPE   H8R15398   4.016   1.285   9.688  0.2258  0.0941  0.5338
  141SAPE   C2915399   3.889   1.290   9.522 -0.1260 -0.2908  0.4449
  141SAPE   H9R15400   3.969   1.240   9.466  1.7733  1.4324  1.5511
  141SAPE  C21015401   3.763   1.325   9.449 -0.1768 -0.5553  0.2417
  141SAPE  H10R15402   3.683   1.305   9.524  0.0199  2.1352  1.2572
  141SAPE  H10S15403   3.751   1.251   9.367  2.5009  1.5154 -2.1099
  141SAPE  C21115404   3.749   1.455   9.384  0.5314 -0.4181  0.1854
  141SAPE  H11R15405   3.779   1.545   9.440 -2.1497  0.3067  0.5194
  141SAPE  C21215406   3.705   1.482   9.261 -0.0398  0.0784  0.7729
  141SAPE  H12R15407   3.693   1.589   9.237  0.7035  0.3538  1.6088
  141SAPE  C21315408   3.659   1.383   9.149 -0.1478 -0.1990 -0.6103
  141SAPE  H13R15409   3.549   1.380   9.165 -0.3367  2.4383 -1.1514
  141SAPE  H13S15410   3.699   1.282   9.171  0.9957  0.2029 -0.8422
  141SAPE  C21415411   3.714   1.425   9.016  0.0036 -0.1681 -0.1025
  141SAPE  H14R15412   3.807   1.484   9.022 -0.7465  0.9822  0.3365
  141SAPE  C21515413   3.672   1.392   8.897  0.9801 -0.0533 -0.1250
  141SAPE  H15R15414   3.722   1.435   8.809 -0.8027  0.5518 -0.8633
  141SAPE  C21615415   3.558   1.309   8.865  0.5194  0.0073 -0.2268
  141SAPE  H16R15416   3.490   1.373   8.806 -1.1556  1.2345  2.9476
  141SAPE  H16S15417   3.506   1.266   8.954  3.2732  0.0537  1.4632
  141SAPE  C21715418   3.602   1.194   8.776  0.3331  0.4303  0.3328
  141SAPE  H17R15419   3.521   1.118   8.775 -0.0621  0.8589  0.1531
  141SAPE  H17S15420   3.691   1.145   8.821  0.7490  0.6146 -0.2870
  141SAPE  C21815421   3.636   1.235   8.626 -0.0767 -0.2091 -0.3398
  141SAPE  H18R15422   3.731   1.289   8.608  0.4263 -0.9557  0.0381
  141SAPE  H18S15423   3.561   1.310   8.594  1.0546  0.7864 -0.7074
  141SAPE  C21915424   3.625   1.111   8.538  0.5837 -0.2678 -0.3544
  141SAPE  H19R15425   3.666   1.140   8.439 -0.3530  0.7798 -0.4377
  141SAPE  H19S15426   3.517   1.088   8.528  0.0841  2.1606 -0.9457
  141SAPE  C22015427   3.713   0.992   8.587  1.1653 -0.4534 -1.0880
  141SAPE  H20R15428   3.823   1.006   8.601  0.7740 -0.4802  2.7124
  141SAPE  H20S15429   3.716   0.932   8.494 -1.7372 -0.6297 -1.1001
  141SAPE  H20T15430   3.672   0.932   8.671 -1.2308  2.4785 -0.0784
  141SAPE   C3315431   4.170   1.640  10.026  0.2374 -0.4255 -0.5488
  141SAPE   H3X15432   4.150   1.749  10.023 -0.1983 -0.5252 -1.3786
  141SAPE   H3Y15433   4.067   1.596  10.025 -0.2034  0.6098 -0.6798
  141SAPE   C3415434   4.248   1.602   9.903 -0.7152  0.5211 -0.5645
  141SAPE   H4X15435   4.295   1.501   9.909  1.0790  1.4933  3.2534
  141SAPE   H4Y15436   4.346   1.654   9.904  0.0115 -0.8248  0.6982
  141SAPE   C3515437   4.172   1.597   9.768  0.2504  0.7006 -0.3006
  141SAPE   H5X15438   4.143   1.702   9.750 -2.3591  0.3832  1.6344
  141SAPE   H5Y15439   4.079   1.538   9.784  0.6686  0.1547  0.1806
  141SAPE   C3615440   4.247   1.524   9.654 -0.3010 -0.1660  0.1203
  141SAPE   H6X15441   4.243   1.415   9.677  0.8275 -0.7644 -2.3454
  141SAPE   H6Y15442   4.355   1.552   9.655  0.5366 -3.1567  2.1346
  141SAPE   C3715443   4.191   1.554   9.515 -0.3231  1.7314  0.4847
  141SAPE   H7X15444   4.186   1.664   9.501 -0.9639  1.5233 -0.9744
  141SAPE   H7Y15445   4.086   1.518   9.507 -0.0210  1.2664 -1.8153
  141SAPE   C3815446   4.257   1.486   9.398 -0.3303  0.2580 -0.5733
  141SAPE   H8X15447   4.231   1.378   9.393 -3.0731  0.9656 -3.5765
  141SAPE   H8Y15448   4.367   1.497   9.408 -0.7244  3.2817  0.7717
  141SAPE   C3915449   4.203   1.549   9.266  0.1113 -0.1254  0.7054
  141SAPE   H9X15450   4.203   1.658   9.284 -1.0025  0.0703 -0.4206
  141SAPE   H9Y15451   4.101   1.507   9.255 -0.3907  0.8837  1.4981
  141SAPE  C31015452   4.269   1.510   9.134  0.5734  0.1691 -0.7435
  141SAPE  H10X15453   4.376   1.536   9.148  1.0983 -1.9056 -0.7484
  141SAPE  H10Y15454   4.228   1.570   9.050 -1.8821 -0.4239  0.0002
  141SAPE  C31115455   4.263   1.361   9.100  0.6998 -0.9346 -0.0906
  141SAPE  H11X15456   4.156   1.357   9.071  0.0006  2.8331  1.6272
  141SAPE  H11Y15457   4.271   1.293   9.187  0.1536  0.8162  1.3702
  141SAPE  C31215458   4.373   1.306   9.006  0.4069  0.3019 -0.3010
  141SAPE  H12X15459   4.471   1.303   9.059 -0.3113 -1.2343  0.9767
  141SAPE  H12Y15460   4.380   1.361   8.910  0.8182  1.1191  0.1953
  141SAPE  C31315461   4.337   1.162   8.950  0.1794  0.0070 -0.2424
  141SAPE  H13X15462   4.241   1.161   8.893 -0.8892  0.2833  1.5100
  141SAPE  H13Y15463   4.314   1.112   9.046 -2.6681  2.5120  0.4547
  141SAPE  C31415464   4.444   1.091   8.869 -1.0273  0.0096 -0.1501
  141SAPE  H14X15465   4.529   1.070   8.937 -0.2208 -0.3970 -1.2781
  141SAPE  H14Y15466   4.481   1.172   8.802  0.7673 -1.0326 -0.4332
  141SAPE  C31515467   4.396   0.978   8.788 -0.2269 -0.2777 -0.0986
  141SAPE  H15X15468   4.322   0.914   8.840 -0.3236  1.8685  2.4967
  141SAPE  H15Y15469   4.481   0.909   8.768 -2.2137 -3.4306  2.0548
  141SAPE  C31615470   4.348   1.022   8.647  0.1844 -0.4004 -0.4885
  141SAPE  H16X15471   4.405   1.107   8.605 -1.6344 -0.4034 -3.1089
  141SAPE  H16Y15472   4.247   1.064   8.663  0.6558  0.2674  0.7701
  141SAPE  C31715473   4.349   0.909   8.533  0.2390 -0.0552 -0.9449
  141SAPE  H17X15474   4.455   0.888   8.509  0.4996 -0.7945  0.8229
  141SAPE  H17Y15475   4.307   0.957   8.441 -0.3246  1.3341  0.0105
  141SAPE  C31815476   4.271   0.785   8.569 -0.1630 -0.5039  0.2549
  141SAPE  H18X15477   4.167   0.808   8.599 -0.3955 -1.4943  0.2145
  141SAPE  H18Y15478   4.313   0.727   8.653 -1.3977 -0.8566  0.6376
  141SAPE  H18Z15479   4.262   0.723   8.477  1.3547  0.2155 -0.4008
  142SAPE     N15480   3.960   1.265  11.068  0.5143 -0.3783 -0.3520
  142SAPE   HN115481   4.021   1.302  11.144  0.1929  2.3964 -1.3803
  142SAPE   HN215482   3.940   1.348  11.008  2.7595 -0.0371 -0.6662
  142SAPE   HN315483   3.874   1.233  11.117  0.4182 -0.5149 -0.6114
  142SAPE   C1215484   4.034   1.159  10.991  0.0367  0.1696 -0.2580
  142SAPE  H12A15485   3.963   1.097  10.932  0.5160 -0.1186 -0.5306
  142SAPE  H12B15486   4.085   1.103  11.072 -0.5427 -2.1755 -1.4729
  142SAPE   C1115487   4.145   1.227  10.908 -0.0378 -0.4632  0.3947
  142SAPE  H11A15488   4.101   1.285  10.824 -2.2444 -1.0763  1.1082
  142SAPE  H11B15489   4.210   1.143  10.877 -0.2985  0.0646 -1.6222
  142SAPE     P15490   4.369   1.299  11.021 -0.2345 -0.4408  0.5371
  142SAPE   O1315491   4.420   1.418  11.093  0.8263 -0.1346 -0.4094
  142SAPE   O1415492   4.396   1.167  11.080  0.0651 -0.4468 -0.0025
  142SAPE   O1215493   4.214   1.316  11.007 -0.4386 -0.0240  0.6975
  142SAPE   O1115494   4.426   1.299  10.868 -0.3404  0.2154 -0.4073
  142SAPE    C115495   4.395   1.418  10.791  0.2267 -0.2091  0.3413
  142SAPE    HA15496   4.295   1.460  10.814 -0.5772  0.2585 -3.5570
  142SAPE    HB15497   4.468   1.499  10.813  0.6005 -0.7392  1.0419
  142SAPE    C215498   4.400   1.388  10.637  0.0379 -0.4747 -0.6706
  142SAPE    HS15499   4.377   1.487  10.592  0.5915  0.0847  0.2459
  142SAPE   O2115500   4.299   1.286  10.596  0.4877 -0.0502 -0.2671
  142SAPE   C2115501   4.254   1.299  10.479 -0.1277 -0.2169  0.9253
  142SAPE   O2215502   4.272   1.397  10.402  0.4589  0.1683  0.5861
  142SAPE   C2215503   4.143   1.194  10.456 -0.2419  0.2892  0.1896
  142SAPE   H2R15504   4.202   1.100  10.450 -1.7817 -0.6836  0.0704
  142SAPE   H2S15505   4.070   1.196  10.540 -2.5155  2.0120 -1.7494
  142SAPE    C315506   4.536   1.344  10.593 -0.4270 -0.1929  0.0461
  142SAPE    HX15507   4.537   1.253  10.658 -1.7745 -1.8805 -2.2401
  142SAPE    HY15508   4.599   1.426  10.634 -0.1949 -0.5900  0.4926
  142SAPE   O3115509   4.560   1.306  10.459 -0.0729 -0.1045 -0.6286
  142SAPE   C3115510   4.596   1.400  10.371  0.0120 -0.0474 -0.1123
  142SAPE   O3215511   4.606   1.519  10.390  0.3114  0.2823 -0.0694
  142SAPE   C3215512   4.612   1.340  10.237 -0.3793  0.3828  0.5076
  142SAPE   H2X15513   4.527   1.272  10.217  0.0955 -0.2254  0.5405
  142SAPE   H2Y15514   4.699   1.271  10.239  0.6139  1.5663 -0.7668
  142SAPE   C2315515   4.058   1.196  10.323 -0.1373  0.3026  0.3178
  142SAPE   H3R15516   4.022   1.300  10.306  1.2538  0.5384 -1.2583
  142SAPE   H3S15517   3.966   1.134  10.332  0.0369  0.1433  0.9769
  142SAPE   C2415518   4.116   1.128  10.197 -0.5501 -0.3571  0.4912
  142SAPE   H4R15519   4.035   1.117  10.122  0.2545 -0.6913 -0.3284
  142SAPE   H4S15520   4.161   1.032  10.228 -1.2244 -0.2945  1.7402
  142SAPE   C2515521   4.224   1.214  10.130 -0.3373  0.3497  0.3300
  142SAPE   H5R15522   4.247   1.302  10.192 -0.9166  0.9931 -0.3605
  142SAPE   C2615523   4.272   1.202  10.012 -0.1972  0.1050 -0.8524
  142SAPE   H6R15524   4.349   1.277   9.984 -0.1504  1.0558  1.7086
  142SAPE   C2715525   4.240   1.114   9.899 -0.5145 -0.1165 -0.8117
  142SAPE   H7R15526   4.203   1.174   9.813 -2.3538 -0.5897 -0.3740
  142SAPE   H7S15527   4.164   1.036   9.920 -0.3753 -0.4852 -1.6702
  142SAPE   C2815528   4.360   1.033   9.856  0.1433  0.1422  0.5459
  142SAPE   H8R15529   4.417   0.999   9.944  2.9566  1.7276 -0.5829
  142SAPE   C2915530   4.378   0.978   9.735  0.0847  0.4049 -0.0595
  142SAPE   H9R15531   4.471   0.920   9.724 -0.0399 -0.1196  1.5840
  142SAPE  C21015532   4.288   0.999   9.613  0.8075  0.1185  0.1531
  142SAPE  H10R15533   4.188   1.043   9.634  0.0841 -0.0968 -2.5815
  142SAPE  H10S15534   4.257   0.900   9.574  1.4221  0.9476 -2.5302
  142SAPE  C21115535   4.357   1.070   9.505 -1.0256 -0.4251  0.6270
  142SAPE  H11R15536   4.359   1.178   9.526 -2.9973  0.1641 -1.8727
  142SAPE  C21215537   4.429   1.024   9.399 -0.0124 -0.2522 -0.1366
  142SAPE  H12R15538   4.486   1.098   9.341 -0.5520  0.4966  0.2777
  142SAPE  C21315539   4.438   0.878   9.364  0.0256  0.3142  0.0908
  142SAPE  H13R15540   4.344   0.827   9.396  0.3026 -1.0565 -1.2296
  142SAPE  H13S15541   4.517   0.832   9.428  0.1806  2.8224  1.7742
  142SAPE  C21415542   4.446   0.861   9.213  0.6624 -0.0502 -0.2287
  142SAPE  H14R15543   4.368   0.917   9.159 -0.9059 -2.4151 -0.5225
  142SAPE  C21515544   4.513   0.762   9.150 -0.4822  0.0167  0.3285
  142SAPE  H15R15545   4.513   0.772   9.041  0.6352  0.8123  0.3875
  142SAPE  C21615546   4.590   0.650   9.208  0.0811 -0.0546 -1.1100
  142SAPE  H16R15547   4.579   0.641   9.318 -0.3569  3.6671 -0.7950
  142SAPE  H16S15548   4.696   0.681   9.202 -0.5244  1.6751 -3.8190
  142SAPE  C21715549   4.558   0.519   9.133 -0.3413  0.1780 -0.2319
  142SAPE  H17R15550   4.543   0.543   9.025  2.5697 -0.0359 -0.7214
  142SAPE  H17S15551   4.462   0.487   9.179  1.0556 -1.6484  1.4792
  142SAPE  C21815552   4.658   0.408   9.139 -0.0716 -0.1769  0.3956
  142SAPE  H18R15553   4.612   0.315   9.099 -3.6578  1.2368  1.0645
  142SAPE  H18S15554   4.683   0.379   9.244 -0.6097 -0.0082  0.5669
  142SAPE  C21915555   4.795   0.437   9.064  0.1377 -0.1499 -0.4670
  142SAPE  H19R15556   4.870   0.356   9.078 -0.1282 -0.0648  1.6374
  142SAPE  H19S15557   4.844   0.530   9.100 -1.0865  0.2316  0.2259
  142SAPE  C22015558   4.768   0.453   8.918  0.2383 -0.7880  0.3249
  142SAPE  H20R15559   4.860   0.470   8.858  0.0600  0.4580  0.3994
  142SAPE  H20S15560   4.701   0.539   8.897  1.7966 -0.1258 -2.1108
  142SAPE  H20T15561   4.729   0.357   8.876 -0.1950 -1.2473  1.7427
  142SAPE   C3315562   4.639   1.456  10.129 -0.0587 -0.2037 -0.9231
  142SAPE   H3X15563   4.733   1.513  10.146 -0.3043 -0.7684  2.5968
  142SAPE   H3Y15564   4.554   1.526  10.127  0.0110 -0.1326 -1.8600
  142SAPE   C3415565   4.648   1.386   9.989  0.0453 -0.5691 -0.1938
  142SAPE   H4X15566   4.563   1.315   9.977 -1.1940  0.9468 -0.6037
  142SAPE   H4Y15567   4.739   1.324  10.000  0.8163  0.3682 -1.1463
  142SAPE   C3515568   4.655   1.477   9.860 -0.3806  0.2387  0.2243
  142SAPE   H5X15569   4.756   1.522   9.850  0.7720 -2.4749 -1.0341
  142SAPE   H5Y15570   4.569   1.546   9.869 -0.1615  0.4173  1.0013
  142SAPE   C3615571   4.645   1.384   9.733  0.4566  0.3785  0.0696
  142SAPE   H6X15572   4.537   1.357   9.738  0.6273 -0.6962 -1.5290
  142SAPE   H6Y15573   4.717   1.301   9.744  0.4118  0.5894  2.1506
  142SAPE   C3715574   4.664   1.463   9.601 -0.5171  0.6587 -0.2546
  142SAPE   H7X15575   4.758   1.522   9.600  0.5214 -0.9157  1.4012
  142SAPE   H7Y15576   4.578   1.531   9.585  0.5417  1.6502 -1.9314
  142SAPE   C3815577   4.674   1.372   9.484 -0.3111 -0.2187  0.2470
  142SAPE   H8X15578   4.572   1.329   9.475 -1.8746  3.3252 -0.0005
  142SAPE   H8Y15579   4.747   1.291   9.506  0.5436  0.0325 -1.6017
  142SAPE   C3915580   4.732   1.453   9.368  0.3088 -0.5736  0.4532
  142SAPE   H9X15581   4.841   1.472   9.375  0.1686 -0.3691  2.3005
  142SAPE   H9Y15582   4.685   1.553   9.360  1.5180 -0.1184 -1.3123
  142SAPE  C31015583   4.704   1.366   9.244 -0.4075  0.6630  0.7649
  142SAPE  H10X15584   4.667   1.433   9.164  1.5308  1.7694  0.7616
  142SAPE  H10Y15585   4.618   1.300   9.265  0.1611 -0.2113  0.3913
  142SAPE  C31115586   4.825   1.277   9.204  0.2383 -0.0930 -0.2694
  142SAPE  H11X15587   4.891   1.257   9.291  0.7621 -1.1509 -0.9052
  142SAPE  H11Y15588   4.889   1.336   9.136  1.9981 -1.9941 -0.3089
  142SAPE  C31215589   4.777   1.141   9.146 -0.2909 -0.0011  0.3001
  142SAPE  H12X15590   4.727   1.143   9.047  0.8988  1.3120 -0.2846
  142SAPE  H12Y15591   4.697   1.088   9.203 -1.9204  0.7228 -1.2541
  142SAPE  C31315592   4.901   1.052   9.112  0.5725 -0.0176 -0.2008
  142SAPE  H13X15593   4.951   1.031   9.209  0.8036 -1.9386 -0.7140
  142SAPE  H13Y15594   4.966   1.114   9.047 -2.4663  2.4145 -1.0223
  142SAPE  C31415595   4.862   0.923   9.046  0.2366 -0.1716 -0.2664
  142SAPE  H14X15596   4.770   0.876   9.087 -0.2028  0.9833  0.0962
  142SAPE  H14Y15597   4.948   0.854   9.059  1.0970  0.8672 -0.3704
  142SAPE  C31515598   4.836   0.940   8.891  0.6935 -0.8686  0.3053
  142SAPE  H15X15599   4.934   0.962   8.844  0.6740  3.2204  1.9931
  142SAPE  H15Y15600   4.769   1.027   8.875  2.1123 -0.2497 -2.7288
  142SAPE  C31615601   4.773   0.815   8.836 -0.6088 -0.7236  0.3108
  142SAPE  H16X15602   4.675   0.787   8.881 -1.1463 -0.2256 -0.5354
  142SAPE  H16Y15603   4.847   0.733   8.845 -1.6544 -2.1937 -3.3202
  142SAPE  C31715604   4.754   0.830   8.682 -0.5473  0.1962 -0.4891
  142SAPE  H17X15605   4.852   0.844   8.633 -0.7842 -1.0974 -1.3516
  142SAPE  H17Y15606   4.692   0.920   8.664 -1.1117 -0.6259 -2.7761
  142SAPE  C31815607   4.694   0.698   8.629 -0.4852  0.7838 -0.0025
  142SAPE  H18X15608   4.591   0.679   8.667 -0.3159 -2.6062 -1.0842
  142SAPE  H18Y15609   4.762   0.619   8.667  1.3582  1.6501 -1.4445
  142SAPE  H18Z15610   4.697   0.700   8.518 -1.9606  0.9948 -0.0468
  143SAPE     N15611   6.342   1.983  10.937  0.1300  0.1200 -0.2108
  143SAPE   HN115612   6.408   1.910  10.970  0.5895  0.6638  0.0884
  143SAPE   HN215613   6.396   2.059  10.891  2.0444 -1.0476  0.0488
  143SAPE   HN315614   6.284   2.010  11.018 -3.7645 -1.0771 -2.4513
  143SAPE   C1215615   6.244   1.923  10.837  0.9760 -0.5561  0.4827
  143SAPE  H12A15616   6.294   1.900  10.741  1.6739  0.2654  0.6472
  143SAPE  H12B15617   6.157   1.991  10.826  1.0659 -0.3515  1.0225
  143SAPE   C1115618   6.189   1.782  10.883  0.5367 -0.3870 -0.1650
  143SAPE  H11A15619   6.115   1.747  10.808 -0.3636 -1.0205  0.9843
  143SAPE  H11B15620   6.141   1.801  10.982 -0.1126  0.0407 -0.5625
  143SAPE     P15621   6.274   1.536  10.909  0.1749  0.0904 -0.0398
  143SAPE   O1315622   6.364   1.464  10.811  0.4053 -1.0634  0.1143
  143SAPE   O1415623   6.292   1.494  11.049 -0.4722  0.1023 -0.2157
  143SAPE   O1215624   6.293   1.688  10.896  0.0888 -0.3215 -0.1002
  143SAPE   O1115625   6.124   1.508  10.876  0.8990  0.1269 -0.0609
  143SAPE    C115626   6.088   1.373  10.823  0.7763 -0.2484 -0.3411
  143SAPE    HA15627   6.140   1.292  10.878  0.1066 -1.5942 -1.6502
  143SAPE    HB15628   5.982   1.350  10.850  0.4190  1.3370 -0.3321
  143SAPE    C215629   6.098   1.378  10.667 -0.1782 -0.4840 -0.2995
  143SAPE    HS15630   6.202   1.402  10.638 -0.7396  0.5095 -1.5406
  143SAPE   O2115631   6.008   1.483  10.624  0.0171  0.9935  0.3482
  143SAPE   C2115632   6.038   1.531  10.503  0.0703  0.2796  0.4772
  143SAPE   O2215633   6.140   1.520  10.440  0.0340 -0.0927 -0.5349
  143SAPE   C2215634   5.917   1.598  10.446  0.3377 -0.0208 -0.2786
  143SAPE   H2R15635   5.825   1.584  10.508  0.8061  1.2065  0.7191
  143SAPE   H2S15636   5.933   1.707  10.451 -0.0063  0.0488 -0.6565
  143SAPE    C315637   6.050   1.238  10.618 -0.0318  0.5239 -0.2142
  143SAPE    HX15638   5.943   1.227  10.644  0.6726 -1.1426  2.2125
  143SAPE    HY15639   6.108   1.161  10.674  0.6940  1.7401  0.7222
  143SAPE   O3115640   6.057   1.216  10.480 -0.5132 -0.5271 -0.0158
  143SAPE   C3115641   6.178   1.203  10.426  0.6177 -0.4953  0.1169
  143SAPE   O3215642   6.281   1.200  10.490  0.1062 -0.3848 -0.2971
  143SAPE   C3215643   6.173   1.178  10.278 -0.2284  0.6524  0.5428
  143SAPE   H2X15644   6.098   1.251  10.238 -1.4014 -0.3550  0.8688
  143SAPE   H2Y15645   6.128   1.077  10.274  2.4463 -0.5346 -0.2377
  143SAPE   C2315646   5.899   1.551  10.299  0.0291  0.9973 -0.9456
  143SAPE   H3R15647   5.888   1.440  10.303  0.6476  0.9495 -0.5826
  143SAPE   H3S15648   5.985   1.564  10.230 -0.4162 -0.1238 -1.7401
  143SAPE   C2415649   5.773   1.617  10.236  0.3701 -0.0605  0.4221
  143SAPE   H4R15650   5.689   1.578  10.297  0.6118 -0.3028  0.6049
  143SAPE   H4S15651   5.761   1.578  10.133  0.1755 -0.6704  0.6716
  143SAPE   C2515652   5.777   1.769  10.237  0.9843 -0.3178  0.1765
  143SAPE   H5R15653   5.719   1.823  10.314 -0.7187 -1.6363 -0.1622
  143SAPE   C2615654   5.836   1.855  10.149  0.5796 -0.0636  0.2637
  143SAPE   H6R15655   5.825   1.964  10.162 -0.5340  0.2249 -2.6603
  143SAPE   C2715656   5.920   1.819  10.031  0.6146  0.2770  0.6428
  143SAPE   H7R15657   5.988   1.734  10.056  0.7056 -0.2318 -1.2865
  143SAPE   H7S15658   5.989   1.904  10.016  1.1251 -0.5449 -1.9406
  143SAPE   C2815659   5.836   1.773   9.921  0.3114 -0.0617  0.6494
  143SAPE   H8R15660   5.760   1.697   9.943  1.2844 -0.8821  1.2373
  143SAPE   C2915661   5.846   1.809   9.789 -0.2041 -0.5424 -0.9393
  143SAPE   H9R15662   5.774   1.767   9.717 -1.4884  2.7695 -1.6713
  143SAPE  C21015663   5.948   1.904   9.726 -0.5736 -0.2270  0.1000
  143SAPE  H10R15664   6.030   1.910   9.801 -1.8783  0.2031  1.5342
  143SAPE  H10S15665   5.913   2.010   9.720  2.8254  0.9212 -0.5804
  143SAPE  C21115666   6.012   1.867   9.592  0.3097  0.2247  0.2647
  143SAPE  H11R15667   6.094   1.794   9.600  1.4793  1.3735 -0.9703
  143SAPE  C21215668   5.972   1.896   9.470 -0.7588 -0.2265 -0.1361
  143SAPE  H12R15669   6.027   1.856   9.383 -1.2257 -1.2454  0.0236
  143SAPE  C21315670   5.852   1.981   9.436 -0.3544  0.5393 -1.3311
  143SAPE  H13R15671   5.783   1.989   9.522 -0.4538  0.1659 -1.3769
  143SAPE  H13S15672   5.803   1.924   9.355  1.2661 -1.3465 -1.0090
  143SAPE  C21415673   5.885   2.119   9.392 -0.3920 -0.3231  0.1997
  143SAPE  H14R15674   5.906   2.190   9.474  0.4639  0.1619 -0.4361
  143SAPE  C21515675   5.901   2.157   9.252 -0.3948 -0.2498 -0.5935
  143SAPE  H15R15676   5.913   2.264   9.231  1.3111 -0.3026 -0.0175
  143SAPE  C21615677   5.884   2.059   9.141 -0.7865  0.0231  0.1387
  143SAPE  H16R15678   5.779   2.036   9.114 -0.9700  1.1046 -0.0836
  143SAPE  H16S15679   5.927   1.961   9.170  1.3394  0.3784 -1.7002
  143SAPE  C21715680   5.957   2.116   9.011  0.8503  0.5344 -0.1131
  143SAPE  H17R15681   6.065   2.119   9.035  0.9982 -0.8830 -0.6056
  143SAPE  H17S15682   5.915   2.219   9.004  0.6479  0.5237  0.8419
  143SAPE  C21815683   5.928   2.046   8.885  0.0047  0.3585  0.9218
  143SAPE  H18R15684   5.823   2.055   8.850  0.0632  1.3020  0.9663
  143SAPE  H18S15685   5.953   1.940   8.907  0.5105  0.7050  2.0598
  143SAPE  C21915686   6.007   2.107   8.766  0.2339  0.9795 -0.1259
  143SAPE  H19R15687   6.116   2.116   8.786  0.1366  0.9613  0.4356
  143SAPE  H19S15688   5.975   2.212   8.750  0.9040  1.0218 -1.1804
  143SAPE  C22015689   5.999   2.027   8.640  0.7519  0.0780  1.1172
  143SAPE  H20R15690   6.044   2.077   8.551 -0.7461  0.4227  0.5324
  143SAPE  H20S15691   5.891   2.005   8.623 -0.3212  2.6232  4.0478
  143SAPE  H20T15692   6.053   1.931   8.652  0.6836 -0.2806 -1.1054
  143SAPE   C3315693   6.310   1.171  10.202 -0.0051  0.2399 -0.6052
  143SAPE   H3X15694   6.326   1.077  10.145  2.8169  0.0069  0.5199
  143SAPE   H3Y15695   6.395   1.161  10.272 -0.9467  1.1295  0.6792
  143SAPE   C3415696   6.331   1.297  10.117  0.4050  0.4397 -0.1911
  143SAPE   H4X15697   6.439   1.299  10.091  0.8084 -0.0246  1.3739
  143SAPE   H4Y15698   6.312   1.388  10.177 -2.9311  0.2925 -0.9230
  143SAPE   C3515699   6.245   1.294   9.990  0.3126 -0.2817 -0.5020
  143SAPE   H5X15700   6.145   1.334  10.015  1.2855  1.9584 -0.0942
  143SAPE   H5Y15701   6.245   1.191   9.948 -0.2756  0.1600 -1.5967
  143SAPE   C3615702   6.314   1.392   9.891 -0.1389  0.6743 -0.5266
  143SAPE   H6X15703   6.422   1.365   9.884 -0.6191 -1.5854  0.3598
  143SAPE   H6Y15704   6.293   1.497   9.921  1.4579  0.2915  2.0994
  143SAPE   C3715705   6.255   1.385   9.749 -0.2211 -0.3499 -0.7758
  143SAPE   H7X15706   6.146   1.391   9.771  0.1657  0.5683  0.9993
  143SAPE   H7Y15707   6.270   1.281   9.713 -1.7230 -1.2490  1.0825
  143SAPE   C3815708   6.305   1.489   9.650  0.0914  0.7327  0.1388
  143SAPE   H8X15709   6.390   1.439   9.599 -0.3752  2.2027 -2.1225
  143SAPE   H8Y15710   6.330   1.593   9.682  2.0236  0.2631  0.2161
  143SAPE   C3915711   6.207   1.509   9.528 -0.4765 -0.3601 -0.2129
  143SAPE   H9X15712   6.236   1.582   9.450 -0.7729  0.1064  0.1143
  143SAPE   H9Y15713   6.115   1.558   9.566  0.0735 -0.2938  1.0551
  143SAPE  C31015714   6.170   1.372   9.466  1.1870  0.9394 -0.5662
  143SAPE  H10X15715   6.092   1.319   9.525  0.2274  1.5825 -1.2363
  143SAPE  H10Y15716   6.261   1.313   9.447  0.5821  0.7355 -2.9912
  143SAPE  C31115717   6.098   1.392   9.331 -0.0740  1.0462 -0.4333
  143SAPE  H11X15718   6.006   1.456   9.329 -0.5783  0.3782  0.9342
  143SAPE  H11Y15719   6.066   1.288   9.312 -0.5561  1.1785 -0.3659
  143SAPE  C31215720   6.185   1.424   9.207  0.5101  0.0023 -0.3409
  143SAPE  H12X15721   6.292   1.403   9.229 -0.2212 -0.8242  2.6879
  143SAPE  H12Y15722   6.178   1.532   9.181  0.9837 -0.0114 -0.5341
  143SAPE  C31315723   6.154   1.360   9.070  0.4956 -0.8483 -0.3335
  143SAPE  H13X15724   6.045   1.365   9.049  0.2410  1.4296  1.3077
  143SAPE  H13Y15725   6.181   1.252   9.072 -0.1495 -1.0032  0.1466
  143SAPE  C31415726   6.254   1.420   8.961 -0.1650  0.1002 -0.0941
  143SAPE  H14X15727   6.223   1.371   8.866 -1.5422 -0.1620  0.4766
  143SAPE  H14Y15728   6.357   1.383   8.978  0.8717  2.3495 -1.3204
  143SAPE  C31515729   6.259   1.573   8.938 -0.4035  0.1088  0.0811
  143SAPE  H15X15730   6.316   1.629   9.015 -1.0167  0.4339  0.2983
  143SAPE  H15Y15731   6.153   1.604   8.952  0.3911  1.4825  3.4143
  143SAPE  C31615732   6.313   1.614   8.801  0.2334 -1.0803 -0.1211
  143SAPE  H16X15733   6.293   1.723   8.792  1.3546 -0.7794  0.8566
  143SAPE  H16Y15734   6.252   1.565   8.723  1.0073  0.4862 -1.7575
  143SAPE  C31715735   6.460   1.572   8.773 -0.5476  0.6733  0.1484
  143SAPE  H17X15736   6.484   1.574   8.664 -0.8192  0.3844  0.0849
  143SAPE  H17Y15737   6.487   1.472   8.813 -0.8257  0.5783  0.0965
  143SAPE  C31815738   6.555   1.678   8.836  0.4004 -0.6247 -0.5566
  143SAPE  H18X15739   6.532   1.700   8.942  1.6499 -3.1295  0.2793
  143SAPE  H18Y15740   6.545   1.766   8.769 -1.5692 -0.3663  0.0673
  143SAPE  H18Z15741   6.662   1.648   8.831  0.2213 -1.4723  0.5355
  144SAPE     N15742   3.186   6.539  10.761  0.6041  0.3462 -0.1654
  144SAPE   HN115743   3.175   6.512  10.861 -0.2784  0.2227 -0.2877
  144SAPE   HN215744   3.283   6.555  10.729  0.7303  1.2932  0.6663
  144SAPE   HN315745   3.135   6.630  10.756 -1.8843 -0.9225  0.8294
  144SAPE   C1215746   3.110   6.452  10.659 -0.2669 -0.3149  0.4192
  144SAPE  H12A15747   3.143   6.485  10.558 -2.9325 -1.4605 -0.8914
  144SAPE  H12B15748   3.001   6.467  10.672  0.1666  4.3043 -0.4312
  144SAPE   C1115749   3.148   6.297  10.670 -0.1907 -0.2529 -0.2607
  144SAPE  H11A15750   3.254   6.291  10.637 -1.0913 -0.4288 -3.2947
  144SAPE  H11B15751   3.095   6.239  10.591 -1.8806 -0.1726  0.8101
  144SAPE     P15752   2.994   6.193  10.850 -0.1093  0.0877  0.1865
  144SAPE   O1315753   3.002   6.101  10.964  0.0044  0.7183  0.0447
  144SAPE   O1415754   2.937   6.325  10.885 -0.3762 -0.4530  0.4408
  144SAPE   O1215755   3.137   6.226  10.796 -0.0864 -0.8515 -0.4232
  144SAPE   O1115756   2.922   6.124  10.727  0.0112  0.4402  0.2951
  144SAPE    C115757   2.787   6.141  10.704  0.0357 -0.4415 -0.0509
  144SAPE    HA15758   2.724   6.088  10.778  1.0917 -0.9236  0.5064
  144SAPE    HB15759   2.758   6.249  10.709  1.6662  0.0483 -0.8156
  144SAPE    C215760   2.735   6.101  10.561 -0.3499 -0.3420  0.3986
  144SAPE    HS15761   2.724   5.991  10.555  1.2526 -0.4018 -2.1337
  144SAPE   O2115762   2.832   6.134  10.458 -0.1127  0.1707 -0.2667
  144SAPE   C2115763   2.874   6.265  10.441 -0.5815  0.0800 -0.0529
  144SAPE   O2215764   2.841   6.356  10.511  0.0711  0.2455 -0.0356
  144SAPE   C2215765   2.970   6.279  10.319  0.3774  0.4741 -0.0593
  144SAPE   H2R15766   3.055   6.345  10.347  0.5840  0.9807 -1.7947
  144SAPE   H2S15767   3.008   6.179  10.290 -0.7737  0.1981 -0.6604
  144SAPE    C315768   2.599   6.159  10.521  0.7148  0.5035 -0.1974
  144SAPE    HX15769   2.596   6.269  10.535 -0.0341  0.2399  1.8779
  144SAPE    HY15770   2.526   6.132  10.601  0.2911 -0.8676 -1.0255
  144SAPE   O3115771   2.562   6.127  10.385  0.1012  0.4082 -0.0430
  144SAPE   C3115772   2.466   6.030  10.375  0.3271 -0.6891  0.1730
  144SAPE   O3215773   2.408   5.982  10.466 -0.4538  0.3720  0.4977
  144SAPE   C3215774   2.425   6.017  10.224  0.0494  0.0365  0.6816
  144SAPE   H2X15775   2.510   6.051  10.161 -0.6689 -0.6720 -0.6767
  144SAPE   H2Y15776   2.332   6.074  10.211 -0.7840 -1.5670 -0.5550
  144SAPE   C2315777   2.898   6.346  10.197 -0.8648 -0.5538  0.3690
  144SAPE   H3R15778   2.975   6.384  10.125 -0.1706 -1.5780  0.5668
  144SAPE   H3S15779   2.844   6.436  10.231 -0.9030 -0.1641 -0.6878
  144SAPE   C2415780   2.783   6.262  10.132 -0.2431 -0.0805  0.3223
  144SAPE   H4R15781   2.742   6.296  10.035 -0.7847  1.9236  1.2263
  144SAPE   H4S15782   2.694   6.266  10.199 -0.3902 -2.6640  0.3323
  144SAPE   C2515783   2.821   6.119  10.118  0.9270 -0.4183  0.2367
  144SAPE   H5R15784   2.819   6.060  10.211  0.2229  0.0657  0.5318
  144SAPE   C2615785   2.862   6.064  10.003 -0.5923 -0.2934 -0.5911
  144SAPE   H6R15786   2.870   5.955   9.998  0.4093 -0.2881  0.6624
  144SAPE   C2715787   2.888   6.145   9.874 -0.8223  0.5762 -0.3519
  144SAPE   H7R15788   2.901   6.252   9.902  0.3945  0.3209  0.0505
  144SAPE   H7S15789   2.804   6.135   9.801 -0.1009  0.8773 -1.2367
  144SAPE   C2815790   3.024   6.105   9.819 -0.3620  0.2376 -0.0474
  144SAPE   H8R15791   3.111   6.132   9.880  0.5402 -2.2163 -0.1868
  144SAPE   C2915792   3.058   6.068   9.695  0.0983 -0.1756  0.3721
  144SAPE   H9R15793   3.161   6.031   9.684  0.6467  1.0269  1.3357
  144SAPE  C21015794   2.963   6.055   9.577  0.0236  0.1462 -0.4297
  144SAPE  H10R15795   3.000   6.131   9.505 -0.2769  1.0829  0.3993
  144SAPE  H10S15796   2.860   6.084   9.604 -0.1549 -0.2809 -0.6518
  144SAPE  C21115797   2.943   5.908   9.528 -0.2470 -0.3010 -0.6665
  144SAPE  H11R15798   2.941   5.843   9.617  0.0116  2.2962  1.3009
  144SAPE  C21215799   2.910   5.866   9.405 -0.6833 -0.5803  0.3570
  144SAPE  H12R15800   2.893   5.760   9.382  0.0960 -0.3185 -1.5167
  144SAPE  C21315801   2.878   5.955   9.287 -0.3151  0.0021 -0.5805
  144SAPE  H13R15802   2.921   6.057   9.288  1.2452 -0.6382 -1.9740
  144SAPE  H13S15803   2.767   5.959   9.288 -0.2942  0.6085  0.0221
  144SAPE  C21415804   2.936   5.907   9.157 -0.0439  0.8455  0.3149
  144SAPE  H14R15805   3.015   5.832   9.169  0.5704  1.3055 -0.7808
  144SAPE  C21515806   2.908   5.956   9.037 -0.3216 -0.1303  0.3456
  144SAPE  H15R15807   2.961   5.911   8.952  0.3788  0.7243  0.3171
  144SAPE  C21615808   2.820   6.068   9.008 -0.5628 -0.2083  0.4918
  144SAPE  H16R15809   2.875   6.148   8.954 -0.7658  0.9076  1.9320
  144SAPE  H16S15810   2.790   6.115   9.104  1.8993 -0.8474  1.6141
  144SAPE  C21715811   2.698   6.039   8.924  0.0970  0.1237  0.1678
  144SAPE  H17R15812   2.625   6.122   8.935  1.2886  1.0023  1.7379
  144SAPE  H17S15813   2.649   5.949   8.967 -2.4774  1.9700  1.2430
  144SAPE  C21815814   2.720   6.022   8.771 -0.9871  0.3866 -0.2612
  144SAPE  H18R15815   2.775   5.926   8.765 -1.8935 -0.1909  0.5968
  144SAPE  H18S15816   2.778   6.109   8.735  1.7199 -0.9510  0.7365
  144SAPE  C21915817   2.593   6.030   8.682  0.4340  0.5299  0.2482
  144SAPE  H19R15818   2.616   6.007   8.576  2.6662  1.1222  0.5724
  144SAPE  H19S15819   2.549   6.130   8.699  3.3878  2.6839 -3.7791
  144SAPE  C22015820   2.474   5.937   8.717  0.3824  0.1364 -0.5386
  144SAPE  H20R15821   2.376   5.959   8.669 -0.3573 -2.9283 -0.5312
  144SAPE  H20S15822   2.462   5.955   8.826 -0.4151  2.2444 -0.9464
  144SAPE  H20T15823   2.505   5.834   8.691 -1.4340 -0.6242  0.1814
  144SAPE   C3315824   2.405   5.863  10.205  0.3049  0.2220 -0.4980
  144SAPE   H3X15825   2.331   5.816  10.274  1.2864  0.9588  1.0992
  144SAPE   H3Y15826   2.501   5.814  10.228 -0.8376 -1.5142  0.6749
  144SAPE   C3415827   2.372   5.837  10.059 -0.8731  0.2013  0.0683
  144SAPE   H4X15828   2.397   5.730  10.042  1.5844 -0.2271  5.3253
  144SAPE   H4Y15829   2.432   5.895   9.986 -0.4509  1.8628  1.7047
  144SAPE   C3515830   2.225   5.867  10.029 -0.1986  0.2335 -0.3925
  144SAPE   H5X15831   2.216   5.977  10.037  1.3607  0.4592 -1.5991
  144SAPE   H5Y15832   2.159   5.836  10.113 -1.3579  0.8000 -1.0815
  144SAPE   C3615833   2.180   5.807   9.903  0.1912  1.0166 -0.4288
  144SAPE   H6X15834   2.069   5.804   9.898  0.2539 -2.6319 -1.4298
  144SAPE   H6Y15835   2.206   5.699   9.894 -2.0913  0.1762  2.3744
  144SAPE   C3715836   2.238   5.876   9.778  0.0215 -0.3865  0.9623
  144SAPE   H7X15837   2.349   5.883   9.790  0.0091 -0.2008  0.9707
  144SAPE   H7Y15838   2.212   5.984   9.770 -1.9618 -0.9271 -0.3122
  144SAPE   C3815839   2.196   5.806   9.640 -0.3063 -0.6277  0.4911
  144SAPE   H8X15840   2.095   5.761   9.654 -1.8825  2.3424 -0.8013
  144SAPE   H8Y15841   2.271   5.726   9.625  0.3601  0.0443  0.2017
  144SAPE   C3915842   2.209   5.900   9.520  0.1989 -0.2195  0.5854
  144SAPE   H9X15843   2.309   5.942   9.497  0.9166 -2.3356 -0.3232
  144SAPE   H9Y15844   2.141   5.986   9.536  0.2408 -0.0317 -0.2115
  144SAPE  C31015845   2.174   5.822   9.391  0.0709  0.2578 -0.7432
  144SAPE  H10X15846   2.081   5.763   9.405 -0.5808  1.0370 -1.7070
  144SAPE  H10Y15847   2.256   5.755   9.356 -1.5217 -1.6855 -0.8483
  144SAPE  C31115848   2.135   5.913   9.274 -0.2394 -0.3050 -0.2314
  144SAPE  H11X15849   2.226   5.965   9.238 -0.4949  0.4023  0.1283
  144SAPE  H11Y15850   2.053   5.968   9.326  0.9691  2.3307 -1.0188
  144SAPE  C31215851   2.089   5.843   9.147  0.2438 -0.9585  0.3856
  144SAPE  H12X15852   1.996   5.785   9.170 -0.2336 -0.1405  0.5365
  144SAPE  H12Y15853   2.163   5.766   9.119 -0.6892 -1.4939 -0.6559
  144SAPE  C31315854   2.068   5.932   9.032  0.0073  0.9034  0.0950
  144SAPE  H13X15855   2.165   5.981   9.008  0.2406  0.9407  1.0711
  144SAPE  H13Y15856   2.000   6.015   9.062 -1.2663 -0.1764  0.1912
  144SAPE  C31415857   2.018   5.861   8.898 -0.3235  0.5557  0.3630
  144SAPE  H14X15858   1.985   5.934   8.822  1.3553  0.5061 -0.4314
  144SAPE  H14Y15859   1.938   5.788   8.922 -1.5798  0.9137 -2.5671
  144SAPE  C31515860   2.138   5.777   8.844  0.5231  0.7554  0.0685
  144SAPE  H15X15861   2.181   5.715   8.926 -0.8635 -1.2165 -0.6693
  144SAPE  H15Y15862   2.221   5.830   8.792  1.8574 -0.2404  1.1615
  144SAPE  C31615863   2.096   5.662   8.748 -0.3874 -0.6992 -0.3099
  144SAPE  H16X15864   2.032   5.587   8.800  0.0955 -2.3863 -2.1013
  144SAPE  H16Y15865   2.185   5.601   8.725 -0.3843 -0.7929 -0.0499
  144SAPE  C31715866   2.028   5.712   8.617 -0.7281  0.2068 -0.5416
  144SAPE  H17X15867   1.925   5.751   8.629 -0.8583 -0.9440  2.3317
  144SAPE  H17Y15868   2.017   5.624   8.550  0.4430 -1.6001  1.6119
  144SAPE  C31815869   2.110   5.810   8.538  0.2359  0.4697  0.1086
  144SAPE  H18X15870   2.215   5.780   8.522 -0.4229 -0.7038 -2.3407
  144SAPE  H18Y15871   2.096   5.907   8.589  0.4876  1.5601 -1.8306
  144SAPE  H18Z15872   2.066   5.817   8.436 -0.2401 -0.0009  0.2806
  145SAPE     N15873   5.532   0.328  11.391 -0.2869 -0.3694 -0.6218
  145SAPE   HN115874   5.480   0.416  11.371  2.0014  1.4827  1.1910
  145SAPE   HN215875   5.546   0.281  11.300 -0.6001  1.8681 -1.8548
  145SAPE   HN315876   5.461   0.264  11.434 -1.3985  0.3639 -1.3329
  145SAPE   C1215877   5.664   0.348  11.466 -0.1274 -0.0223 -0.3672
  145SAPE  H12A15878   5.747   0.296  11.414  0.7906 -1.3694  2.3925
  145SAPE  H12B15879   5.662   0.317  11.573  1.1429  1.1756  0.0052
  145SAPE   C1115880   5.687   0.499  11.451 -0.0829  0.1997 -0.5010
  145SAPE  H11A15881   5.779   0.520  11.510 -1.1291  2.1459  0.4833
  145SAPE  H11B15882   5.606   0.546  11.511  0.0204  0.9803 -0.9707
  145SAPE     P15883   5.740   0.688  11.290  0.4124 -0.2354 -0.0890
  145SAPE   O1315884   5.620   0.772  11.313 -0.1292 -0.0693 -0.1886
  145SAPE   O1415885   5.867   0.719  11.353 -0.2345  0.0108  0.6084
  145SAPE   O1215886   5.689   0.549  11.318 -0.7952 -0.4435  0.7479
  145SAPE   O1115887   5.760   0.687  11.130  0.3962 -0.0588  0.0966
  145SAPE    C115888   5.862   0.600  11.080  0.3034  0.1334 -0.3353
  145SAPE    HA15889   5.954   0.662  11.070  0.2261  0.5544  1.3066
  145SAPE    HB15890   5.887   0.524  11.157  0.8377  0.8289  0.1860
  145SAPE    C215891   5.810   0.537  10.947  0.5200 -0.4352  0.8560
  145SAPE    HS15892   5.882   0.460  10.910  3.9471  3.5945 -1.2452
  145SAPE   O2115893   5.792   0.650  10.859 -0.1905 -0.3823  0.0637
  145SAPE   C2115894   5.888   0.672  10.773  0.1013  0.2041 -0.7407
  145SAPE   O2215895   5.998   0.613  10.777 -0.6134 -0.5581 -0.1692
  145SAPE   C2215896   5.840   0.767  10.656  0.2239 -0.6153 -0.5250
  145SAPE   H2R15897   5.744   0.725  10.620 -0.8247 -0.2745  1.7744
  145SAPE   H2S15898   5.821   0.864  10.707 -1.7460 -0.7073 -1.0412
  145SAPE    C315899   5.680   0.463  10.973  0.2108  0.8364  0.3080
  145SAPE    HX15900   5.599   0.535  10.996  0.5202  1.2688  0.0505
  145SAPE    HY15901   5.686   0.385  11.052  0.8177  1.1219  0.5483
  145SAPE   O3115902   5.649   0.388  10.852  0.0460 -0.0277 -0.1144
  145SAPE   C3115903   5.547   0.425  10.776 -0.5072 -0.6323 -0.2561
  145SAPE   O3215904   5.468   0.519  10.803 -0.1932  0.0262  0.7577
  145SAPE   C3215905   5.542   0.335  10.659 -0.4964  0.8979  0.1321
  145SAPE   H2X15906   5.434   0.328  10.636 -0.3905  2.1515 -0.8087
  145SAPE   H2Y15907   5.575   0.233  10.687 -1.6552  0.9338  1.6734
  145SAPE   C2315908   5.940   0.774  10.546 -0.1918  0.1979 -0.0701
  145SAPE   H3R15909   6.029   0.826  10.586 -1.2049  2.5945 -0.8385
  145SAPE   H3S15910   5.902   0.844  10.469  0.9185 -0.7102 -1.4684
  145SAPE   C2415911   5.961   0.647  10.471  0.5690 -0.5499 -0.6190
  145SAPE   H4R15912   5.868   0.620  10.417 -0.9155  0.5361  1.3599
  145SAPE   H4S15913   5.978   0.556  10.533  0.5545 -0.8071 -0.9938
  145SAPE   C2515914   6.085   0.674  10.388  0.3090  0.5686  1.0706
  145SAPE   H5R15915   6.179   0.656  10.440  0.3951  1.1567  1.1255
  145SAPE   C2615916   6.082   0.725  10.262 -0.1013 -0.0993 -0.0699
  145SAPE   H6R15917   6.174   0.739  10.203 -1.1642  1.1716 -1.4650
  145SAPE   C2715918   5.959   0.761  10.183 -0.1396  0.3063 -0.1229
  145SAPE   H7R15919   5.869   0.772  10.248 -0.0648  0.2621 -0.0114
  145SAPE   H7S15920   5.932   0.684  10.108  1.2252 -0.0775 -0.2360
  145SAPE   C2815921   5.978   0.894  10.111  0.2288  0.7496  1.2245
  145SAPE   H8R15922   5.919   0.979  10.150 -1.3180  0.5047 -0.5545
  145SAPE   C2915923   6.041   0.914   9.994  0.5969 -0.0310  0.3281
  145SAPE   H9R15924   6.036   1.014   9.948  0.0471  0.3589  1.2291
  145SAPE  C21015925   6.113   0.815   9.904 -0.1155  0.3777 -0.0675
  145SAPE  H10R15926   6.076   0.836   9.801  0.5032 -0.5634 -0.4866
  145SAPE  H10S15927   6.093   0.711   9.936 -2.9509 -0.0336 -2.9821
  145SAPE  C21115928   6.265   0.829   9.906  0.0639 -0.3225  0.3906
  145SAPE  H11R15929   6.312   0.829  10.005 -1.1579 -2.3700  0.9873
  145SAPE  C21215930   6.341   0.832   9.800 -0.0708 -0.0317 -0.1552
  145SAPE  H12R15931   6.446   0.859   9.818 -0.4431 -0.1917  2.3450
  145SAPE  C21315932   6.307   0.829   9.654 -0.0899 -0.2886 -0.3059
  145SAPE  H13R15933   6.206   0.784   9.636 -0.3263 -0.0176  0.3472
  145SAPE  H13S15934   6.390   0.772   9.606 -1.7629 -2.0865 -1.1606
  145SAPE  C21415935   6.304   0.967   9.597  0.2702 -0.1445  0.3947
  145SAPE  H14R15936   6.344   1.058   9.645  2.0356 -0.4415 -0.4735
  145SAPE  C21515937   6.267   0.989   9.469  0.0036 -0.0074 -0.8140
  145SAPE  H15R15938   6.274   1.091   9.428 -3.5175 -0.5998 -3.0543
  145SAPE  C21615939   6.229   0.877   9.367  0.1714  0.4541 -0.2406
  145SAPE  H16R15940   6.215   0.777   9.414  0.3530  2.2462  3.8947
  145SAPE  H16S15941   6.307   0.874   9.288 -1.1017  1.2412 -1.5584
  145SAPE  C21715942   6.094   0.907   9.293 -0.9041 -0.3435  0.3442
  145SAPE  H17R15943   6.096   1.005   9.241 -0.6014 -0.1592  0.7007
  145SAPE  H17S15944   6.010   0.901   9.366 -1.1347 -0.5249  0.0676
  145SAPE  C21815945   6.070   0.800   9.182 -0.3171 -0.7024 -0.6045
  145SAPE  H18R15946   6.172   0.784   9.142  0.3012  1.4186  0.0682
  145SAPE  H18S15947   6.011   0.844   9.099 -0.8552 -1.0159 -0.3932
  145SAPE  C21915948   5.998   0.673   9.229  0.3689  0.2081 -0.1922
  145SAPE  H19R15949   6.050   0.641   9.322 -1.1443  0.8058  0.8840
  145SAPE  H19S15950   6.013   0.591   9.155  1.5261  2.1355 -2.1579
  145SAPE  C22015951   5.845   0.692   9.269 -0.5934  0.9012  0.5852
  145SAPE  H20R15952   5.841   0.761   9.356  0.3570 -2.7500  3.6740
  145SAPE  H20S15953   5.806   0.594   9.304 -0.5755  0.9336  0.6952
  145SAPE  H20T15954   5.788   0.730   9.181  1.3987  0.4499 -0.9597
  145SAPE   C3315955   5.602   0.392  10.532  0.1518 -0.5145 -0.4142
  145SAPE   H3X15956   5.712   0.385  10.525  0.1200 -1.4902  0.0147
  145SAPE   H3Y15957   5.578   0.501  10.529  0.5003 -0.4281 -0.0503
  145SAPE   C3415958   5.532   0.340  10.399  0.0403  0.0832  0.6003
  145SAPE   H4X15959   5.429   0.380  10.409 -0.7083 -2.2440  2.7684
  145SAPE   H4Y15960   5.529   0.229  10.395 -0.0611 -0.0001  2.3853
  145SAPE   C3515961   5.599   0.367  10.267 -0.1885  0.1434 -0.2878
  145SAPE   H5X15962   5.708   0.352  10.283 -0.0240  0.1686 -1.3064
  145SAPE   H5Y15963   5.591   0.476  10.246  0.7951  0.4092  0.6814
  145SAPE   C3615964   5.560   0.275  10.148  0.1360  1.0049  0.9266
  145SAPE   H6X15965   5.459   0.308  10.113  0.0211 -2.2823 -2.2002
  145SAPE   H6Y15966   5.550   0.166  10.171  0.1348  1.0753  1.2521
  145SAPE   C3715967   5.650   0.312  10.027  0.3816 -0.1060  0.7177
  145SAPE   H7X15968   5.626   0.254   9.935 -0.1189  1.1576  0.0367
  145SAPE   H7Y15969   5.751   0.269  10.043  0.8508  1.5309  2.3330
  145SAPE   C3815970   5.655   0.457   9.990 -0.3862 -0.0658  0.6423
  145SAPE   H8X15971   5.721   0.517  10.057  0.1933  0.0534 -0.0352
  145SAPE   H8Y15972   5.553   0.499  10.004 -0.2252  0.2965  0.7447
  145SAPE   C3915973   5.701   0.482   9.847  0.5616  0.7771  0.3083
  145SAPE   H9X15974   5.665   0.580   9.808 -1.9278 -1.0869 -2.3059
  145SAPE   H9Y15975   5.650   0.411   9.778 -1.3752  2.4217 -0.0308
  145SAPE  C31015976   5.850   0.475   9.831 -0.0180  0.6753 -0.0210
  145SAPE  H10X15977   5.883   0.377   9.873 -1.0805 -0.5358 -1.9141
  145SAPE  H10Y15978   5.893   0.565   9.880  1.5104  0.6881 -1.3754
  145SAPE  C31115979   5.898   0.482   9.688 -0.1421  0.1597 -0.2202
  145SAPE  H11X15980   5.872   0.582   9.649 -0.3059  0.1942 -0.0261
  145SAPE  H11Y15981   5.839   0.413   9.624 -2.4019  1.5649  0.3013
  145SAPE  C31215982   6.043   0.439   9.683 -1.0220  0.1558  0.2331
  145SAPE  H12X15983   6.053   0.332   9.711 -1.1519  0.2812  0.7679
  145SAPE  H12Y15984   6.096   0.505   9.755 -0.5259  1.1471 -1.0058
  145SAPE  C31315985   6.103   0.468   9.545 -0.1295 -1.0164 -0.3268
  145SAPE  H13X15986   6.109   0.578   9.528 -0.5119 -1.1300 -1.1659
  145SAPE  H13Y15987   6.033   0.430   9.469  2.2238 -0.9319 -2.6310
  145SAPE  C31415988   6.246   0.424   9.533 -0.3178  0.6233 -0.7505
  145SAPE  H14X15989   6.260   0.315   9.517 -0.3847  0.4480  0.3653
  145SAPE  H14Y15990   6.307   0.457   9.619 -1.0926  0.9242 -0.3114
  145SAPE  C31515991   6.318   0.490   9.407  0.1992 -0.4342  0.6936
  145SAPE  H15X15992   6.428   0.475   9.412  0.1639 -1.4202 -1.0178
  145SAPE  H15Y15993   6.304   0.600   9.412  0.0000 -0.3426 -1.4791
  145SAPE  C31615994   6.272   0.430   9.265  0.5207 -0.0874  0.2847
  145SAPE  H16X15995   6.163   0.438   9.244  0.4379  1.7710  1.2936
  145SAPE  H16Y15996   6.292   0.321   9.263 -1.5748 -0.5217  1.2990
  145SAPE  C31715997   6.344   0.494   9.151  0.0984 -0.0359 -0.5689
  145SAPE  H17X15998   6.453   0.470   9.149 -0.1463 -1.0998 -2.5875
  145SAPE  H17Y15999   6.348   0.605   9.154  0.0288 -0.0759  2.9403
  145SAPE  C31816000   6.290   0.458   9.016  0.7679  0.0379  0.3662
  145SAPE  H18X16001   6.194   0.510   8.994  0.4131  0.0241  1.8337
  145SAPE  H18Y16002   6.281   0.348   9.007 -2.4130 -0.1870  4.7859
  145SAPE  H18Z16003   6.360   0.490   8.935  0.9911  0.3165  0.6642
  146SAPE     N16004   3.475   0.077  11.038 -1.0975 -0.0857  0.4055
  146SAPE   HN116005   3.534  -0.006  11.019 -1.2586 -0.1951  0.3746
  146SAPE   HN216006   3.444   0.065  11.136  0.7055 -0.1688  0.9629
  146SAPE   HN316007   3.402   0.083  10.964 -1.1639 -2.0850  0.2766
  146SAPE   C1216008   3.567   0.198  11.023  1.0303 -0.5730 -0.3058
  146SAPE  H12A16009   3.622   0.206  11.119  0.3911  1.5522 -0.0740
  146SAPE  H12B16010   3.504   0.289  11.011  1.7173 -0.2504 -1.4974
  146SAPE   C1116011   3.654   0.197  10.900 -0.2365 -0.2715  0.1181
  146SAPE  H11A16012   3.717   0.288  10.894 -1.5181  0.5117 -2.4626
  146SAPE  H11B16013   3.587   0.194  10.811  1.9081  2.2049 -1.6707
  146SAPE     P16014   3.892   0.078  10.937  0.1552  0.0953 -0.2414
  146SAPE   O1316015   3.904   0.086  11.082 -0.4064  0.2227  0.1272
  146SAPE   O1416016   3.946  -0.040  10.871  0.1718  0.4233  0.6268
  146SAPE   O1216017   3.736   0.085  10.909 -0.5107  0.2949  0.0853
  146SAPE   O1116018   3.949   0.212  10.872 -0.1824 -0.3620 -0.2287
  146SAPE    C116019   3.937   0.222  10.728 -0.5664  0.3207 -0.6512
  146SAPE    HA16020   3.851   0.171  10.680  1.9938 -3.2823 -1.5593
  146SAPE    HB16021   3.916   0.324  10.689 -1.6526  0.9857  1.5782
  146SAPE    C216022   4.067   0.167  10.659 -0.2064 -0.1664 -0.0783
  146SAPE    HS16023   4.075   0.058  10.679 -0.6778 -0.1811  0.0325
  146SAPE   O2116024   4.182   0.243  10.709  0.7030  0.1887  0.2240
  146SAPE   C2116025   4.297   0.183  10.686 -0.3606 -0.7078 -0.2403
  146SAPE   O2216026   4.317   0.085  10.621 -0.6475  0.2304  0.2543
  146SAPE   C2216027   4.414   0.258  10.756 -0.0922 -0.0012 -0.7502
  146SAPE   H2R16028   4.389   0.262  10.864  0.7915  1.1318 -0.5851
  146SAPE   H2S16029   4.503   0.194  10.742  1.0913  1.2128  1.0896
  146SAPE    C316030   4.062   0.182  10.503  0.6932 -0.5825 -0.4173
  146SAPE    HX16031   4.141   0.124  10.450 -0.1520 -0.7604 -1.5028
  146SAPE    HY16032   4.079   0.291  10.487  1.9347 -0.6487  0.3515
  146SAPE   O3116033   3.931   0.157  10.456  0.0612 -0.0370 -0.0126
  146SAPE   C3116034   3.899   0.035  10.429  0.0428 -0.1049  0.4162
  146SAPE   O3216035   3.969  -0.064  10.439  0.2693  0.1250  1.0180
  146SAPE   C3216036   3.757   0.039  10.377  0.4029  0.1616  0.9295
  146SAPE   H2X16037   3.736   0.130  10.316 -0.5443 -1.1739 -0.7953
  146SAPE   H2Y16038   3.695   0.036  10.469  0.0264  1.0108  0.7110
  146SAPE   C2316039   4.451   0.400  10.693  0.7835 -1.0721  0.0699
  146SAPE   H3R16040   4.547   0.422  10.744  1.2140 -0.3589 -1.0395
  146SAPE   H3S16041   4.379   0.479  10.721  0.2514 -0.7163 -2.1467
  146SAPE   C2416042   4.464   0.402  10.539 -0.4112  0.2530  0.1829
  146SAPE   H4R16043   4.375   0.363  10.485 -0.6806  2.3258 -0.9387
  146SAPE   H4S16044   4.542   0.329  10.505  0.1784  1.8576 -2.0769
  146SAPE   C2516045   4.501   0.547  10.515  0.2821  0.1443  0.4164
  146SAPE   H5R16046   4.490   0.627  10.590 -0.8166  1.4203 -1.0682
  146SAPE   C2616047   4.574   0.581  10.406  0.3237  0.4846 -0.1655
  146SAPE   H6R16048   4.611   0.683  10.389 -1.0027  0.7934 -1.3817
  146SAPE   C2716049   4.619   0.484  10.300 -0.0976  0.3308  0.5384
  146SAPE   H7R16050   4.523   0.444  10.262 -0.9268  0.8589  2.0578
  146SAPE   H7S16051   4.658   0.393  10.350 -2.4725 -1.4523 -0.7436
  146SAPE   C2816052   4.717   0.535  10.194 -0.5917  0.0852 -0.0971
  146SAPE   H8R16053   4.805   0.591  10.231  0.0757  0.6143 -2.4320
  146SAPE   C2916054   4.698   0.530  10.059  0.5968  0.4779 -0.7209
  146SAPE   H9R16055   4.777   0.573   9.996 -0.1587  1.7614 -0.8208
  146SAPE  C21016056   4.578   0.482   9.988 -0.4355  0.2751 -0.6409
  146SAPE  H10R16057   4.526   0.409  10.053  1.4659  1.1820  1.9912
  146SAPE  H10S16058   4.600   0.439   9.889 -1.3320 -3.2491  0.6056
  146SAPE  C21116059   4.473   0.593   9.953 -0.1655 -0.7051  0.5887
  146SAPE  H11R16060   4.458   0.671  10.029 -0.5854  0.3567 -0.5731
  146SAPE  C21216061   4.380   0.591   9.858 -0.2079 -0.0338  0.6229
  146SAPE  H12R16062   4.319   0.683   9.856  1.9671  1.4634  1.3466
  146SAPE  C21316063   4.348   0.488   9.760 -0.2152  0.2241  0.1775
  146SAPE  H13R16064   4.250   0.448   9.795 -0.6364  0.4569 -0.7185
  146SAPE  H13S16065   4.419   0.403   9.758  0.0664  0.4314  1.1310
  146SAPE  C21416066   4.335   0.533   9.619  1.0945  0.0195  0.2529
  146SAPE  H14R16067   4.257   0.609   9.605  0.2405 -1.2261 -1.9600
  146SAPE  C21516068   4.406   0.492   9.510 -0.8406  0.0588  0.0239
  146SAPE  H15R16069   4.387   0.542   9.415  1.1545 -1.4275 -1.1965
  146SAPE  C21616070   4.523   0.398   9.510  0.3368  0.2769 -0.3014
  146SAPE  H16R16071   4.552   0.372   9.614 -1.9948 -0.5884  0.1694
  146SAPE  H16S16072   4.612   0.449   9.468  0.4418  2.6851  2.6513
  146SAPE  C21716073   4.473   0.274   9.432 -0.6398  0.0537  0.1607
  146SAPE  H17R16074   4.557   0.203   9.418 -0.4025  0.7761 -2.2923
  146SAPE  H17S16075   4.420   0.294   9.336 -1.2024 -0.4209  0.3724
  146SAPE  C21816076   4.359   0.199   9.504  0.5851 -1.1027  0.8563
  146SAPE  H18R16077   4.270   0.265   9.494  0.3633 -1.2549  1.7729
  146SAPE  H18S16078   4.390   0.198   9.611 -0.3598  1.8272  1.2186
  146SAPE  C21916079   4.335   0.062   9.448 -0.3478 -0.2918 -0.1030
  146SAPE  H19R16080   4.420   0.000   9.485 -0.1657  0.1118  0.1553
  146SAPE  H19S16081   4.332   0.067   9.337 -0.7790  0.2084 -0.0696
  146SAPE  C22016082   4.202   0.001   9.494 -0.6994 -0.0732  0.6162
  146SAPE  H20R16083   4.213  -0.103   9.532  1.2784 -1.0450 -2.4345
  146SAPE  H20S16084   4.139  -0.010   9.404 -0.9883 -0.6930  0.8886
  146SAPE  H20T16085   4.150   0.067   9.567 -1.9359  1.6212 -1.7356
  146SAPE   C3316086   3.720  -0.087  10.287  0.0605  0.5697  0.2506
  146SAPE   H3X16087   3.613  -0.092  10.259  0.2808  1.2635 -0.7171
  146SAPE   H3Y16088   3.742  -0.188  10.328  3.1618  1.7626  1.7365
  146SAPE   C3416089   3.796  -0.080  10.149  0.5782  0.2847 -0.1376
  146SAPE   H4X16090   3.774  -0.178  10.102 -1.0436  1.8394 -2.7198
  146SAPE   H4Y16091   3.905  -0.077  10.169  0.9193  1.5731 -2.1066
  146SAPE   C3516092   3.752   0.039  10.050 -0.2522 -0.0699 -0.0844
  146SAPE   H5X16093   3.792   0.135  10.089 -1.4419  0.4775 -0.2046
  146SAPE   H5Y16094   3.642   0.041  10.040 -0.1705  1.1629 -0.7699
  146SAPE   C3616095   3.822   0.015   9.912 -0.1213 -0.3094  0.0608
  146SAPE   H6X16096   3.905  -0.056   9.929 -0.5083 -0.5528  0.9989
  146SAPE   H6Y16097   3.853   0.117   9.881  1.6375 -0.7510  0.3603
  146SAPE   C3716098   3.742  -0.054   9.806 -0.9298 -0.0380 -0.0804
  146SAPE   H7X16099   3.648  -0.000   9.780 -2.1174 -2.5993 -1.2518
  146SAPE   H7Y16100   3.727  -0.159   9.839 -1.6992 -0.0765 -0.5336
  146SAPE   C3816101   3.836  -0.069   9.675 -0.5366 -0.1493  0.2137
  146SAPE   H8X16102   3.888  -0.166   9.688  1.0555  0.4376 -1.6524
  146SAPE   H8Y16103   3.909   0.015   9.674  2.4247 -2.6364  1.6206
  146SAPE   C3916104   3.758  -0.065   9.539  0.4777  0.5700 -0.1757
  146SAPE   H9X16105   3.681   0.015   9.533 -0.5704 -0.4655 -0.7266
  146SAPE   H9Y16106   3.699  -0.159   9.528  2.1840 -0.6803  1.0381
  146SAPE  C31016107   3.855  -0.056   9.417  0.2248  0.4910  0.6633
  146SAPE  H10X16108   3.924  -0.143   9.422 -0.8697 -0.3824  0.6740
  146SAPE  H10Y16109   3.921   0.033   9.425  2.6828 -1.2082 -0.1006
  146SAPE  C31116110   3.785  -0.050   9.280 -0.2706  0.0341 -0.6179
  146SAPE  H11X16111   3.719   0.039   9.287  0.6318  0.5471  2.1122
  146SAPE  H11Y16112   3.718  -0.138   9.279  0.4689 -0.5423 -0.4767
  146SAPE  C31216113   3.870  -0.049   9.151 -0.0351  0.1706  0.2895
  146SAPE  H12X16114   3.925  -0.144   9.133 -1.6055 -0.9660  1.3642
  146SAPE  H12Y16115   3.951   0.026   9.168 -1.6062  1.9552 -0.0149
  146SAPE  C31316116   3.782  -0.014   9.028  0.3869  0.2614 -0.9006
  146SAPE  H13X16117   3.726   0.080   9.045 -0.2697 -0.0642 -1.2087
  146SAPE  H13Y16118   3.694  -0.081   9.011 -0.5396  1.9090 -2.7643
  146SAPE  C31416119   3.858  -0.002   8.892  0.6054  0.4608 -0.4710
  146SAPE  H14X16120   3.923  -0.092   8.884  0.0761  0.2166 -2.1052
  146SAPE  H14Y16121   3.916   0.092   8.889 -0.6989  1.2769 -0.1085
  146SAPE  C31516122   3.761  -0.004   8.774  0.6734 -0.5841 -0.6863
  146SAPE  H15X16123   3.681   0.072   8.788 -0.2216 -1.4295 -1.0966
  146SAPE  H15Y16124   3.712  -0.103   8.763  0.1451 -0.2548 -1.3302
  146SAPE  C31616125   3.836   0.013   8.641  0.8191  0.2379  0.2860
  146SAPE  H16X16126   3.896  -0.077   8.615 -0.3155 -0.6076  0.5909
  146SAPE  H16Y16127   3.909   0.095   8.657  2.5008 -1.1611 -0.0179
  146SAPE  C31716128   3.732   0.049   8.525  0.5700  0.0815  0.3994
  146SAPE  H17X16129   3.756   0.152   8.490 -1.1126  0.1148 -0.7197
  146SAPE  H17Y16130   3.632   0.029   8.569  0.1557 -0.7646 -0.8965
  146SAPE  C31816131   3.749  -0.044   8.407 -0.4567 -0.4966 -0.0026
  146SAPE  H18X16132   3.676  -0.017   8.328 -0.5633 -0.4385  0.1141
  146SAPE  H18Y16133   3.733  -0.148   8.443 -0.9182 -0.3508  0.2178
  146SAPE  H18Z16134   3.847  -0.028   8.357 -1.0161 -1.3329 -1.3781
  147SAPE     N16135   6.731   4.031   6.398 -0.4588  0.5035  0.0093
  147SAPE   HN116136   6.757   4.119   6.447 -0.8652  1.5388 -1.5717
  147SAPE   HN216137   6.629   4.047   6.382 -0.4484 -0.8856 -1.5990
  147SAPE   HN316138   6.742   3.949   6.460  0.9146  0.4234 -0.3275
  147SAPE   C1216139   6.803   4.006   6.270  0.1763 -0.2090 -0.8782
  147SAPE  H12A16140   6.752   3.933   6.204 -2.1018 -0.0023  0.6069
  147SAPE  H12B16141   6.902   3.960   6.292  0.5395  0.9883  0.0521
  147SAPE   C1116142   6.818   4.141   6.187  0.4162  0.2237 -0.0142
  147SAPE  H11A16143   6.711   4.164   6.165  0.5819  1.4570  0.4200
  147SAPE  H11B16144   6.873   4.105   6.098  0.7684 -1.9826  1.0530
  147SAPE     P16145   6.948   4.364   6.235 -0.4556  0.0616  0.2677
  147SAPE   O1316146   7.035   4.329   6.121 -0.0179  0.0234  0.1217
  147SAPE   O1416147   6.860   4.479   6.209 -0.0061 -0.1618  0.4974
  147SAPE   O1216148   6.866   4.243   6.272 -0.4680  0.2597 -0.1560
  147SAPE   O1116149   7.033   4.397   6.364 -0.3612 -0.4520  0.4744
  147SAPE    C116150   6.968   4.447   6.482 -0.0358 -0.2113  1.2774
  147SAPE    HA16151   6.923   4.544   6.453 -0.4101 -1.3046 -1.9556
  147SAPE    HB16152   6.902   4.367   6.522 -1.1706  1.0255  1.9296
  147SAPE    C216153   7.083   4.467   6.588  0.0159 -0.8926 -0.4236
  147SAPE    HS16154   7.147   4.553   6.558  0.4707 -1.1131 -0.0838
  147SAPE   O2116155   7.150   4.344   6.602  0.3490  0.4298 -0.3003
  147SAPE   C2116156   7.279   4.352   6.624 -0.0522 -0.6792 -0.0856
  147SAPE   O2216157   7.347   4.451   6.641 -0.0867  0.8069 -0.1374
  147SAPE   C2216158   7.326   4.200   6.629 -0.2381 -0.1282 -0.1730
  147SAPE   H2R16159   7.276   4.148   6.713  1.7118  1.3769  1.9948
  147SAPE   H2S16160   7.292   4.163   6.530 -2.9958 -0.9293  1.0123
  147SAPE    C316161   7.019   4.519   6.718 -0.7173 -0.4627 -0.1599
  147SAPE    HX16162   6.946   4.449   6.764  0.4843  1.0699  4.4659
  147SAPE    HY16163   6.959   4.609   6.692  1.9869  2.1657  2.1960
  147SAPE   O3116164   7.118   4.573   6.818 -0.1416 -0.1909 -0.9088
  147SAPE   C3116165   7.156   4.482   6.900  0.6588  0.0383  0.7837
  147SAPE   O3216166   7.087   4.385   6.924 -0.2308 -0.0039 -0.5029
  147SAPE   C3216167   7.286   4.527   6.963 -0.2191 -0.1330  0.2790
  147SAPE   H2X16168   7.302   4.633   6.932 -0.1313 -0.2908 -0.2070
  147SAPE   H2Y16169   7.365   4.462   6.920 -2.0889 -2.4787  0.3168
  147SAPE   C2316170   7.479   4.183   6.630  0.0557  0.3554 -0.8465
  147SAPE   H3R16171   7.529   4.244   6.552  3.5045 -1.4379 -0.1487
  147SAPE   H3S16172   7.500   4.082   6.588  0.2190  0.7752 -1.7911
  147SAPE   C2416173   7.536   4.196   6.776 -0.2513  0.0436  0.3539
  147SAPE   H4R16174   7.486   4.115   6.835  0.7005 -0.4303  0.5248
  147SAPE   H4S16175   7.521   4.299   6.813  0.5117  0.6610 -1.0488
  147SAPE   C2516176   7.686   4.169   6.771 -0.2350 -0.3400 -0.3813
  147SAPE   H5R16177   7.729   4.139   6.674 -0.5135  1.5271 -1.0849
  147SAPE   C2616178   7.768   4.197   6.874 -0.1438 -0.3458 -0.8276
  147SAPE   H6R16179   7.870   4.161   6.855  0.9914  1.6577  1.1837
  147SAPE   C2716180   7.738   4.258   7.017  0.1327 -0.5296 -0.9507
  147SAPE   H7R16181   7.633   4.237   7.046  0.1277 -1.3399 -1.5414
  147SAPE   H7S16182   7.740   4.369   7.009  1.7103 -0.4963 -0.3450
  147SAPE   C2816183   7.814   4.209   7.136  0.0378 -0.3603 -0.2110
  147SAPE   H8R16184   7.796   4.102   7.156  0.8739 -0.3311  0.6987
  147SAPE   C2916185   7.926   4.273   7.182  0.4347 -0.8291 -0.1316
  147SAPE   H9R16186   7.986   4.226   7.262 -0.1585 -3.4869 -1.1936
  147SAPE  C21016187   7.965   4.414   7.141 -0.4495 -0.1642 -0.0357
  147SAPE  H10R16188   7.883   4.489   7.149  1.3542  1.5869  3.6041
  147SAPE  H10S16189   7.995   4.401   7.035  1.6271 -1.4463  0.6684
  147SAPE  C21116190   8.089   4.464   7.214  0.7302  0.9737 -0.2080
  147SAPE  H11R16191   8.185   4.447   7.162  0.9208 -1.7883  0.9711
  147SAPE  C21216192   8.087   4.527   7.333 -0.3377 -0.3546  0.0672
  147SAPE  H12R16193   8.189   4.551   7.366  1.2516 -1.7515 -3.4977
  147SAPE  C21316194   7.962   4.552   7.419  0.1371  0.4240  1.0043
  147SAPE  H13R16195   7.959   4.458   7.479  0.4885  0.3750  0.9515
  147SAPE  H13S16196   7.866   4.539   7.366  1.8136  0.1771 -2.0834
  147SAPE  C21416197   7.970   4.677   7.501 -0.3969  0.0111 -0.6292
  147SAPE  H14R16198   7.971   4.769   7.440 -2.2643 -0.2487 -1.0619
  147SAPE  C21516199   7.967   4.685   7.637 -0.4472  0.7862 -0.0890
  147SAPE  H15R16200   7.992   4.780   7.686  3.4232  0.3981 -1.1882
  147SAPE  C21616201   7.958   4.578   7.737 -0.1962 -0.5267 -0.0071
  147SAPE  H16R16202   7.932   4.480   7.692 -0.3744 -1.2420  1.6259
  147SAPE  H16S16203   7.875   4.598   7.808 -0.6786 -1.9026 -0.1762
  147SAPE  C21716204   8.086   4.554   7.823 -0.4703  0.0217 -0.1387
  147SAPE  H17R16205   8.089   4.640   7.893 -2.6676 -0.5377  0.6849
  147SAPE  H17S16206   8.175   4.547   7.758 -1.9899 -0.0992 -2.2594
  147SAPE  C21816207   8.068   4.429   7.916 -0.3456  0.0830  0.3710
  147SAPE  H18R16208   8.068   4.340   7.850  1.1077  1.6997 -1.9004
  147SAPE  H18S16209   7.968   4.435   7.963 -0.6517  1.4484 -0.4360
  147SAPE  C21916210   8.185   4.419   8.012  0.0481  0.5144  0.0502
  147SAPE  H19R16211   8.170   4.504   8.082  0.4435  1.1550 -0.6454
  147SAPE  H19S16212   8.274   4.441   7.949 -0.5414  3.2927  0.1060
  147SAPE  C22016213   8.191   4.290   8.092  0.3000 -0.4088  0.0192
  147SAPE  H20R16214   8.255   4.295   8.182 -0.3224 -2.5709  0.6046
  147SAPE  H20S16215   8.230   4.214   8.021  1.0515 -1.0571  1.1162
  147SAPE  H20T16216   8.087   4.262   8.118  0.1654 -1.6903 -1.8171
  147SAPE   C3316217   7.302   4.507   7.115 -0.5757 -0.2176  0.2064
  147SAPE   H3X16218   7.274   4.405   7.149 -0.7039 -0.2978 -0.1340
  147SAPE   H3Y16219   7.229   4.577   7.161  0.2487 -0.3497  1.7491
  147SAPE   C3416220   7.444   4.539   7.160  0.4707  0.1962 -0.5917
  147SAPE   H4X16221   7.469   4.634   7.108 -1.4661 -0.3558 -2.5771
  147SAPE   H4Y16222   7.516   4.472   7.107  0.3403 -0.7556  0.4358
  147SAPE   C3516223   7.469   4.555   7.312 -0.0985  0.6078  0.5755
  147SAPE   H5X16224   7.483   4.457   7.362 -0.0567  0.9918  1.3401
  147SAPE   H5Y16225   7.379   4.597   7.363  0.1074 -1.4336  2.7126
  147SAPE   C3616226   7.585   4.637   7.342 -0.5765  1.3658  0.5516
  147SAPE   H6X16227   7.578   4.743   7.311  1.6807  2.1418  2.5384
  147SAPE   H6Y16228   7.679   4.606   7.291 -1.3006 -1.9217  1.1072
  147SAPE   C3716229   7.618   4.642   7.496 -0.6648 -0.7756 -0.3078
  147SAPE   H7X16230   7.715   4.694   7.509  0.4013 -3.3143  2.7394
  147SAPE   H7Y16231   7.634   4.540   7.538 -2.6759 -1.2927 -0.7169
  147SAPE   C3816232   7.512   4.729   7.566 -0.1217 -0.5490  1.0604
  147SAPE   H8X16233   7.411   4.685   7.574  0.3067 -1.6397  0.5601
  147SAPE   H8Y16234   7.502   4.824   7.509  1.1776 -0.1710  1.4430
  147SAPE   C3916235   7.559   4.765   7.702  0.5450  0.0392  0.1880
  147SAPE   H9X16236   7.658   4.815   7.701  0.5499  0.0411  0.7822
  147SAPE   H9Y16237   7.572   4.667   7.753  0.3813  0.2114  0.5626
  147SAPE  C31016238   7.445   4.836   7.780  0.7760 -0.0729 -0.3627
  147SAPE  H10X16239   7.356   4.770   7.782 -0.2482  1.2932  2.0323
  147SAPE  H10Y16240   7.416   4.927   7.723  1.0758  0.5345  0.4395
  147SAPE  C31116241   7.493   4.870   7.926  0.5230 -0.2427  0.4680
  147SAPE  H11X16242   7.420   4.948   7.958 -2.2220 -2.8490  0.7301
  147SAPE  H11Y16243   7.592   4.917   7.908  0.4741 -0.4286 -0.3016
  147SAPE  C31216244   7.502   4.754   8.016 -1.0905 -0.6255  0.0940
  147SAPE  H12X16245   7.526   4.794   8.117 -1.9347 -0.6266  0.2968
  147SAPE  H12Y16246   7.587   4.686   7.992  0.7331  2.0746 -1.3899
  147SAPE  C31316247   7.372   4.681   8.033 -1.1079  0.2697 -0.1579
  147SAPE  H13X16248   7.355   4.634   7.934  0.7367 -2.7587  0.8946
  147SAPE  H13Y16249   7.286   4.749   8.054 -0.6960  0.6966  0.1575
  147SAPE  C31416250   7.367   4.574   8.141  0.4309  0.2374  0.0258
  147SAPE  H14X16251   7.375   4.628   8.238 -1.0204  0.0812  0.2479
  147SAPE  H14Y16252   7.449   4.499   8.140 -0.1020 -0.3416 -0.8272
  147SAPE  C31516253   7.229   4.505   8.158  0.6035  0.4569 -0.1153
  147SAPE  H15X16254   7.180   4.477   8.062 -0.6029 -1.0245  0.9105
  147SAPE  H15Y16255   7.158   4.578   8.201 -0.8555  0.0860 -1.8167
  147SAPE  C31616256   7.234   4.381   8.240 -0.1820 -0.1454 -0.8043
  147SAPE  H16X16257   7.136   4.363   8.289  0.1665  0.7991  0.2761
  147SAPE  H16Y16258   7.312   4.396   8.318 -0.5295  0.8912 -0.6414
  147SAPE  C31716259   7.274   4.264   8.148 -0.4883 -0.0920 -0.3386
  147SAPE  H17X16260   7.367   4.300   8.100 -0.2901 -0.1134  0.0301
  147SAPE  H17Y16261   7.195   4.238   8.075  0.8933 -1.2446 -1.4623
  147SAPE  C31816262   7.314   4.137   8.227  0.3435  0.2149 -0.0187
  147SAPE  H18X16263   7.230   4.089   8.283 -1.3833  0.8158 -2.0496
  147SAPE  H18Y16264   7.409   4.146   8.284  0.9734 -0.5811 -0.9250
  147SAPE  H18Z16265   7.338   4.059   8.152  2.2973  1.3108 -0.5723
  148SAPE     N16266   6.274   2.377   6.552  0.8742 -0.5540 -0.4801
  148SAPE   HN116267   6.182   2.423   6.563  0.5928 -1.6905  2.3793
  148SAPE   HN216268   6.311   2.386   6.455 -0.0338 -0.5276 -0.8285
  148SAPE   HN316269   6.255   2.276   6.569 -1.0823 -0.1148  0.1175
  148SAPE   C1216270   6.375   2.423   6.652 -0.2813  0.2358 -0.2485
  148SAPE  H12A16271   6.335   2.414   6.755 -0.3158 -1.6649 -0.4173
  148SAPE  H12B16272   6.389   2.531   6.632 -1.7230  0.7130  1.1735
  148SAPE   C1116273   6.500   2.338   6.644  0.7042 -0.5432 -0.7882
  148SAPE  H11A16274   6.471   2.231   6.654 -1.3278 -0.1477 -2.0418
  148SAPE  H11B16275   6.551   2.364   6.738  0.8371 -1.2679 -0.6557
  148SAPE     P16276   6.691   2.270   6.488  0.2504  0.1057 -0.5818
  148SAPE   O1316277   6.633   2.141   6.446 -0.0200 -0.0097  0.0527
  148SAPE   O1416278   6.765   2.338   6.377  0.1055 -0.8409  0.0528
  148SAPE   O1216279   6.572   2.361   6.527 -0.0762  0.1909 -0.2422
  148SAPE   O1116280   6.783   2.256   6.616 -0.4049  0.1804 -0.2269
  148SAPE    C116281   6.834   2.367   6.694  0.3364  1.1708 -0.3292
  148SAPE    HA16282   6.755   2.445   6.700 -2.1810 -1.3687  0.8508
  148SAPE    HB16283   6.860   2.338   6.798  0.1333  1.2505 -0.2554
  148SAPE    C216284   6.965   2.430   6.635  0.3039  0.0508  0.5308
  148SAPE    HS16285   6.967   2.444   6.525  0.1622 -2.8052  0.1132
  148SAPE   O2116286   7.078   2.368   6.686 -0.6715 -0.0303 -0.7176
  148SAPE   C2116287   7.119   2.252   6.632  0.0651 -0.0523  0.5427
  148SAPE   O2216288   7.083   2.206   6.524 -0.6502  0.1889 -0.2219
  148SAPE   C2216289   7.217   2.186   6.718 -0.1455  0.1364  0.1103
  148SAPE   H2R16290   7.267   2.114   6.649  1.7933  2.0158 -0.5012
  148SAPE   H2S16291   7.302   2.257   6.727  1.1904 -1.3031 -0.8173
  148SAPE    C316292   6.967   2.577   6.683  0.0017 -0.5635 -0.4663
  148SAPE    HX16293   6.883   2.623   6.627 -0.2037  0.5759  0.7577
  148SAPE    HY16294   7.065   2.621   6.656  0.8193 -0.5970  2.3173
  148SAPE   O3116295   6.940   2.580   6.824  0.1909 -0.3279  0.3040
  148SAPE   C3116296   7.047   2.597   6.901  0.2828 -0.0800  0.6275
  148SAPE   O3216297   7.160   2.603   6.854  0.2666 -0.0529  0.4529
  148SAPE   C3216298   7.011   2.617   7.048  0.0043 -0.1954  0.2273
  148SAPE   H2X16299   6.987   2.523   7.101 -1.1518  0.0685  0.1722
  148SAPE   H2Y16300   6.923   2.684   7.058  0.7167  0.8833 -0.5202
  148SAPE   C2316301   7.173   2.138   6.860 -0.2532 -0.3271 -0.9170
  148SAPE   H3R16302   7.141   2.033   6.848 -1.2905 -0.0138 -1.0041
  148SAPE   H3S16303   7.088   2.201   6.895  0.9688  1.8789 -1.7820
  148SAPE   C2416304   7.294   2.146   6.958 -0.0794  0.4089  0.1248
  148SAPE   H4R16305   7.381   2.103   6.903  1.3946  1.3451  1.6586
  148SAPE   H4S16306   7.270   2.079   7.044  0.0269  0.7741  0.4432
  148SAPE   C2516307   7.320   2.287   7.004 -0.6948 -0.0761 -0.3027
  148SAPE   H5R16308   7.337   2.369   6.933 -0.3370 -0.2971 -0.4767
  148SAPE   C2616309   7.323   2.338   7.132 -0.2111  0.9422 -1.0092
  148SAPE   H6R16310   7.358   2.442   7.137  2.6500 -0.0613  0.7026
  148SAPE   C2716311   7.297   2.262   7.258 -0.3272  0.1885 -0.3031
  148SAPE   H7R16312   7.308   2.330   7.346 -0.0506 -1.7083  1.1619
  148SAPE   H7S16313   7.371   2.181   7.275 -1.4532 -0.2295  3.0352
  148SAPE   C2816314   7.169   2.183   7.276  0.0844  0.2698 -0.5480
  148SAPE   H8R16315   7.112   2.154   7.187  2.3736 -3.6692 -0.8433
  148SAPE   C2916316   7.110   2.148   7.395  0.0739 -0.7621 -0.3786
  148SAPE   H9R16317   7.021   2.084   7.386  1.1724 -2.2196 -1.1783
  148SAPE  C21016318   7.167   2.176   7.530 -0.7921  0.7501  0.3814
  148SAPE  H10R16319   7.275   2.151   7.533 -1.0607 -0.6980 -1.3843
  148SAPE  H10S16320   7.101   2.118   7.597 -0.1443 -0.9744 -0.4509
  148SAPE  C21116321   7.151   2.322   7.572 -0.4630 -0.4298 -0.6855
  148SAPE  H11R16322   7.128   2.398   7.495  1.8892  1.1433  0.1211
  148SAPE  C21216323   7.164   2.377   7.699  0.3753  0.2734  0.3195
  148SAPE  H12R16324   7.147   2.485   7.714 -1.1191  0.2975 -1.3556
  148SAPE  C21316325   7.187   2.296   7.824  0.1799  0.2610  0.1607
  148SAPE  H13R16326   7.291   2.299   7.863 -0.4484  0.3011  1.8743
  148SAPE  H13S16327   7.186   2.187   7.799 -0.2634  0.0786  0.9403
  148SAPE  C21416328   7.076   2.307   7.929 -0.1409 -0.0846  0.3496
  148SAPE  H14R16329   6.981   2.320   7.875  0.9642 -1.1886 -1.9595
  148SAPE  C21516330   7.064   2.305   8.063 -0.1270 -0.1489  0.3443
  148SAPE  H15R16331   6.967   2.308   8.113 -1.2461  0.2413 -1.7921
  148SAPE  C21616332   7.178   2.283   8.161  0.3073 -0.1626  0.1751
  148SAPE  H16R16333   7.275   2.289   8.108  0.0561  1.1978 -0.1555
  148SAPE  H16S16334   7.159   2.181   8.202  0.9424 -1.4667 -2.6662
  148SAPE  C21716335   7.180   2.386   8.278 -0.6265 -0.1548 -0.1224
  148SAPE  H17R16336   7.260   2.345   8.343  0.1027  1.2939 -0.0974
  148SAPE  H17S16337   7.084   2.374   8.332 -0.4752 -0.0635  0.1681
  148SAPE  C21816338   7.219   2.521   8.222 -0.2159 -0.2490 -0.5072
  148SAPE  H18R16339   7.169   2.552   8.128 -1.6108 -0.2059  0.2380
  148SAPE  H18S16340   7.328   2.525   8.199  0.8101 -3.3785  3.1555
  148SAPE  C21916341   7.184   2.622   8.335 -0.4349 -0.2247  0.7948
  148SAPE  H19R16342   7.243   2.710   8.302  2.9950 -2.3062  1.1126
  148SAPE  H19S16343   7.227   2.587   8.431 -1.8424  1.3938  2.0494
  148SAPE  C22016344   7.039   2.656   8.357 -0.0762 -0.1973 -0.7457
  148SAPE  H20R16345   6.982   2.667   8.262  2.6032  2.0589 -2.1496
  148SAPE  H20S16346   7.036   2.748   8.420  0.1666  0.4516 -1.6644
  148SAPE  H20T16347   6.989   2.583   8.425 -3.1297  1.0948 -1.5088
  148SAPE   C3316348   7.136   2.680   7.125  0.1460  0.4236 -0.4432
  148SAPE   H3X16349   7.161   2.773   7.070 -0.8576  2.3346  2.2390
  148SAPE   H3Y16350   7.229   2.619   7.120 -0.1542 -0.1064  0.3504
  148SAPE   C3416351   7.109   2.706   7.270 -0.2349  0.0901 -0.4595
  148SAPE   H4X16352   7.065   2.617   7.319  0.6258 -0.4904 -0.7159
  148SAPE   H4Y16353   7.047   2.796   7.287  0.2647  0.7426 -2.0173
  148SAPE   C3516354   7.238   2.743   7.341  0.4454  0.1144  0.3002
  148SAPE   H5X16355   7.294   2.824   7.290 -0.5522 -0.3937 -1.6481
  148SAPE   H5Y16356   7.315   2.665   7.322  0.3673  0.3698 -1.1198
  148SAPE   C3616357   7.222   2.764   7.496 -0.2748 -0.4605  0.3825
  148SAPE   H6X16358   7.168   2.675   7.536 -1.0939 -0.9951 -1.8405
  148SAPE   H6Y16359   7.163   2.856   7.513 -1.3742 -1.1898  0.5290
  148SAPE   C3716360   7.358   2.779   7.562 -0.2038  1.0044  0.0435
  148SAPE   H7X16361   7.435   2.828   7.499 -0.5575  0.1076 -1.0966
  148SAPE   H7Y16362   7.386   2.676   7.594 -1.5317  0.8006  0.5702
  148SAPE   C3816363   7.347   2.853   7.700 -0.2607  0.2645 -0.3205
  148SAPE   H8X16364   7.335   2.957   7.662 -0.4077  1.4581  2.8550
  148SAPE   H8Y16365   7.437   2.839   7.762 -1.8428  0.0562  1.9844
  148SAPE   C3916366   7.224   2.814   7.785 -0.3280  0.2479 -0.2523
  148SAPE   H9X16367   7.201   2.705   7.784 -0.4693  0.2467  1.7401
  148SAPE   H9Y16368   7.144   2.879   7.744  0.1473 -0.9742 -3.2660
  148SAPE  C31016369   7.245   2.859   7.932  0.2232 -0.4476 -0.1423
  148SAPE  H10X16370   7.332   2.800   7.969  0.8863  1.4992  1.4224
  148SAPE  H10Y16371   7.167   2.821   8.001  0.3246 -0.4441 -0.0248
  148SAPE  C31116372   7.259   3.010   7.962 -0.1368 -0.0895  0.1881
  148SAPE  H11X16373   7.339   3.034   7.888  1.6016 -2.3640  1.2509
  148SAPE  H11Y16374   7.288   3.035   8.066  0.7685 -0.3231  0.0025
  148SAPE  C31216375   7.134   3.098   7.939  0.0335 -0.3656 -0.0266
  148SAPE  H12X16376   7.048   3.072   8.003 -1.2632  1.4124 -0.9934
  148SAPE  H12Y16377   7.107   3.083   7.832 -0.5154  0.4277 -0.0006
  148SAPE  C31316378   7.163   3.251   7.953 -0.0286  0.5637  0.8640
  148SAPE  H13X16379   7.082   3.305   7.899 -0.0073  0.2825  0.5481
  148SAPE  H13Y16380   7.259   3.288   7.910  1.3095 -2.4402  1.2025
  148SAPE  C31416381   7.160   3.294   8.100  0.3138 -0.4917 -0.5494
  148SAPE  H14X16382   7.245   3.236   8.143 -2.0613 -3.4224  0.3422
  148SAPE  H14Y16383   7.067   3.256   8.148 -0.0588  0.8072 -0.2335
  148SAPE  C31516384   7.185   3.445   8.138  0.0060  0.0127  0.1051
  148SAPE  H15X16385   7.259   3.477   8.062  1.6209 -0.3255  1.4982
  148SAPE  H15Y16386   7.232   3.459   8.238 -2.1630  2.2698  0.8616
  148SAPE  C31616387   7.049   3.524   8.122  0.7510 -0.9512 -0.3890
  148SAPE  H16X16388   6.978   3.513   8.207 -1.6332 -1.8756 -2.4445
  148SAPE  H16Y16389   6.999   3.479   8.034 -1.1113 -0.2983  0.3096
  148SAPE  C31716390   7.066   3.677   8.092 -0.2286 -0.0627  0.0954
  148SAPE  H17X16391   6.971   3.730   8.073  0.5671  2.5987  3.1910
  148SAPE  H17Y16392   7.126   3.692   7.999  1.1836 -1.7444  0.6967
  148SAPE  C31816393   7.140   3.764   8.199 -0.2442 -0.1350 -0.2716
  148SAPE  H18X16394   7.070   3.796   8.280  0.0285  2.9094 -1.1715
  148SAPE  H18Y16395   7.172   3.860   8.153  0.4403 -1.2020 -2.0677
  148SAPE  H18Z16396   7.229   3.718   8.247 -0.9951 -0.2290  1.0817
  149SAPE     N16397   5.773   3.618   6.721  0.3545 -0.3473 -0.9689
  149SAPE   HN116398   5.779   3.526   6.770 -4.4670 -0.0703  0.3775
  149SAPE   HN216399   5.828   3.681   6.783 -2.1978  0.9964 -0.0264
  149SAPE   HN316400   5.671   3.637   6.720  0.3304 -0.4539 -0.6428
  149SAPE   C1216401   5.825   3.601   6.583 -0.3835  0.1706 -0.0490
  149SAPE  H12A16402   5.936   3.598   6.582 -0.3631  0.9651 -0.6056
  149SAPE  H12B16403   5.793   3.688   6.521 -0.0556  1.5363  1.6497
  149SAPE   C1116404   5.770   3.473   6.522 -0.2386 -0.0009 -0.0598
  149SAPE  H11A16405   5.795   3.468   6.414 -1.6460  0.2548 -0.4156
  149SAPE  H11B16406   5.659   3.472   6.533 -0.2741  0.2779 -0.3953
  149SAPE     P16407   5.855   3.229   6.523  0.0199 -0.1128  0.0818
  149SAPE   O1316408   5.747   3.218   6.427 -0.6116  0.2137 -0.1671
  149SAPE   O1416409   5.992   3.231   6.469 -0.2696 -0.3504  0.6591
  149SAPE   O1216410   5.828   3.365   6.600 -0.3631  0.6459  0.0964
  149SAPE   O1116411   5.841   3.126   6.635  0.3154 -0.3566 -0.5876
  149SAPE    C116412   5.947   3.092   6.725 -0.1021 -0.7420 -0.2629
  149SAPE    HA16413   5.951   2.984   6.751 -0.5759 -0.6422  0.2301
  149SAPE    HB16414   6.049   3.110   6.683  0.4082 -1.4610  0.6334
  149SAPE    C216415   5.933   3.182   6.844 -0.3095 -0.0082  0.5923
  149SAPE    HS16416   5.962   3.285   6.813  0.0812  0.1549  1.4777
  149SAPE   O2116417   6.022   3.129   6.943  0.5828  0.2528  0.2555
  149SAPE   C2116418   6.109   3.211   6.999 -0.6409  0.2057  0.2192
  149SAPE   O2216419   6.115   3.331   6.968  0.3614  0.6162  0.4205
  149SAPE   C2216420   6.201   3.140   7.087  0.0750  0.6041  0.0294
  149SAPE   H2R16421   6.146   3.086   7.168 -1.0376  1.4394 -0.1567
  149SAPE   H2S16422   6.264   3.072   7.026  2.6433 -1.3507  4.5644
  149SAPE    C316423   5.786   3.180   6.898 -0.4257  0.5347 -0.2647
  149SAPE    HX16424   5.777   3.070   6.913  0.7354  0.6667  1.5985
  149SAPE    HY16425   5.712   3.212   6.823 -0.6096 -1.2802 -0.8965
  149SAPE   O3116426   5.766   3.239   7.029 -0.4598  0.0636 -0.3999
  149SAPE   C3116427   5.755   3.376   7.027  0.1378 -0.0822  0.7569
  149SAPE   O3216428   5.758   3.443   6.926  0.7674 -0.4544 -0.5314
  149SAPE   C3216429   5.749   3.421   7.172  0.0536 -0.4926 -0.3640
  149SAPE   H2X16430   5.656   3.374   7.211 -0.8153  0.2551 -1.4760
  149SAPE   H2Y16431   5.739   3.532   7.169  1.5616 -0.3339  0.1538
  149SAPE   C2316432   6.297   3.243   7.149 -0.0785 -0.1278 -0.4535
  149SAPE   H3R16433   6.265   3.283   7.247  0.9314  2.4833 -1.1315
  149SAPE   H3S16434   6.316   3.328   7.080  2.1775 -1.6797 -1.8053
  149SAPE   C2416435   6.444   3.194   7.167  0.3755 -0.3482  0.3003
  149SAPE   H4R16436   6.522   3.273   7.171  0.3470 -0.2140 -1.2247
  149SAPE   H4S16437   6.481   3.141   7.076  0.0690 -0.7066  0.3838
  149SAPE   C2516438   6.446   3.094   7.287 -0.2541  0.2018  0.7956
  149SAPE   H5R16439   6.370   3.014   7.284 -1.1558  1.0723 -2.1374
  149SAPE   C2616440   6.527   3.110   7.390 -0.3600  0.7886 -1.1879
  149SAPE   H6R16441   6.520   3.032   7.467 -1.5423  1.2363 -0.8360
  149SAPE   C2716442   6.624   3.225   7.412  0.7379  1.1355 -0.0889
  149SAPE   H7R16443   6.653   3.277   7.318  0.9893  2.1693  0.5507
  149SAPE   H7S16444   6.713   3.175   7.456 -0.1106 -0.6288 -0.3474
  149SAPE   C2816445   6.563   3.330   7.496 -0.0753  0.0714  0.6188
  149SAPE   H8R16446   6.493   3.396   7.444  2.8736  2.1282 -0.8883
  149SAPE   C2916447   6.591   3.366   7.621  0.6186  0.2666  0.3797
  149SAPE   H9R16448   6.527   3.448   7.655 -0.6107  0.2501 -1.8226
  149SAPE  C21016449   6.696   3.309   7.716  0.3785 -0.1340 -0.0853
  149SAPE  H10R16450   6.770   3.386   7.749  0.5650 -0.7802  1.0245
  149SAPE  H10S16451   6.761   3.232   7.669  2.6503  1.2740  0.6187
  149SAPE  C21116452   6.622   3.260   7.839  0.3137  0.9554 -0.5134
  149SAPE  H11R16453   6.602   3.152   7.837 -1.3288  1.2532 -1.2885
  149SAPE  C21216454   6.578   3.335   7.945 -0.2621 -0.8460 -0.4821
  149SAPE  H12R16455   6.538   3.288   8.036 -2.7233  0.8772 -0.6147
  149SAPE  C21316456   6.603   3.483   7.963  0.7260  0.6088 -0.6425
  149SAPE  H13R16457   6.506   3.537   7.959  0.6474  0.3149 -4.8589
  149SAPE  H13S16458   6.649   3.534   7.875  0.8124 -0.7476 -1.3968
  149SAPE  C21416459   6.669   3.524   8.088 -0.6837 -0.3899 -0.6023
  149SAPE  H14R16460   6.777   3.544   8.079 -0.6651  0.3042  1.1671
  149SAPE  C21516461   6.626   3.505   8.218  0.1514 -0.2274  0.4620
  149SAPE  H15R16462   6.698   3.539   8.293  1.5375  0.5964 -1.1997
  149SAPE  C21616463   6.497   3.456   8.263  0.7602  0.5463 -0.5413
  149SAPE  H16R16464   6.490   3.349   8.293  0.2548  0.3473 -1.3720
  149SAPE  H16S16465   6.417   3.461   8.186  0.9840  1.5945 -0.7046
  149SAPE  C21716466   6.445   3.537   8.384 -0.1661 -0.1893 -1.0646
  149SAPE  H17R16467   6.422   3.639   8.348  0.4178  0.4081  0.2294
  149SAPE  H17S16468   6.522   3.547   8.464  0.0631  0.3447 -1.3484
  149SAPE  C21816469   6.316   3.485   8.456  0.1629 -0.0547 -0.4555
  149SAPE  H18R16470   6.329   3.387   8.506 -1.4478 -0.4577 -0.8078
  149SAPE  H18S16471   6.228   3.476   8.390 -0.8371  1.3242  0.6621
  149SAPE  C21916472   6.260   3.563   8.583  0.6819 -1.1259  0.4256
  149SAPE  H19R16473   6.266   3.666   8.544 -1.4672 -1.4905 -0.9439
  149SAPE  H19S16474   6.317   3.548   8.677 -0.1213 -0.5509  1.0090
  149SAPE  C22016475   6.115   3.532   8.620 -0.0233 -0.8964  0.0815
  149SAPE  H20R16476   6.049   3.555   8.534  1.2270 -0.8832 -0.8952
  149SAPE  H20S16477   6.097   3.611   8.696 -0.0918 -0.3550 -0.4876
  149SAPE  H20T16478   6.101   3.435   8.672  1.0902 -0.3668  1.3774
  149SAPE   C3316479   5.886   3.399   7.251 -0.3905 -0.2729 -0.9544
  149SAPE   H3X16480   5.966   3.465   7.210  0.3896 -0.9618 -0.5456
  149SAPE   H3Y16481   5.916   3.293   7.247 -0.2081 -0.2329 -0.6684
  149SAPE   C3416482   5.855   3.443   7.402  0.7519 -0.2610  0.1196
  149SAPE   H4X16483   5.763   3.385   7.425 -2.5165  4.1828 -1.0101
  149SAPE   H4Y16484   5.828   3.550   7.397 -0.4904 -0.6360 -1.5641
  149SAPE   C3516485   5.966   3.423   7.505 -0.2028  0.5951 -0.6470
  149SAPE   H5X16486   6.058   3.472   7.467  1.5415  0.6595  3.4009
  149SAPE   H5Y16487   5.998   3.317   7.512 -3.7256 -0.4728  0.3938
  149SAPE   C3616488   5.935   3.474   7.638 -0.2740  0.1740  0.1859
  149SAPE   H6X16489   5.845   3.416   7.665 -0.2105 -0.7691 -1.5029
  149SAPE   H6Y16490   5.917   3.583   7.633 -1.0882  0.0608  0.6536
  149SAPE   C3716491   6.045   3.447   7.738 -0.5328 -0.0620  0.0499
  149SAPE   H7X16492   6.139   3.483   7.693 -1.1802  0.6306 -0.7683
  149SAPE   H7Y16493   6.053   3.337   7.753  0.2818  0.1958  1.5595
  149SAPE   C3816494   6.013   3.508   7.873 -0.0953 -0.4975  0.9545
  149SAPE   H8X16495   5.946   3.441   7.931  0.1079 -0.9671  0.6482
  149SAPE   H8Y16496   5.965   3.607   7.855 -1.0150 -1.0457  0.3634
  149SAPE   C3916497   6.128   3.538   7.963 -0.7885 -0.0794 -0.0457
  149SAPE   H9X16498   6.213   3.573   7.900 -0.0932  0.4133  1.1508
  149SAPE   H9Y16499   6.156   3.443   8.013 -1.6736 -1.5112 -2.1836
  149SAPE  C31016500   6.096   3.652   8.055  0.0862  0.2279  0.4062
  149SAPE  H10X16501   6.068   3.744   7.999 -1.6115  1.5362  3.3272
  149SAPE  H10Y16502   6.192   3.674   8.107  0.4284  0.8859 -0.4867
  149SAPE  C31116503   5.989   3.623   8.169  0.5400  0.5943  0.1451
  149SAPE  H11X16504   6.019   3.525   8.211  1.7990  1.1068  0.4624
  149SAPE  H11Y16505   5.887   3.607   8.128  0.2753  0.4093  0.8756
  149SAPE  C31216506   5.984   3.737   8.278  0.0609 -0.4571 -0.2605
  149SAPE  H12X16507   6.075   3.735   8.341 -0.8101 -3.1627  0.9632
  149SAPE  H12Y16508   5.900   3.710   8.346  0.5217 -0.8780  0.1393
  149SAPE  C31316509   5.969   3.878   8.228 -0.2682  0.1142  0.6909
  149SAPE  H13X16510   5.887   3.869   8.154  1.9579  2.8044 -2.2627
  149SAPE  H13Y16511   6.055   3.919   8.169 -1.5908  1.4130 -0.3629
  149SAPE  C31416512   5.932   3.987   8.330 -0.4859  0.0201  0.0210
  149SAPE  H14X16513   6.009   3.980   8.410  0.2732 -0.4075 -0.7388
  149SAPE  H14Y16514   5.834   3.965   8.378 -1.5534  0.3634 -1.9264
  149SAPE  C31516515   5.934   4.131   8.270 -0.2590  0.5328 -0.2535
  149SAPE  H15X16516   5.865   4.133   8.183  0.1760 -2.2712 -0.7049
  149SAPE  H15Y16517   6.038   4.140   8.234  0.6662 -1.9417  1.6380
  149SAPE  C31616518   5.888   4.236   8.379 -0.1804 -0.1026  0.3587
  149SAPE  H16X16519   5.917   4.337   8.344 -0.8032  0.5173  1.5961
  149SAPE  H16Y16520   5.941   4.223   8.476 -0.0359 -2.1576  0.0354
  149SAPE  C31716521   5.732   4.242   8.390 -0.4652 -0.5010  0.6040
  149SAPE  H17X16522   5.715   4.303   8.482 -2.8343 -0.8276  0.4024
  149SAPE  H17Y16523   5.696   4.143   8.423  0.9230 -1.0365  0.5176
  149SAPE  C31816524   5.656   4.280   8.268 -0.2858  0.6401 -0.4057
  149SAPE  H18X16525   5.638   4.191   8.204  1.1708 -0.2409  0.3687
  149SAPE  H18Y16526   5.708   4.362   8.214 -0.4599  1.7594  1.0973
  149SAPE  H18Z16527   5.557   4.326   8.291  0.6533  1.0889  3.0539
  150SAPE     N16528   5.466   4.829   6.344  0.4379  0.5239 -0.0216
  150SAPE   HN116529   5.487   4.799   6.247 -1.5254 -1.4596  0.1147
  150SAPE   HN216530   5.366   4.806   6.361  0.2683 -0.1499 -1.8158
  150SAPE   HN316531   5.480   4.930   6.361  2.3603 -0.1754  2.9361
  150SAPE   C1216532   5.550   4.767   6.450 -0.5578  0.3623 -0.5449
  150SAPE  H12A16533   5.519   4.819   6.543  0.1965 -0.9498  0.4508
  150SAPE  H12B16534   5.659   4.780   6.435  0.2466 -2.6178  2.0477
  150SAPE   C1116535   5.520   4.617   6.474  0.1084  0.4075 -0.1945
  150SAPE  H11A16536   5.420   4.608   6.522  0.4708  0.0186  0.4855
  150SAPE  H11B16537   5.591   4.575   6.547 -0.4370 -0.1750  0.0014
  150SAPE     P16538   5.465   4.397   6.361 -0.0363  0.1100 -0.1978
  150SAPE   O1316539   5.318   4.410   6.365 -0.1161 -0.2755  0.2052
  150SAPE   O1416540   5.515   4.316   6.248  0.2449 -0.1898  0.0285
  150SAPE   O1216541   5.536   4.538   6.355  0.7187  0.5478 -0.1343
  150SAPE   O1116542   5.505   4.328   6.499  0.1494  0.2145 -0.0184
  150SAPE    C116543   5.438   4.225   6.562 -0.3704 -0.4898 -0.2426
  150SAPE    HA16544   5.327   4.233   6.550 -0.3046  1.0225  0.0886
  150SAPE    HB16545   5.473   4.131   6.515 -1.6094 -0.3171 -1.5620
  150SAPE    C216546   5.463   4.235   6.714 -0.3125 -0.5436 -0.1567
  150SAPE    HS16547   5.400   4.150   6.747 -2.6005  0.8656 -0.7339
  150SAPE   O2116548   5.406   4.358   6.763 -1.3115  0.0583 -0.1240
  150SAPE   C2116549   5.280   4.376   6.767  0.2621 -0.3119  0.0451
  150SAPE   O2216550   5.198   4.293   6.733  0.2278 -0.6516  0.0417
  150SAPE   C2216551   5.248   4.508   6.824  0.9067 -0.4974  0.6333
  150SAPE   H2R16552   5.248   4.505   6.935  1.3105  1.9018  0.7222
  150SAPE   H2S16553   5.325   4.579   6.787  1.4345 -1.3514  0.0739
  150SAPE    C316554   5.608   4.218   6.773  0.1698 -0.2258 -0.0481
  150SAPE    HX16555   5.678   4.300   6.745  0.0817 -0.2717 -0.4145
  150SAPE    HY16556   5.641   4.121   6.729 -0.5350 -1.0459  1.2051
  150SAPE   O3116557   5.608   4.204   6.917  0.0780  0.7148  0.4762
  150SAPE   C3116558   5.635   4.084   6.966  0.0479  0.8059 -0.3112
  150SAPE   O3216559   5.670   3.982   6.913  0.5120  0.3519  0.1974
  150SAPE   C3216560   5.604   4.086   7.117 -0.3431  0.0737 -0.2551
  150SAPE   H2X16561   5.506   4.033   7.126 -0.4689 -0.2848 -3.2738
  150SAPE   H2Y16562   5.586   4.191   7.147 -1.8493 -0.2106 -0.0916
  150SAPE   C2316563   5.109   4.559   6.786  0.2296 -0.5137  0.2585
  150SAPE   H3R16564   5.034   4.509   6.851 -0.2288 -0.4553 -0.2340
  150SAPE   H3S16565   5.076   4.534   6.684  0.6900  0.3850 -0.1144
  150SAPE   C2416566   5.099   4.713   6.808  0.1625  0.3825 -0.2237
  150SAPE   H4R16567   5.138   4.747   6.907 -0.7114  1.9170 -0.3884
  150SAPE   H4S16568   4.990   4.735   6.800  0.0397 -0.1069  0.0794
  150SAPE   C2516569   5.170   4.786   6.698  0.1544  0.9271  0.7996
  150SAPE   H5R16570   5.126   4.786   6.598  0.8903 -1.8053  0.4172
  150SAPE   C2616571   5.275   4.864   6.712 -0.3425  0.2460  0.0373
  150SAPE   H6R16572   5.323   4.898   6.619 -2.1725  2.1645 -0.2362
  150SAPE   C2716573   5.357   4.884   6.840 -0.0278  0.1140  0.5312
  150SAPE   H7R16574   5.465   4.864   6.822 -0.4438 -1.0829 -0.7233
  150SAPE   H7S16575   5.333   4.804   6.912 -2.2594 -0.9603 -1.3296
  150SAPE   C2816576   5.329   5.020   6.902 -0.2220  0.3524  0.1830
  150SAPE   H8R16577   5.333   5.101   6.827  2.9400 -0.3681 -0.4988
  150SAPE   C2916578   5.289   5.044   7.030  0.8219  0.7936 -0.4939
  150SAPE   H9R16579   5.265   5.149   7.053 -0.1189  0.1949  1.3476
  150SAPE  C21016580   5.254   4.944   7.143  0.3516 -0.0634 -0.3886
  150SAPE  H10R16581   5.315   4.852   7.130 -0.1848 -0.4039 -0.5284
  150SAPE  H10S16582   5.150   4.913   7.119  0.8918 -1.8310 -0.4937
  150SAPE  C21116583   5.270   5.008   7.277  0.1752  0.0134  0.9629
  150SAPE  H11R16584   5.353   5.080   7.274  1.9650 -1.9858  1.0161
  150SAPE  C21216585   5.204   4.986   7.395 -0.2687 -0.1638  0.4162
  150SAPE  H12R16586   5.233   5.042   7.485 -0.6731  1.3015 -0.3480
  150SAPE  C21316587   5.085   4.899   7.420 -0.0167 -0.3173 -0.3077
  150SAPE  H13R16588   5.060   4.827   7.340 -1.6280 -1.9039  1.5852
  150SAPE  H13S16589   4.992   4.960   7.423 -0.5461 -1.1810  1.2223
  150SAPE  C21416590   5.105   4.834   7.555 -0.7538 -0.6070  0.7506
  150SAPE  H14R16591   5.178   4.752   7.551 -1.3296 -1.0633 -0.6243
  150SAPE  C21516592   5.065   4.875   7.677 -0.1453 -0.3169  0.3765
  150SAPE  H15R16593   5.073   4.797   7.754  3.4154 -0.1722  0.2243
  150SAPE  C21616594   4.982   4.998   7.705 -0.0645 -0.3187 -0.3827
  150SAPE  H16R16595   4.892   4.958   7.757 -0.0389  0.7896  0.5244
  150SAPE  H16S16596   4.942   5.046   7.614 -1.5923  0.7986  0.8546
  150SAPE  C21716597   5.037   5.101   7.804 -0.1100  0.9671 -0.1739
  150SAPE  H17R16598   5.030   5.060   7.907 -1.2267  1.5913  0.0036
  150SAPE  H17S16599   4.968   5.188   7.798  0.0088  1.0510 -0.3186
  150SAPE  C21816600   5.175   5.160   7.766  0.4602 -0.4277  0.0381
  150SAPE  H18R16601   5.172   5.231   7.680  2.2148  0.1849  0.4534
  150SAPE  H18S16602   5.246   5.077   7.741 -0.2599 -0.5705 -1.6128
  150SAPE  C21916603   5.225   5.247   7.892  0.2870 -0.1526  0.2756
  150SAPE  H19R16604   5.150   5.324   7.920  0.6494  0.9829 -1.8067
  150SAPE  H19S16605   5.312   5.305   7.856 -0.7489  1.0800 -0.2654
  150SAPE  C22016606   5.248   5.169   8.023  0.0316  0.3788 -0.5309
  150SAPE  H20R16607   5.267   5.241   8.105  3.4433 -1.7728  0.6424
  150SAPE  H20S16608   5.318   5.083   8.012 -0.4831  0.0521 -1.3717
  150SAPE  H20T16609   5.155   5.114   8.051  0.1778  0.0541 -0.6807
  150SAPE   C3316610   5.702   4.022   7.225 -0.2060 -0.2167 -0.2694
  150SAPE   H3X16611   5.802   4.068   7.233  0.4297 -1.7995  1.1990
  150SAPE   H3Y16612   5.707   3.916   7.194  0.6676 -0.4943  0.7983
  150SAPE   C3416613   5.636   4.036   7.364  0.4391  0.1142  0.4475
  150SAPE   H4X16614   5.536   3.987   7.371  0.0217  0.7650 -0.7983
  150SAPE   H4Y16615   5.611   4.141   7.388 -2.9101 -1.0049  2.2071
  150SAPE   C3516616   5.708   3.979   7.485  0.0040  0.2734  0.7766
  150SAPE   H5X16617   5.791   4.043   7.523 -0.0273  1.8954 -1.7760
  150SAPE   H5Y16618   5.756   3.884   7.454  0.4933  1.5129 -2.3979
  150SAPE   C3616619   5.616   3.926   7.597 -0.2140 -0.1516  0.7511
  150SAPE   H6X16620   5.554   3.843   7.559 -0.2811 -1.0431  2.7793
  150SAPE   H6Y16621   5.548   4.006   7.634  1.2438  0.1782  2.7870
  150SAPE   C3716622   5.698   3.875   7.713 -0.0744  0.5764  0.0354
  150SAPE   H7X16623   5.752   3.963   7.755  1.2548  0.0295 -0.5141
  150SAPE   H7Y16624   5.782   3.820   7.666  0.5080  0.4259  1.2214
  150SAPE   C3816625   5.608   3.789   7.808 -0.4014 -0.2531 -0.4639
  150SAPE   H8X16626   5.553   3.706   7.758 -1.8884  1.8067 -2.3516
  150SAPE   H8Y16627   5.524   3.847   7.850  0.1318  0.0811  0.1552
  150SAPE   C3916628   5.694   3.730   7.928 -0.4197 -0.2711  0.3084
  150SAPE   H9X16629   5.744   3.813   7.982 -1.3535  0.0472  0.6998
  150SAPE   H9Y16630   5.767   3.663   7.878 -0.0517  0.7566 -0.5256
  150SAPE  C31016631   5.610   3.657   8.034 -0.5159  0.1686  0.0102
  150SAPE  H10X16632   5.672   3.605   8.110 -0.7022 -0.6314 -0.3786
  150SAPE  H10Y16633   5.543   3.585   7.982  0.5469 -0.2313 -0.8133
  150SAPE  C31116634   5.529   3.761   8.113 -0.1086 -0.1450 -0.3095
  150SAPE  H11X16635   5.509   3.852   8.053  1.1258 -0.0059 -0.5258
  150SAPE  H11Y16636   5.594   3.787   8.199 -0.3164 -0.8274  0.0598
  150SAPE  C31216637   5.403   3.691   8.164 -0.3809 -0.2378  0.4984
  150SAPE  H12X16638   5.420   3.643   8.262  1.2744  1.4182  1.0471
  150SAPE  H12Y16639   5.365   3.624   8.083 -1.3119  1.4034 -0.4720
  150SAPE  C31316640   5.297   3.800   8.205  0.2773  0.4255  0.4935
  150SAPE  H13X16641   5.202   3.749   8.231  0.6513  0.1445  1.3320
  150SAPE  H13Y16642   5.294   3.870   8.119  0.1404  0.4576  0.5242
  150SAPE  C31416643   5.341   3.878   8.329 -0.6039  0.4691 -0.6875
  150SAPE  H14X16644   5.422   3.951   8.305 -0.5343  1.1626  1.5638
  150SAPE  H14Y16645   5.402   3.808   8.390  1.2807  1.6212 -1.1855
  150SAPE  C31516646   5.229   3.940   8.412  0.2308  0.0920 -0.5155
  150SAPE  H15X16647   5.156   3.868   8.454  0.7084 -1.1272 -1.7413
  150SAPE  H15Y16648   5.172   4.010   8.347  0.8775 -0.0143 -1.2039
  150SAPE  C31616649   5.275   4.024   8.536  0.3744  0.3495  0.1546
  150SAPE  H16X16650   5.192   4.048   8.605 -2.4988  0.8598 -3.3290
  150SAPE  H16Y16651   5.324   4.118   8.503  3.2895 -1.9375 -2.3726
  150SAPE  C31716652   5.371   3.948   8.622 -0.5251  0.4372 -0.1810
  150SAPE  H17X16653   5.459   3.927   8.558 -0.1383 -1.4316  0.9516
  150SAPE  H17Y16654   5.331   3.856   8.669  1.7633  1.2907  3.7568
  150SAPE  C31816655   5.423   4.036   8.736 -0.0672  0.3623  0.1192
  150SAPE  H18X16656   5.519   3.995   8.773  0.0136  0.9030  0.5070
  150SAPE  H18Y16657   5.339   4.033   8.809 -1.3434  1.0489 -1.2843
  150SAPE  H18Z16658   5.451   4.141   8.709 -0.1391  0.4755  0.4824
  151SAPE     N16659   1.441   1.291   6.231 -0.0032 -0.0364  0.0174
  151SAPE   HN116660   1.395   1.370   6.181  0.0519 -0.1508 -0.2122
  151SAPE   HN216661   1.438   1.212   6.164 -0.7702  0.0185 -0.0185
  151SAPE   HN316662   1.382   1.266   6.312  0.7886 -0.9814  0.3190
  151SAPE   C1216663   1.584   1.324   6.283  0.5116 -0.2696 -0.1443
  151SAPE  H12A16664   1.647   1.364   6.201 -0.7851  0.0199 -1.0149
  151SAPE  H12B16665   1.617   1.226   6.324 -1.4448 -0.8953  0.0101
  151SAPE   C1116666   1.564   1.428   6.399  0.3352 -0.0969 -0.1475
  151SAPE  H11A16667   1.664   1.459   6.438 -0.0489 -1.0002  1.6387
  151SAPE  H11B16668   1.508   1.372   6.477 -1.1510  1.7212  0.1228
  151SAPE     P16669   1.342   1.576   6.404  0.0379  0.2298  0.1977
  151SAPE   O1316670   1.292   1.665   6.302  0.0550  0.6847  0.6180
  151SAPE   O1416671   1.269   1.444   6.420 -0.2127 -0.3727  0.1065
  151SAPE   O1216672   1.496   1.548   6.363 -0.2201  0.0058  0.0405
  151SAPE   O1116673   1.357   1.637   6.541 -0.1691 -0.2773  0.8230
  151SAPE    C116674   1.419   1.770   6.567  0.4524  0.2277 -0.4796
  151SAPE    HA16675   1.524   1.778   6.531  0.3018 -0.7145 -1.1512
  151SAPE    HB16676   1.361   1.851   6.518 -0.7457 -0.5372 -0.3318
  151SAPE    C216677   1.422   1.801   6.717  0.0331  0.5059  0.5450
  151SAPE    HS16678   1.473   1.899   6.731  1.2510 -0.2697  1.6186
  151SAPE   O2116679   1.496   1.697   6.785 -0.0503  0.0890  0.2184
  151SAPE   C2116680   1.627   1.697   6.784 -0.1527 -0.4214 -0.8168
  151SAPE   O2216681   1.701   1.771   6.718  0.1761 -0.0093 -0.2694
  151SAPE   C2216682   1.666   1.570   6.869 -0.7380  1.0929  0.4044
  151SAPE   H2R16683   1.666   1.601   6.976 -2.0311 -0.5383  0.8945
  151SAPE   H2S16684   1.588   1.492   6.866 -0.8211  1.2113 -0.8155
  151SAPE    C316685   1.276   1.786   6.772 -0.0018 -0.0031 -0.4142
  151SAPE    HX16686   1.254   1.678   6.782  0.4472 -0.0309  0.3262
  151SAPE    HY16687   1.202   1.826   6.699  0.1171  0.2675 -0.3867
  151SAPE   O3116688   1.253   1.843   6.903  0.2220 -0.4177  0.6075
  151SAPE   C3116689   1.223   1.973   6.910  0.1185 -0.6156 -0.5076
  151SAPE   O3216690   1.194   2.053   6.826 -0.4931 -0.4866  0.0314
  151SAPE   C3216691   1.255   2.007   7.055 -0.5475  0.2988  0.7738
  151SAPE   H2X16692   1.357   1.966   7.074 -0.9755 -0.4348  1.5153
  151SAPE   H2Y16693   1.188   1.962   7.131  0.4727 -0.5989  1.1496
  151SAPE   C2316694   1.805   1.500   6.827 -0.0576 -0.3971 -0.3869
  151SAPE   H3R16695   1.854   1.556   6.745  0.5515  1.7065  1.3610
  151SAPE   H3S16696   1.772   1.400   6.794  0.1399 -0.5508 -0.1224
  151SAPE   C2416697   1.901   1.500   6.945  0.3185 -0.1031 -0.5512
  151SAPE   H4R16698   1.977   1.423   6.922  0.5608 -0.4015  1.1941
  151SAPE   H4S16699   1.849   1.450   7.030  0.1829 -1.5563 -1.4731
  151SAPE   C2516700   1.970   1.622   6.995 -0.0637  0.3168  0.4838
  151SAPE   H5R16701   2.045   1.659   6.924  3.7284  0.6113  4.4185
  151SAPE   C2616702   1.986   1.667   7.129  0.2741  0.9182 -0.1825
  151SAPE   H6R16703   2.056   1.748   7.153  0.8214  0.3662  0.1017
  151SAPE   C2716704   1.934   1.597   7.255 -0.3843  0.2733 -0.5300
  151SAPE   H7R16705   1.825   1.589   7.239 -0.1643 -0.7595 -1.5769
  151SAPE   H7S16706   1.954   1.661   7.344 -2.0086 -0.3792  0.3251
  151SAPE   C2816707   1.993   1.457   7.271  0.3123 -0.5943 -0.1082
  151SAPE   H8R16708   2.004   1.396   7.180  0.2345 -2.5026  1.1287
  151SAPE   C2916709   2.025   1.409   7.394 -0.7417  0.1334 -0.2053
  151SAPE   H9R16710   2.066   1.308   7.410 -1.2565  0.3215  2.5020
  151SAPE  C21016711   2.011   1.481   7.522 -0.8083 -0.1142  0.2372
  151SAPE  H10R16712   1.909   1.524   7.533 -2.2523 -3.1754 -0.6087
  151SAPE  H10S16713   2.077   1.568   7.503 -1.9559  0.8032  0.4225
  151SAPE  C21116714   2.050   1.418   7.657  0.6036 -0.3543  0.2585
  151SAPE  H11R16715   2.131   1.345   7.640  0.9687  0.2383 -0.6533
  151SAPE  C21216716   1.988   1.435   7.772 -0.3696  0.4270  0.0057
  151SAPE  H12R16717   2.028   1.385   7.862  0.1302 -0.2364 -0.5787
  151SAPE  C21316718   1.882   1.540   7.802 -0.1303 -0.3138 -0.1590
  151SAPE  H13R16719   1.849   1.594   7.710  1.6216 -1.0578 -1.2545
  151SAPE  H13S16720   1.925   1.628   7.854  0.3255 -2.9040  3.9945
  151SAPE  C21416721   1.765   1.494   7.890  0.2524 -1.1815 -0.3883
  151SAPE  H14R16722   1.785   1.493   7.998 -2.0586  0.6884  0.0851
  151SAPE  C21516723   1.639   1.461   7.852  0.3233  1.0802  0.1222
  151SAPE  H15R16724   1.569   1.425   7.929  2.6324 -0.7223  1.4877
  151SAPE  C21616725   1.582   1.459   7.711  0.6494 -0.2863 -0.3509
  151SAPE  H16R16726   1.616   1.548   7.654  1.2237 -0.2728  0.0117
  151SAPE  H16S16727   1.472   1.448   7.715  0.7578 -1.1170  0.7591
  151SAPE  C21716728   1.627   1.339   7.620  0.3791 -0.1043  0.0821
  151SAPE  H17R16729   1.586   1.248   7.667  0.2616 -0.0558  0.0727
  151SAPE  H17S16730   1.737   1.322   7.623  0.5681  0.3980 -2.6641
  151SAPE  C21816731   1.570   1.338   7.476 -0.6684 -0.4786  0.2300
  151SAPE  H18R16732   1.462   1.361   7.482 -0.2900  1.6458 -0.5463
  151SAPE  H18S16733   1.588   1.234   7.440  1.4817 -0.1236  0.1644
  151SAPE  C21916734   1.632   1.434   7.376  0.3296 -0.1740  0.3073
  151SAPE  H19R16735   1.739   1.408   7.371  0.1685 -0.6765 -0.6778
  151SAPE  H19S16736   1.622   1.532   7.428 -0.3088  0.7172 -1.4445
  151SAPE  C22016737   1.553   1.439   7.246  0.0688  0.0553  0.5936
  151SAPE  H20R16738   1.563   1.335   7.210  1.3552  0.5691 -0.5831
  151SAPE  H20S16739   1.452   1.483   7.260  0.0662  0.4146 -0.5270
  151SAPE  H20T16740   1.614   1.511   7.187 -1.5418 -0.4429 -1.7455
  151SAPE   C3316741   1.262   2.161   7.071  0.3087 -0.2384 -0.3032
  151SAPE   H3X16742   1.180   2.216   7.020  1.2458  1.5055  0.0319
  151SAPE   H3Y16743   1.361   2.200   7.036  0.4284 -0.9030 -0.7165
  151SAPE   C3416744   1.254   2.206   7.217 -0.0029  0.2631 -0.1138
  151SAPE   H4X16745   1.334   2.160   7.279  2.0050 -1.4067 -3.7696
  151SAPE   H4Y16746   1.157   2.173   7.260  1.5302 -2.5937  1.2708
  151SAPE   C3516747   1.275   2.358   7.231  0.1416  0.4616 -0.0691
  151SAPE   H5X16748   1.178   2.407   7.208  0.0193  1.1193  1.7373
  151SAPE   H5Y16749   1.344   2.405   7.157 -0.2946  1.0259 -0.1220
  151SAPE   C3616750   1.310   2.400   7.374 -0.2736  0.1447  0.1213
  151SAPE   H6X16751   1.337   2.508   7.375  0.4321 -0.0211 -0.8533
  151SAPE   H6Y16752   1.407   2.353   7.398  0.1685  1.1719  0.3832
  151SAPE   C3716753   1.213   2.359   7.482  0.4147 -0.4878  0.0972
  151SAPE   H7X16754   1.173   2.257   7.469 -2.1086  0.7601 -2.4088
  151SAPE   H7Y16755   1.130   2.432   7.470  1.3200  0.4317 -0.7445
  151SAPE   C3816756   1.277   2.357   7.623  0.2685 -0.5343  0.4263
  151SAPE   H8X16757   1.353   2.275   7.625  1.5552  0.6184 -0.3012
  151SAPE   H8Y16758   1.193   2.336   7.693  0.2324 -4.9236 -0.7594
  151SAPE   C3916759   1.355   2.485   7.647  0.5448  0.5333  0.0645
  151SAPE   H9X16760   1.297   2.580   7.636  2.0444  1.2389 -2.1058
  151SAPE   H9Y16761   1.444   2.499   7.583  2.1702  0.4390  2.2486
  151SAPE  C31016762   1.418   2.493   7.791 -0.0336  0.7725  0.1479
  151SAPE  H10X16763   1.511   2.554   7.793  0.2968  0.2567  0.7106
  151SAPE  H10Y16764   1.448   2.392   7.826  0.8767  2.6921  5.3133
  151SAPE  C31116765   1.321   2.555   7.885 -0.7345  0.7206 -0.0945
  151SAPE  H11X16766   1.223   2.513   7.855 -0.2639 -0.6302  0.2428
  151SAPE  H11Y16767   1.329   2.666   7.879  2.2335  0.4857 -1.1605
  151SAPE  C31216768   1.357   2.513   8.029 -0.6331 -0.2854  0.1703
  151SAPE  H12X16769   1.440   2.574   8.071  0.2669 -0.1956 -1.6993
  151SAPE  H12Y16770   1.384   2.405   8.026 -0.0726 -0.1032 -1.7344
  151SAPE  C31316771   1.228   2.526   8.120  0.5241  0.8476  0.3253
  151SAPE  H13X16772   1.151   2.468   8.064  0.2915  2.3273 -0.9035
  151SAPE  H13Y16773   1.196   2.632   8.127 -1.5751  0.4135 -2.0825
  151SAPE  C31416774   1.253   2.465   8.256  0.1664  0.0540  0.8951
  151SAPE  H14X16775   1.342   2.514   8.300 -0.9861  2.7841  0.2773
  151SAPE  H14Y16776   1.283   2.360   8.235 -0.2764  0.2408 -0.6730
  151SAPE  C31516777   1.127   2.462   8.349 -0.2166  0.2002  0.4504
  151SAPE  H15X16778   1.041   2.430   8.287 -0.7233  1.2549  0.5953
  151SAPE  H15Y16779   1.103   2.559   8.397 -1.4544 -0.5132  1.3139
  151SAPE  C31616780   1.152   2.363   8.456  0.6564 -0.3034  0.1304
  151SAPE  H16X16781   1.226   2.412   8.522 -0.7399  0.3071  1.2719
  151SAPE  H16Y16782   1.202   2.273   8.415  4.0738  2.1010 -1.1338
  151SAPE  C31716783   1.023   2.337   8.536 -0.1383  0.8039  0.2021
  151SAPE  H17X16784   0.953   2.296   8.460 -1.2325  2.4270  0.3242
  151SAPE  H17Y16785   0.972   2.429   8.571 -1.5252  0.5582 -1.1268
  151SAPE  C31816786   1.048   2.249   8.658  0.0127 -0.1840 -0.6480
  151SAPE  H18X16787   1.092   2.306   8.743  1.8738 -2.6023  0.0754
  151SAPE  H18Y16788   1.118   2.165   8.639  0.6288  0.4177 -1.0652
  151SAPE  H18Z16789   0.954   2.208   8.701 -0.5685  1.5092 -0.2528
  152SAPE     N16790   5.117   4.385   6.159  0.8416  0.1899 -0.2946
  152SAPE   HN116791   5.192   4.361   6.091 -0.2371 -2.4191 -0.6212
  152SAPE   HN216792   5.180   4.422   6.233  2.4499  0.4472 -1.7683
  152SAPE   HN316793   5.055   4.308   6.192  0.6947  0.3580 -0.1738
  152SAPE   C1216794   5.045   4.498   6.096  0.2064 -0.4974  0.3579
  152SAPE  H12A16795   4.975   4.452   6.023 -1.5141  1.9222  0.4130
  152SAPE  H12B16796   5.117   4.569   6.050  1.4673 -3.5122 -2.4591
  152SAPE   C1116797   4.948   4.569   6.193  0.2510 -0.1553 -0.4632
  152SAPE  H11A16798   4.865   4.499   6.215 -1.4715  1.4442 -1.6836
  152SAPE  H11B16799   4.904   4.657   6.141 -0.7590 -0.8656 -0.8051
  152SAPE     P16800   5.092   4.750   6.309 -0.2227  0.4056  0.3401
  152SAPE   O1316801   5.222   4.725   6.379 -0.2856 -0.5614  0.3257
  152SAPE   O1416802   5.100   4.798   6.172  0.2782  1.0460  0.0818
  152SAPE   O1216803   5.012   4.616   6.316 -0.1398 -0.0164  0.1930
  152SAPE   O1116804   5.004   4.856   6.387  0.2225  0.0865  1.0810
  152SAPE    C116805   4.867   4.877   6.369 -0.9688 -0.3145 -0.3115
  152SAPE    HA16806   4.857   4.969   6.307 -1.4213 -0.9143 -1.1424
  152SAPE    HB16807   4.822   4.791   6.315 -0.1981 -0.5782 -0.5331
  152SAPE    C216808   4.796   4.887   6.506 -0.4727  0.1396 -0.0760
  152SAPE    HS16809   4.693   4.924   6.485 -1.4652 -1.4165  1.9425
  152SAPE   O2116810   4.857   4.963   6.606 -0.4966 -0.1140  0.4059
  152SAPE   C2116811   4.856   5.095   6.591  0.0785  0.7154  0.0807
  152SAPE   O2216812   4.799   5.155   6.500 -0.1639 -0.0577 -0.4688
  152SAPE   C2216813   4.934   5.166   6.702  0.0280 -1.0956 -0.3667
  152SAPE   H2R16814   4.873   5.148   6.793 -0.7908 -0.1974 -0.7211
  152SAPE   H2S16815   5.035   5.125   6.723  1.8661  3.2735  0.0390
  152SAPE    C316816   4.781   4.742   6.565  0.2749  0.3235 -0.1422
  152SAPE    HX16817   4.885   4.705   6.582 -1.3031 -3.7872  1.1539
  152SAPE    HY16818   4.747   4.676   6.482  0.5240 -0.0830  0.0748
  152SAPE   O3116819   4.694   4.742   6.678  0.6770  0.1089  0.6659
  152SAPE   C3116820   4.671   4.626   6.729 -0.0169 -0.3572  0.0168
  152SAPE   O3216821   4.723   4.522   6.696 -0.4672 -0.3551  0.8826
  152SAPE   C3216822   4.567   4.635   6.834  0.0404 -0.3992 -0.1719
  152SAPE   H2X16823   4.501   4.548   6.820 -0.1708 -0.0952 -1.0677
  152SAPE   H2Y16824   4.501   4.724   6.833  1.6854  0.8889  1.2919
  152SAPE   C2316825   4.943   5.324   6.693 -0.0576 -0.2707  0.4112
  152SAPE   H3R16826   4.837   5.351   6.675 -0.2000 -1.3666 -0.4475
  152SAPE   H3S16827   5.007   5.338   6.604  3.0687  1.0966  2.7631
  152SAPE   C2416828   5.012   5.393   6.815  0.5227  0.0005 -0.2729
  152SAPE   H4R16829   5.045   5.498   6.798  1.6631 -0.1481  0.9029
  152SAPE   H4S16830   5.099   5.331   6.847  1.2502  1.7969  1.3372
  152SAPE   C2516831   4.911   5.400   6.925  0.1402 -0.1232 -0.1737
  152SAPE   H5R16832   4.831   5.473   6.908 -0.1783 -0.1223  1.2646
  152SAPE   C2616833   4.899   5.332   7.042  0.4515 -0.0477  0.2453
  152SAPE   H6R16834   4.815   5.361   7.106 -1.0945 -3.1255 -0.3037
  152SAPE   C2716835   4.987   5.226   7.092  0.4289 -0.4462  0.0969
  152SAPE   H7R16836   5.094   5.256   7.093 -0.1466  1.6555  1.5080
  152SAPE   H7S16837   4.991   5.156   7.006 -0.2641 -0.5165  0.1260
  152SAPE   C2816838   4.951   5.154   7.217 -0.2204  0.0939 -0.1611
  152SAPE   H8R16839   4.929   5.047   7.203 -1.6415  0.4790 -1.0536
  152SAPE   C2916840   4.957   5.216   7.341 -0.2517 -1.0193 -0.2049
  152SAPE   H9R16841   4.934   5.160   7.432 -0.5665  0.2792  0.5257
  152SAPE  C21016842   4.996   5.356   7.358  0.0503  0.4812 -0.1776
  152SAPE  H10R16843   5.048   5.408   7.275 -0.0693  1.0285  0.0932
  152SAPE  H10S16844   5.065   5.353   7.445 -0.0380 -2.0225 -0.1545
  152SAPE  C21116845   4.877   5.443   7.388 -0.2839 -0.5575 -0.3022
  152SAPE  H11R16846   4.834   5.493   7.300  0.3881  0.0652 -0.2889
  152SAPE  C21216847   4.825   5.470   7.512  0.1556 -0.3698  0.1006
  152SAPE  H12R16848   4.739   5.535   7.531 -0.1115 -0.8355  0.4966
  152SAPE  C21316849   4.882   5.411   7.638  0.4366 -0.4751  0.0191
  152SAPE  H13R16850   4.954   5.485   7.679  0.5823 -0.1689 -0.7942
  152SAPE  H13S16851   4.935   5.314   7.626  0.5768 -0.2286 -1.4033
  152SAPE  C21416852   4.774   5.381   7.739  0.9972  0.0690  1.1327
  152SAPE  H14R16853   4.697   5.306   7.716  1.3184  0.1021 -0.0822
  152SAPE  C21516854   4.745   5.447   7.852 -0.1463 -0.0075 -0.4484
  152SAPE  H15R16855   4.663   5.415   7.919  1.7255  0.2159  1.9908
  152SAPE  C21616856   4.811   5.566   7.922 -0.4436  0.1594  0.0897
  152SAPE  H16R16857   4.874   5.618   7.847 -0.4303  0.0577  0.0304
  152SAPE  H16S16858   4.864   5.527   8.011  0.8691 -0.2027 -0.8372
  152SAPE  C21716859   4.705   5.663   7.973  0.7870 -0.9761  1.1800
  152SAPE  H17R16860   4.627   5.611   8.033  0.6957 -2.9968 -0.6464
  152SAPE  H17S16861   4.648   5.698   7.885 -0.1396 -2.3467  1.2090
  152SAPE  C21816862   4.763   5.781   8.057  0.0613  0.1390 -0.2701
  152SAPE  H18R16863   4.684   5.856   8.076  0.2064 -0.3244  2.4369
  152SAPE  H18S16864   4.835   5.841   7.998 -0.4140  0.5515 -0.4281
  152SAPE  C21916865   4.815   5.731   8.203 -0.6076  0.2991  0.1850
  152SAPE  H19R16866   4.897   5.660   8.180  0.0772  0.4149  2.2112
  152SAPE  H19S16867   4.733   5.672   8.250 -1.7390  1.5554 -0.1639
  152SAPE  C22016868   4.862   5.846   8.289  0.1697  0.2322  0.3501
  152SAPE  H20R16869   4.787   5.928   8.285 -0.3166 -0.2191  0.1247
  152SAPE  H20S16870   4.952   5.895   8.244 -0.3779  1.1755  0.2748
  152SAPE  H20T16871   4.883   5.818   8.394 -0.7575  3.7480  1.5425
  152SAPE   C3316872   4.625   4.607   6.971 -0.0169 -0.1134 -0.2803
  152SAPE   H3X16873   4.695   4.520   6.974 -0.4012 -0.3847  1.0019
  152SAPE   H3Y16874   4.535   4.591   7.034  0.2782  1.7139  0.6243
  152SAPE   C3416875   4.705   4.730   7.020 -0.6501 -0.0529 -0.2671
  152SAPE   H4X16876   4.639   4.818   7.035  0.7227  0.7418  1.2101
  152SAPE   H4Y16877   4.788   4.749   6.949  0.8885 -3.1544  0.5885
  152SAPE   C3516878   4.778   4.717   7.157 -0.1747 -0.2875 -0.6960
  152SAPE   H5X16879   4.836   4.812   7.162 -1.1948  0.3824 -1.3844
  152SAPE   H5Y16880   4.851   4.633   7.164 -0.6383 -0.5832  0.6508
  152SAPE   C3616881   4.682   4.717   7.283 -0.9425  0.3408 -0.0841
  152SAPE   H6X16882   4.631   4.619   7.287  0.2479 -0.3644 -1.8233
  152SAPE   H6Y16883   4.608   4.800   7.284 -0.1893  1.0416 -1.5886
  152SAPE   C3716884   4.766   4.725   7.417 -0.0797 -0.1473  0.9780
  152SAPE   H7X16885   4.793   4.830   7.444  2.8400 -1.0481  1.7143
  152SAPE   H7Y16886   4.860   4.667   7.405  1.5262  2.6403 -0.5043
  152SAPE   C3816887   4.688   4.672   7.541 -0.3217  0.1316 -0.1008
  152SAPE   H8X16888   4.696   4.561   7.531 -1.1256 -0.0238  0.8529
  152SAPE   H8Y16889   4.580   4.697   7.536 -0.3465 -0.1518 -1.1873
  152SAPE   C3916890   4.754   4.699   7.681 -0.1305 -0.3516  0.2889
  152SAPE   H9X16891   4.738   4.808   7.695 -1.3440 -0.3640 -0.9047
  152SAPE   H9Y16892   4.861   4.671   7.683 -0.1973 -0.6693 -0.4960
  152SAPE  C31016893   4.680   4.629   7.801 -0.2776 -0.1517  0.0898
  152SAPE  H10X16894   4.670   4.521   7.777 -1.6451 -0.0175 -0.0000
  152SAPE  H10Y16895   4.576   4.668   7.804 -1.1216 -2.0336 -2.5801
  152SAPE  C31116896   4.757   4.629   7.931 -0.4259  0.9552  0.3034
  152SAPE  H11X16897   4.860   4.610   7.894 -0.3126  0.3810  0.9000
  152SAPE  H11Y16898   4.716   4.551   7.998 -1.6142  1.5147  0.2409
  152SAPE  C31216899   4.766   4.763   8.002 -0.5699  0.3490  0.4914
  152SAPE  H12X16900   4.668   4.807   8.030 -1.3635 -2.0443  1.6573
  152SAPE  H12Y16901   4.814   4.837   7.934 -2.4298  0.7931 -0.3792
  152SAPE  C31316902   4.858   4.749   8.117 -0.3718 -0.2059  0.0070
  152SAPE  H13X16903   4.952   4.701   8.081  1.5232  2.5479  1.1278
  152SAPE  H13Y16904   4.802   4.683   8.187  1.0956 -1.5886 -0.0850
  152SAPE  C31416905   4.893   4.882   8.190  0.3394  0.2335 -0.2773
  152SAPE  H14X16906   4.798   4.908   8.241  1.5926  2.1284  1.1272
  152SAPE  H14Y16907   4.925   4.963   8.122  2.4287  1.1221  1.6815
  152SAPE  C31516908   5.000   4.871   8.301 -0.0683  0.1858  0.1696
  152SAPE  H15X16909   5.092   4.825   8.259 -0.3495  0.2962 -0.5855
  152SAPE  H15Y16910   4.965   4.795   8.374  1.1305  1.0939  1.7168
  152SAPE  C31616911   5.029   5.010   8.373 -0.3156  0.1756  0.2542
  152SAPE  H16X16912   4.934   5.051   8.412 -0.5432 -0.9807  0.9499
  152SAPE  H16Y16913   5.082   5.068   8.294 -1.0443 -1.1648 -1.2394
  152SAPE  C31716914   5.139   4.995   8.486 -0.6286 -0.3321  0.2896
  152SAPE  H17X16915   5.110   4.911   8.553  2.2091 -1.4418  0.1990
  152SAPE  H17Y16916   5.137   5.090   8.544  0.8483  2.1208 -3.4551
  152SAPE  C31816917   5.282   4.963   8.437 -0.0372 -0.8123  0.6291
  152SAPE  H18X16918   5.304   5.048   8.369  1.5080 -0.7044  1.2193
  152SAPE  H18Y16919   5.284   4.869   8.379 -3.6106 -1.4179  1.4145
  152SAPE  H18Z16920   5.362   4.952   8.514  1.0004 -0.1558 -0.3328
  153SAPE     N16921   1.265   5.421   6.040 -0.2505 -0.0327 -0.1022
  153SAPE   HN116922   1.290   5.320   6.033  0.6548  0.0833  1.2836
  153SAPE   HN216923   1.185   5.441   5.976 -2.7410 -1.7763  2.3864
  153SAPE   HN316924   1.354   5.461   6.004  0.4096 -0.4643  1.0443
  153SAPE   C1216925   1.248   5.447   6.186 -0.4172  0.5133 -0.3002
  153SAPE  H12A16926   1.322   5.389   6.245 -0.6768 -0.9006 -1.3264
  153SAPE  H12B16927   1.152   5.397   6.210 -0.5832  1.5863  1.3542
  153SAPE   C1116928   1.231   5.594   6.215 -0.5620 -0.4733 -0.0988
  153SAPE  H11A16929   1.230   5.616   6.323  3.0370  0.0113 -0.1150
  153SAPE  H11B16930   1.136   5.631   6.172  1.0727  2.1427 -1.5540
  153SAPE     P16931   1.470   5.697   6.212 -0.4136  0.2466 -0.0746
  153SAPE   O1316932   1.541   5.568   6.188 -0.0598 -0.0638  0.0587
  153SAPE   O1416933   1.531   5.821   6.158  0.6470  0.4658  0.1993
  153SAPE   O1216934   1.331   5.680   6.146 -0.0353 -0.5105 -0.8474
  153SAPE   O1116935   1.439   5.707   6.364 -0.2533 -0.8000  0.1766
  153SAPE    C116936   1.377   5.828   6.419  0.4057 -0.4445 -0.2479
  153SAPE    HA16937   1.455   5.907   6.418  3.9280 -3.7742 -1.5127
  153SAPE    HB16938   1.306   5.863   6.341  0.1989  0.5656  0.3828
  153SAPE    C216939   1.328   5.814   6.572 -0.6845  0.3171  0.0062
  153SAPE    HS16940   1.330   5.912   6.625 -1.3844  0.1230  0.3953
  153SAPE   O2116941   1.412   5.720   6.640 -0.4772 -0.2706 -0.1867
  153SAPE   C2116942   1.538   5.765   6.645 -0.1121  0.0016  0.8027
  153SAPE   O2216943   1.579   5.879   6.625 -0.0270  0.1193 -0.5322
  153SAPE   C2216944   1.633   5.660   6.692  0.0221 -0.0471  0.4438
  153SAPE   H2R16945   1.591   5.558   6.693 -1.0206  0.3705  0.1650
  153SAPE   H2S16946   1.720   5.672   6.623 -1.2901  1.4657 -0.9913
  153SAPE    C316947   1.182   5.757   6.572 -0.7719 -0.3763 -0.7982
  153SAPE    HX16948   1.173   5.654   6.530 -0.7045 -0.3808 -0.8021
  153SAPE    HY16949   1.132   5.827   6.502 -3.3276 -1.2990  0.0319
  153SAPE   O3116950   1.128   5.761   6.706 -0.5008 -0.1070 -0.4231
  153SAPE   C3116951   0.995   5.773   6.703  0.0624  0.0812  0.6466
  153SAPE   O3216952   0.926   5.733   6.609  0.4395  0.5144  0.2257
  153SAPE   C3216953   0.954   5.805   6.844 -0.2472 -0.4343 -0.9745
  153SAPE   H2X16954   0.930   5.704   6.885 -1.7983  0.1611 -0.3809
  153SAPE   H2Y16955   0.861   5.866   6.839  0.8389  1.2941 -0.5306
  153SAPE   C2316956   1.693   5.686   6.836 -0.2585  0.4231 -0.0766
  153SAPE   H3R16957   1.619   5.711   6.915 -0.4775 -3.9236  1.2339
  153SAPE   H3S16958   1.772   5.764   6.833  1.6795 -1.5654 -3.2958
  153SAPE   C2416959   1.757   5.557   6.904 -0.2306 -0.6524 -0.5731
  153SAPE   H4R16960   1.710   5.462   6.871  3.1507 -2.4233 -0.5497
  153SAPE   H4S16961   1.735   5.563   7.013  0.4932  1.1625 -0.4969
  153SAPE   C2516962   1.905   5.543   6.874 -0.1343  0.6983  0.4403
  153SAPE   H5R16963   1.930   5.553   6.767  0.6726 -1.7418  0.3680
  153SAPE   C2616964   2.007   5.533   6.960  0.1978  0.1459  0.3331
  153SAPE   H6R16965   2.111   5.524   6.926 -0.2772 -0.4891 -0.9741
  153SAPE   C2716966   1.992   5.522   7.109  0.1356 -0.0919 -0.1073
  153SAPE   H7R16967   2.045   5.432   7.147  0.1776 -0.0393 -0.0402
  153SAPE   H7S16968   1.885   5.510   7.135 -0.0027 -1.9811 -1.3914
  153SAPE   C2816969   2.046   5.650   7.168  0.3331 -0.0248 -0.0966
  153SAPE   H8R16970   2.063   5.738   7.104 -0.9309  0.5594  0.3521
  153SAPE   C2916971   2.044   5.667   7.302 -1.0267  0.7029 -0.2098
  153SAPE   H9R16972   2.099   5.752   7.346  3.0927 -2.2386  0.6661
  153SAPE  C21016973   2.002   5.570   7.408 -0.0948 -0.1652  0.3244
  153SAPE  H10R16974   2.092   5.510   7.433 -1.1031 -1.5370  0.7299
  153SAPE  H10S16975   1.931   5.492   7.372 -0.9708  0.7764 -0.0256
  153SAPE  C21116976   1.946   5.635   7.531  0.0087 -0.6717 -0.1053
  153SAPE  H11R16977   1.836   5.639   7.534  0.0152 -0.7972  0.2743
  153SAPE  C21216978   2.010   5.664   7.645  0.5294  0.8933  0.1366
  153SAPE  H12R16979   1.961   5.717   7.728 -0.8989 -2.4110  1.4742
  153SAPE  C21316980   2.161   5.641   7.669  0.2813 -0.0439  0.3964
  153SAPE  H13R16981   2.214   5.606   7.578  0.8635  3.1897 -0.5674
  153SAPE  H13S16982   2.167   5.565   7.750  2.9334  1.6450  1.8241
  153SAPE  C21416983   2.227   5.774   7.708  0.0547  0.2297  0.4967
  153SAPE  H14R16984   2.235   5.831   7.615  0.6925  1.2706  1.1880
  153SAPE  C21516985   2.259   5.820   7.833  0.0042  0.3609 -1.2203
  153SAPE  H15R16986   2.290   5.924   7.848 -1.7113  0.6805  0.2973
  153SAPE  C21616987   2.229   5.756   7.969 -0.0080  0.4546 -0.4853
  153SAPE  H16R16988   2.321   5.704   8.003 -0.2544 -0.1528 -0.7314
  153SAPE  H16S16989   2.153   5.677   7.950  0.6257 -0.5644  1.0555
  153SAPE  C21716990   2.174   5.845   8.084 -0.3551  0.1698  0.8512
  153SAPE  H17R16991   2.181   5.781   8.174  1.2589  0.9127  1.2786
  153SAPE  H17S16992   2.068   5.859   8.053 -0.4195  0.1864  1.0776
  153SAPE  C21816993   2.250   5.966   8.117  0.0750  0.6232  0.4761
  153SAPE  H18R16994   2.266   6.026   8.025  0.2062 -0.4448 -0.1987
  153SAPE  H18S16995   2.355   5.938   8.141 -0.2321  0.8631  2.1840
  153SAPE  C21916996   2.192   6.045   8.237 -0.2212 -0.2340  0.0120
  153SAPE  H19R16997   2.108   5.980   8.272 -2.5483  2.5965 -0.1216
  153SAPE  H19S16998   2.138   6.135   8.202 -0.0118 -0.1413 -0.0745
  153SAPE  C22016999   2.301   6.067   8.349  0.0366 -0.6291 -0.1888
  153SAPE  H20R17000   2.253   6.083   8.448 -0.2012  1.1059 -0.5713
  153SAPE  H20S17001   2.364   6.151   8.314 -0.3297 -0.8016 -1.2880
  153SAPE  H20T17002   2.364   5.975   8.351 -0.6508 -1.1116 -0.1829
  153SAPE   C3317003   1.047   5.898   6.936  0.0973 -0.6143  0.9782
  153SAPE   H3X17004   1.041   5.999   6.888 -2.0046 -3.8353 -6.2481
  153SAPE   H3Y17005   1.152   5.861   6.935  0.1399 -0.5038 -1.0493
  153SAPE   C3417006   0.985   5.913   7.072  0.3227  0.5858  0.0403
  153SAPE   H4X17007   0.969   5.812   7.115 -0.3139 -0.5461 -2.7653
  153SAPE   H4Y17008   0.884   5.958   7.061 -0.7842 -1.3019  2.1393
  153SAPE   C3517009   1.055   5.991   7.181  0.4637 -0.2881  0.4524
  153SAPE   H5X17010   0.994   6.081   7.202  2.5413  1.3093 -0.1636
  153SAPE   H5Y17011   1.151   6.034   7.144 -0.1751  1.4734  0.7857
  153SAPE   C3617012   1.081   5.918   7.312  0.4442 -0.4068 -0.3116
  153SAPE   H6X17013   1.146   5.828   7.300  0.3975 -0.4075 -0.5450
  153SAPE   H6Y17014   0.992   5.862   7.348  0.5175 -0.1617  0.2602
  153SAPE   C3717015   1.143   6.000   7.427  0.2310 -0.0091  0.3889
  153SAPE   H7X17016   1.081   6.079   7.473  0.0024  0.2955 -0.4395
  153SAPE   H7Y17017   1.235   6.052   7.393  0.8957 -2.7349 -2.1859
  153SAPE   C3817018   1.177   5.912   7.549  0.1102 -0.3509 -0.0501
  153SAPE   H8X17019   1.235   5.822   7.520  2.0930  0.7022  0.5439
  153SAPE   H8Y17020   1.085   5.879   7.602 -0.6050  0.7925 -0.5704
  153SAPE   C3917021   1.265   5.980   7.656 -0.0015  0.4707  0.0286
  153SAPE   H9X17022   1.233   6.086   7.666 -0.5662  0.2102  1.0490
  153SAPE   H9Y17023   1.361   5.988   7.600  0.9060 -1.0210  1.3626
  153SAPE  C31017024   1.273   5.911   7.794  0.2441 -0.1026 -0.1826
  153SAPE  H10X17025   1.338   5.820   7.800  0.1706 -0.1089  0.5440
  153SAPE  H10Y17026   1.170   5.882   7.823  0.3119  1.8265  2.1017
  153SAPE  C31117027   1.318   6.021   7.894  0.4783  0.1201  0.2748
  153SAPE  H11X17028   1.245   6.103   7.906  1.0850  0.4264  1.9639
  153SAPE  H11Y17029   1.409   6.064   7.845  0.0610 -0.8796 -1.4483
  153SAPE  C31217030   1.351   5.957   8.030 -0.0178  0.0184 -0.5090
  153SAPE  H12X17031   1.410   5.864   8.012  1.8922  1.3147 -0.9967
  153SAPE  H12Y17032   1.259   5.920   8.081 -1.0078  2.7917 -0.2402
  153SAPE  C31317033   1.423   6.047   8.128 -0.9098  0.5772  0.1772
  153SAPE  H13X17034   1.351   6.129   8.149 -1.0811  0.9376 -1.7296
  153SAPE  H13Y17035   1.515   6.088   8.081 -0.7685 -0.8306 -0.8044
  153SAPE  C31417036   1.466   5.983   8.265  0.2487 -0.0576  0.8293
  153SAPE  H14X17037   1.535   5.900   8.240  1.5506  0.8698  1.3122
  153SAPE  H14Y17038   1.373   5.946   8.314  0.4040  1.0349  1.9749
  153SAPE  C31517039   1.544   6.076   8.355 -0.9132 -0.1180 -0.2142
  153SAPE  H15X17040   1.486   6.168   8.381 -0.8049  0.2776 -1.3285
  153SAPE  H15Y17041   1.637   6.108   8.302 -0.1024 -0.5307  0.9633
  153SAPE  C31617042   1.590   6.015   8.481 -0.5977 -0.4020  0.0409
  153SAPE  H16X17043   1.673   6.076   8.524 -1.4368  0.0390  1.0536
  153SAPE  H16Y17044   1.635   5.914   8.466 -0.3108 -0.2008 -0.4595
  153SAPE  C31717045   1.475   6.006   8.589 -0.9827 -0.5507 -0.2393
  153SAPE  H17X17046   1.400   5.929   8.562  0.2713 -1.2643 -1.7929
  153SAPE  H17Y17047   1.428   6.106   8.597  0.8747  0.3655 -0.5129
  153SAPE  C31817048   1.520   5.976   8.731 -0.4056  0.1762 -0.9526
  153SAPE  H18X17049   1.604   5.904   8.738  0.4567  1.3592  1.4812
  153SAPE  H18Y17050   1.428   5.927   8.772 -0.3095 -0.8752 -1.9690
  153SAPE  H18Z17051   1.533   6.066   8.794 -0.8022 -0.6870  0.3848
  154SAPE     N17052   6.388   5.303   5.613 -0.6937 -0.6582 -0.3259
  154SAPE   HN117053   6.426   5.217   5.569 -1.6553 -0.7261 -1.0293
  154SAPE   HN217054   6.354   5.372   5.544  1.0885  2.5214  1.8400
  154SAPE   HN317055   6.463   5.355   5.663 -1.9323  0.1535  0.7193
  154SAPE   C1217056   6.274   5.276   5.704  0.4793 -0.1736 -0.8851
  154SAPE  H12A17057   6.313   5.205   5.780 -1.1489 -1.9506 -1.6792
  154SAPE  H12B17058   6.189   5.229   5.650  0.5720  0.2954 -1.4439
  154SAPE   C1117059   6.227   5.403   5.781 -0.5576 -0.3796  0.5864
  154SAPE  H11A17060   6.186   5.475   5.706  2.5025 -1.9592 -2.7292
  154SAPE  H11B17061   6.322   5.446   5.820 -1.1204  1.1299  0.3269
  154SAPE     P17062   6.124   5.431   6.029  0.2004 -0.2360 -0.3079
  154SAPE   O1317063   6.133   5.580   6.025 -0.0895 -0.2092  0.2220
  154SAPE   O1417064   6.009   5.366   6.095 -0.1865 -0.6109 -0.0569
  154SAPE   O1217065   6.129   5.370   5.879  0.6349 -0.2586 -0.0534
  154SAPE   O1117066   6.259   5.378   6.091  0.5573 -0.3252  0.5234
  154SAPE    C117067   6.276   5.241   6.116  0.0101  0.3239 -0.4201
  154SAPE    HA17068   6.214   5.180   6.047  0.2523 -1.0941  0.6053
  154SAPE    HB17069   6.384   5.218   6.104 -0.3901 -0.5354 -2.8112
  154SAPE    C217070   6.231   5.208   6.262 -0.0917  0.1210 -0.1585
  154SAPE    HS17071   6.123   5.233   6.262  0.1109  1.0494 -1.0267
  154SAPE   O2117072   6.307   5.299   6.351  0.2102  0.0185 -0.6688
  154SAPE   C2117073   6.228   5.335   6.455  0.2882 -0.4255  0.0683
  154SAPE   O2217074   6.108   5.322   6.452  0.4545 -0.6551  0.1160
  154SAPE   C2217075   6.313   5.405   6.562 -0.3603  0.0016 -0.4760
  154SAPE   H2R17076   6.364   5.492   6.515 -0.8706 -0.1130 -1.2465
  154SAPE   H2S17077   6.237   5.446   6.632  1.3712  3.0568 -0.2840
  154SAPE    C317078   6.247   5.058   6.297 -0.6450 -0.1074 -0.7152
  154SAPE    HX17079   6.355   5.035   6.288 -1.2652 -3.8114  0.5911
  154SAPE    HY17080   6.191   4.998   6.223  1.3223  1.2126 -3.3360
  154SAPE   O3117081   6.199   5.026   6.432  0.3507 -0.1460 -0.0972
  154SAPE   C3117082   6.070   5.005   6.441 -0.1068  0.1976  0.8280
  154SAPE   O3217083   5.991   5.015   6.352 -0.6072 -0.5104  0.1195
  154SAPE   C3217084   6.033   4.965   6.586  0.5555 -0.2837 -0.3794
  154SAPE   H2X17085   6.049   5.056   6.647  0.2742  0.4630 -1.3990
  154SAPE   H2Y17086   6.095   4.879   6.618 -0.3061 -0.3659  1.1281
  154SAPE   C2317087   6.417   5.315   6.637 -0.0086  0.4948  0.1579
  154SAPE   H3R17088   6.490   5.386   6.681  0.0810 -1.3708  3.1430
  154SAPE   H3S17089   6.455   5.257   6.550 -0.4612 -0.2324  0.4321
  154SAPE   C2417090   6.347   5.236   6.742 -0.1083 -0.2640 -0.2908
  154SAPE   H4R17091   6.293   5.152   6.692 -1.8569  0.0181  1.0817
  154SAPE   H4S17092   6.263   5.292   6.788 -1.9615 -2.3170 -1.0579
  154SAPE   C2517093   6.450   5.184   6.841  0.2627 -0.4719  0.2013
  154SAPE   H5R17094   6.524   5.113   6.804  1.1817  0.8446 -0.5240
  154SAPE   C2617095   6.463   5.220   6.973 -0.6315  0.4878  0.1125
  154SAPE   H6R17096   6.533   5.160   7.033 -0.1004  0.0755 -0.8966
  154SAPE   C2717097   6.365   5.307   7.042 -0.1655 -0.0485  0.4004
  154SAPE   H7R17098   6.334   5.256   7.135  0.2555 -0.0928  0.5144
  154SAPE   H7S17099   6.267   5.333   6.995  0.1008  2.4209  1.1313
  154SAPE   C2817100   6.435   5.437   7.073  0.4781 -0.1148  0.1671
  154SAPE   H8R17101   6.473   5.476   6.977 -0.7863 -1.8273 -1.0650
  154SAPE   C2917102   6.453   5.492   7.195 -0.2997  0.0028  0.1720
  154SAPE   H9R17103   6.501   5.589   7.212 -1.3333  0.4639  0.5140
  154SAPE  C21017104   6.409   5.418   7.328  0.8954  0.2338 -0.4706
  154SAPE  H10R17105   6.308   5.373   7.321  1.4801 -1.0146 -1.1320
  154SAPE  H10S17106   6.403   5.497   7.406  1.3733 -1.4543  1.3091
  154SAPE  C21117107   6.509   5.304   7.362  0.3621  0.2347 -0.3411
  154SAPE  H11R17108   6.544   5.239   7.281  0.4936 -0.7636  0.4992
  154SAPE  C21217109   6.550   5.276   7.487  0.4474  0.4356  0.3727
  154SAPE  H12R17110   6.617   5.190   7.499 -1.2820 -0.9039  0.5877
  154SAPE  C21317111   6.503   5.343   7.616 -0.2581  0.2341  0.5862
  154SAPE  H13R17112   6.393   5.324   7.621  0.1404 -2.0629  1.2431
  154SAPE  H13S17113   6.525   5.451   7.613 -0.8245  0.3587  0.7653
  154SAPE  C21417114   6.553   5.270   7.741  1.0228 -0.2381 -0.1045
  154SAPE  H14R17115   6.593   5.168   7.728  1.7686  0.1226 -0.6871
  154SAPE  C21517116   6.547   5.329   7.861 -0.3130  0.3057  0.4809
  154SAPE  H15R17117   6.578   5.276   7.952 -0.5485  0.4228  0.6310
  154SAPE  C21617118   6.503   5.472   7.904 -0.3969  0.4975  0.1033
  154SAPE  H16R17119   6.466   5.530   7.817 -2.2390  2.3762  2.1112
  154SAPE  H16S17120   6.594   5.531   7.930  0.2926  0.3136 -1.8056
  154SAPE  C21717121   6.400   5.495   8.017 -0.1575 -0.0254  0.3236
  154SAPE  H17R17122   6.301   5.456   7.984  0.1854 -0.5116 -0.1230
  154SAPE  H17S17123   6.389   5.604   8.039 -2.4226 -0.5070  1.8264
  154SAPE  C21817124   6.444   5.437   8.150  0.3601  0.3967  0.5015
  154SAPE  H18R17125   6.545   5.476   8.176  0.0674 -0.1479  2.5804
  154SAPE  H18S17126   6.446   5.328   8.128 -0.3211  0.6656 -0.9479
  154SAPE  C21917127   6.344   5.455   8.260  0.2180  0.0203 -0.7045
  154SAPE  H19R17128   6.310   5.558   8.284 -0.8884 -0.6616  0.7208
  154SAPE  H19S17129   6.391   5.414   8.352 -0.2088  0.4087 -0.3161
  154SAPE  C22017130   6.215   5.376   8.238  0.4177 -0.7215 -0.9306
  154SAPE  H20R17131   6.140   5.432   8.178 -0.3175  1.5184  1.9469
  154SAPE  H20S17132   6.169   5.358   8.337  2.5163  0.3165  0.2621
  154SAPE  H20T17133   6.233   5.280   8.185 -1.6270 -2.4907  1.4612
  154SAPE   C3317134   5.883   4.928   6.588 -0.0880 -0.0666  1.6139
  154SAPE   H3X17135   5.853   4.861   6.504  1.1488  1.1872  0.1370
  154SAPE   H3Y17136   5.826   5.020   6.563  0.3877 -0.1518  0.1284
  154SAPE   C3417137   5.827   4.866   6.712  0.1916  0.6196 -0.2472
  154SAPE   H4X17138   5.721   4.896   6.732  0.6154  2.0401 -0.0346
  154SAPE   H4Y17139   5.889   4.911   6.792 -0.6495 -2.0577  1.9884
  154SAPE   C3517140   5.857   4.712   6.727  0.4287 -0.0157  0.0542
  154SAPE   H5X17141   5.967   4.702   6.718  0.2985 -0.9614 -0.6560
  154SAPE   H5Y17142   5.813   4.663   6.637  1.1010  0.8861 -0.7796
  154SAPE   C3617143   5.810   4.652   6.855 -0.1155  0.2125 -0.5088
  154SAPE   H6X17144   5.813   4.731   6.933  2.3397 -1.6776  1.3988
  154SAPE   H6Y17145   5.861   4.556   6.877 -2.4195 -1.6097 -2.8558
  154SAPE   C3717146   5.661   4.618   6.850  0.2633  0.9428  0.1647
  154SAPE   H7X17147   5.662   4.536   6.775 -0.5328 -0.5855  1.7887
  154SAPE   H7Y17148   5.589   4.697   6.818 -0.3170  0.0266 -0.8326
  154SAPE   C3817149   5.617   4.553   6.990  0.0967 -0.4830 -0.1690
  154SAPE   H8X17150   5.695   4.480   7.021 -1.5828 -1.6487  1.4068
  154SAPE   H8Y17151   5.522   4.500   6.966 -0.7838  0.8963  0.2227
  154SAPE   C3917152   5.595   4.661   7.099  0.2849  0.0096 -0.0935
  154SAPE   H9X17153   5.515   4.731   7.067 -0.3933  0.6683  2.9390
  154SAPE   H9Y17154   5.680   4.724   7.133  1.4406  0.5824 -3.7493
  154SAPE  C31017155   5.546   4.608   7.233 -1.1056 -0.2520 -0.3122
  154SAPE  H10X17156   5.618   4.539   7.281  0.8944  0.6908 -1.8621
  154SAPE  H10Y17157   5.455   4.546   7.220 -0.2095 -1.4952 -0.8262
  154SAPE  C31117158   5.529   4.711   7.339  0.1976 -0.6564 -0.4875
  154SAPE  H11X17159   5.449   4.781   7.305 -0.6135 -0.3087  2.0483
  154SAPE  H11Y17160   5.626   4.764   7.351  0.6665 -1.5234 -0.4584
  154SAPE  C31217161   5.491   4.642   7.472 -0.0363  0.1922  0.3485
  154SAPE  H12X17162   5.569   4.566   7.491 -0.0625  0.6992  2.6404
  154SAPE  H12Y17163   5.392   4.593   7.466 -0.9129  1.5323  2.9135
  154SAPE  C31317164   5.487   4.749   7.586  0.4517 -0.9294  0.0503
  154SAPE  H13X17165   5.416   4.825   7.546  0.7059 -1.1872 -0.9185
  154SAPE  H13Y17166   5.587   4.798   7.586 -0.4594  0.9811  1.9005
  154SAPE  C31417167   5.441   4.699   7.730 -0.2225 -0.1464 -0.0920
  154SAPE  H14X17168   5.499   4.610   7.763  1.2296  1.7652  2.7505
  154SAPE  H14Y17169   5.334   4.669   7.717  0.0218 -2.1824  2.3005
  154SAPE  C31517170   5.463   4.812   7.835  0.2381  0.3432  0.0756
  154SAPE  H15X17171   5.406   4.903   7.805  0.0366  0.9212  2.1680
  154SAPE  H15Y17172   5.569   4.838   7.853 -0.0051 -0.0615  2.2500
  154SAPE  C31617173   5.425   4.771   7.979  0.2627 -0.5910  0.6267
  154SAPE  H16X17174   5.334   4.708   7.973 -0.2458  0.2891 -1.3322
  154SAPE  H16Y17175   5.399   4.863   8.036  0.4268  1.6743 -2.8034
  154SAPE  C31717176   5.528   4.680   8.045  0.1073 -0.2296 -0.2191
  154SAPE  H17X17177   5.625   4.731   8.030  0.1308 -0.7984 -2.1864
  154SAPE  H17Y17178   5.521   4.583   7.991  0.0622  0.5483 -1.6441
  154SAPE  C31817179   5.509   4.674   8.199 -0.0171 -0.9281  0.4233
  154SAPE  H18X17180   5.592   4.615   8.244  0.8681 -2.0579 -2.5423
  154SAPE  H18Y17181   5.413   4.628   8.230 -0.7524 -0.0555 -0.5205
  154SAPE  H18Z17182   5.525   4.778   8.236  0.1098 -0.1792 -1.6557
  155SAPE     N17183   0.265   5.643   6.300  0.2137  0.4194 -0.5748
  155SAPE   HN117184   0.177   5.627   6.353  1.2888 -1.9435  0.5782
  155SAPE   HN217185   0.272   5.568   6.228  0.4272  0.5255 -0.6649
  155SAPE   HN317186   0.346   5.637   6.366 -0.7357 -0.2226  0.5432
  155SAPE   C1217187   0.247   5.775   6.237  0.0216 -0.2892 -0.4419
  155SAPE  H12A17188   0.157   5.764   6.173  0.9906 -0.3105 -1.8439
  155SAPE  H12B17189   0.343   5.789   6.182  1.6235  1.0059  2.5900
  155SAPE   C1117190   0.248   5.874   6.351  0.6394  0.1915  0.5313
  155SAPE  H11A17191   0.235   5.973   6.303  2.3133  0.3726  0.4232
  155SAPE  H11B17192   0.335   5.884   6.419  0.7132 -0.0747  0.4772
  155SAPE     P17193  -0.002   5.913   6.424  0.3212 -0.2305  0.0040
  155SAPE   O1317194  -0.004   6.014   6.314 -0.2894  0.3163  0.3925
  155SAPE   O1417195  -0.093   5.800   6.401 -0.3731 -0.0830 -0.4228
  155SAPE   O1217196   0.139   5.851   6.441 -0.5788  0.4056 -0.3204
  155SAPE   O1117197  -0.028   5.986   6.564 -0.1371 -0.0748  0.1111
  155SAPE    C117198   0.037   5.957   6.685 -0.7061 -0.3246 -0.2088
  155SAPE    HA17199   0.138   5.915   6.668 -0.3510  0.3624  0.1916
  155SAPE    HB17200   0.049   6.051   6.744 -1.0669 -1.6203  2.0062
  155SAPE    C217201  -0.046   5.852   6.769  0.4352  0.2739  0.6533
  155SAPE    HS17202  -0.067   5.762   6.707  0.4872  1.5432 -1.2545
  155SAPE   O2117203  -0.162   5.925   6.814 -0.1856 -0.2599  0.4986
  155SAPE   C2117204  -0.270   5.845   6.821  0.2975  0.1617 -1.1619
  155SAPE   O2217205  -0.275   5.722   6.797  0.3189 -0.3760  0.4666
  155SAPE   C2217206  -0.393   5.919   6.880 -1.2611  0.5550 -0.3171
  155SAPE   H2R17207  -0.457   5.985   6.817  1.7372  0.6771 -3.4651
  155SAPE   H2S17208  -0.467   5.841   6.906 -1.1368  1.5613  3.2483
  155SAPE    C317209   0.021   5.797   6.890  0.4729 -0.0779 -0.8074
  155SAPE    HX17210   0.113   5.752   6.849  0.7015 -0.2391 -0.1191
  155SAPE    HY17211  -0.047   5.722   6.937  1.4646 -1.5930 -1.7753
  155SAPE   O3117212   0.042   5.892   6.998  0.4990 -0.0442 -0.4226
  155SAPE   C3117213   0.139   5.864   7.081  0.4232  0.6887 -0.8267
  155SAPE   O3217214   0.216   5.771   7.059 -0.1958 -0.8218 -0.6313
  155SAPE   C3217215   0.137   5.968   7.195  0.3230  0.2489 -0.1234
  155SAPE   H2X17216   0.032   5.958   7.229  0.2631 -1.8486 -0.8152
  155SAPE   H2Y17217   0.140   6.066   7.142 -1.0911 -1.0773 -2.7599
  155SAPE   C2317218  -0.362   5.998   7.013  0.3451 -1.0797  0.0654
  155SAPE   H3R17219  -0.454   6.058   7.027  0.8484  0.0145 -1.1810
  155SAPE   H3S17220  -0.283   6.075   7.006  0.6187 -0.9176  4.1110
  155SAPE   C2417221  -0.353   5.908   7.142 -0.5152  0.3105  0.1431
  155SAPE   H4R17222  -0.275   5.831   7.122 -1.1169 -0.5170  0.9437
  155SAPE   H4S17223  -0.449   5.857   7.163  0.3711 -2.3468 -1.8999
  155SAPE   C2517224  -0.301   5.994   7.255  0.2844 -0.6865  0.0048
  155SAPE   H5R17225  -0.259   6.093   7.232 -1.5216 -0.4240 -2.3155
  155SAPE   C2617226  -0.303   5.949   7.379 -0.2493 -0.5229 -0.3744
  155SAPE   H6R17227  -0.255   6.016   7.453  1.4554 -0.5537 -1.4070
  155SAPE   C2717228  -0.365   5.825   7.428 -0.3309 -0.4493 -0.6696
  155SAPE   H7R17229  -0.367   5.753   7.344 -1.7130 -0.1892 -0.8699
  155SAPE   H7S17230  -0.471   5.851   7.449 -0.1056  0.2884 -0.4394
  155SAPE   C2817231  -0.306   5.748   7.546  0.4716  0.3327  0.6937
  155SAPE   H8R17232  -0.287   5.641   7.530 -2.3391 -0.0906 -0.0318
  155SAPE   C2917233  -0.269   5.797   7.666 -0.1165  0.0221 -0.5572
  155SAPE   H9R17234  -0.223   5.727   7.738 -1.5859 -0.3145  0.0739
  155SAPE  C21017235  -0.276   5.938   7.718  0.2860  0.7902 -0.3309
  155SAPE  H10R17236  -0.362   5.943   7.789 -1.1572  0.1465 -1.9928
  155SAPE  H10S17237  -0.296   6.010   7.636  3.0256 -1.0553 -2.6952
  155SAPE  C21117238  -0.151   5.981   7.781  0.2425  0.5017  0.2424
  155SAPE  H11R17239  -0.076   6.025   7.712 -0.1607  0.0567 -0.4895
  155SAPE  C21217240  -0.118   5.966   7.912  0.2068  0.4753  0.5309
  155SAPE  H12R17241  -0.019   6.001   7.945  1.1380 -0.7180 -0.9108
  155SAPE  C21317242  -0.204   5.911   8.020 -0.4586 -0.8057 -0.1106
  155SAPE  H13R17243  -0.311   5.899   7.992 -0.5201 -0.5857  0.0228
  155SAPE  H13S17244  -0.202   5.977   8.110 -1.8736 -3.3290  1.8469
  155SAPE  C21417245  -0.149   5.787   8.070 -0.0297  0.1993 -0.3082
  155SAPE  H14R17246  -0.196   5.701   8.019  0.1352  0.4176 -0.8281
  155SAPE  C21517247  -0.067   5.763   8.168 -0.7165 -0.5879  0.3076
  155SAPE  H15R17248  -0.036   5.660   8.191  1.6575  0.3582  1.4578
  155SAPE  C21617249  -0.008   5.868   8.257 -0.1836 -0.2314  1.0157
  155SAPE  H16R17250  -0.063   5.863   8.354  0.5415 -1.2185  1.3880
  155SAPE  H16S17251  -0.025   5.967   8.209 -2.5917 -0.1566  1.9317
  155SAPE  C21717252   0.150   5.845   8.255  0.5964 -0.1781  0.3617
  155SAPE  H17R17253   0.176   5.850   8.147 -2.5248 -2.3571 -0.5622
  155SAPE  H17S17254   0.168   5.745   8.299  0.8583 -0.9686 -1.5187
  155SAPE  C21817255   0.223   5.956   8.326 -0.0566  0.4278  0.2604
  155SAPE  H18R17256   0.198   6.058   8.292 -0.2117  0.0919 -0.6538
  155SAPE  H18S17257   0.333   5.948   8.309  0.0745  3.4673 -0.5604
  155SAPE  C21917258   0.196   5.958   8.489  0.1563  0.6663  0.2677
  155SAPE  H19R17259   0.203   5.849   8.509 -2.1793  0.3982 -0.2056
  155SAPE  H19S17260   0.099   6.003   8.518  0.5011  1.7805 -0.2658
  155SAPE  C22017261   0.311   6.012   8.571 -0.5445  0.3867  0.5414
  155SAPE  H20R17262   0.313   5.955   8.666  0.9775 -0.2805  0.1220
  155SAPE  H20S17263   0.285   6.116   8.601 -1.8104  0.6669 -1.4240
  155SAPE  H20T17264   0.408   6.013   8.517 -1.2410 -2.1690 -0.8358
  155SAPE   C3317265   0.223   5.945   7.318 -0.2616 -0.3103  0.2372
  155SAPE   H3X17266   0.321   5.996   7.307 -0.1308 -0.4823  0.6021
  155SAPE   H3Y17267   0.257   5.840   7.327 -0.7339 -0.5560 -0.7209
  155SAPE   C3417268   0.146   6.002   7.443 -0.2348  0.1527 -0.1647
  155SAPE   H4X17269   0.055   5.938   7.444 -0.3268  0.2776  1.5433
  155SAPE   H4Y17270   0.106   6.104   7.424  0.2483  0.5906  1.0975
  155SAPE   C3517271   0.213   5.991   7.584 -0.4007  0.1697 -0.7943
  155SAPE   H5X17272   0.249   5.887   7.601 -1.7794  0.0813  1.7562
  155SAPE   H5Y17273   0.141   6.007   7.667 -0.0171  0.7509 -0.5705
  155SAPE   C3617274   0.337   6.083   7.599 -0.2980 -0.5885  0.7524
  155SAPE   H6X17275   0.307   6.188   7.575  0.3350 -0.8864 -1.4353
  155SAPE   H6Y17276   0.415   6.047   7.529 -0.8211 -0.2148 -0.0271
  155SAPE   C3717277   0.384   6.090   7.737  0.0533  0.3470  0.7904
  155SAPE   H7X17278   0.488   6.128   7.743  0.0746  0.3668  0.2764
  155SAPE   H7Y17279   0.392   5.994   7.793  0.3984  0.5450  1.0823
  155SAPE   C3817280   0.303   6.180   7.830 -0.4970 -0.4907 -0.8626
  155SAPE   H8X17281   0.202   6.138   7.848 -0.5928 -1.8089 -4.1453
  155SAPE   H8Y17282   0.285   6.274   7.773 -0.2657 -0.6582 -1.2144
  155SAPE   C3917283   0.373   6.195   7.965 -0.5085 -0.2324 -0.6781
  155SAPE   H9X17284   0.476   6.236   7.953  0.0366 -1.8021 -1.5617
  155SAPE   H9Y17285   0.398   6.098   8.013  2.4527  0.6052 -0.4202
  155SAPE  C31017286   0.291   6.290   8.053 -0.1105  0.2334  0.3524
  155SAPE  H10X17287   0.187   6.251   8.068  0.2093 -0.0470  1.9428
  155SAPE  H10Y17288   0.281   6.390   8.005 -3.3030 -1.2445 -2.3148
  155SAPE  C31117289   0.343   6.308   8.195  0.4586 -0.0690  0.3136
  155SAPE  H11X17290   0.441   6.361   8.203 -0.1467  1.3716 -1.5174
  155SAPE  H11Y17291   0.364   6.207   8.236 -1.6071 -0.1646  1.2246
  155SAPE  C31217292   0.239   6.370   8.284 -0.0710  0.5869 -0.3245
  155SAPE  H12X17293   0.139   6.323   8.271 -0.1515  0.6435  0.1001
  155SAPE  H12Y17294   0.225   6.474   8.248  1.2930  0.6933 -0.5481
  155SAPE  C31317295   0.273   6.368   8.435  0.9010 -0.4693  1.0617
  155SAPE  H13X17296   0.338   6.280   8.453 -0.7557 -1.8396  0.4956
  155SAPE  H13Y17297   0.176   6.345   8.485  0.9563  2.1242  2.4246
  155SAPE  C31417298   0.321   6.508   8.481  0.3619  0.1757 -0.6350
  155SAPE  H14X17299   0.243   6.587   8.470  0.2940  0.3208  0.7871
  155SAPE  H14Y17300   0.412   6.534   8.424 -0.7174  1.7052 -1.6862
  155SAPE  C31517301   0.351   6.512   8.633  0.3244 -0.3011  0.0696
  155SAPE  H15X17302   0.454   6.473   8.644  1.5004  2.1927 -1.5604
  155SAPE  H15Y17303   0.287   6.440   8.689  2.6288 -3.4685 -1.2488
  155SAPE  C31617304   0.355   6.654   8.689 -0.1516 -0.1223 -1.0712
  155SAPE  H16X17305   0.380   6.660   8.797 -3.8941  3.1265 -0.2668
  155SAPE  H16Y17306   0.257   6.703   8.671 -0.8025 -2.0087 -2.8105
  155SAPE  C31717307   0.459   6.742   8.612  0.1039  0.4894  0.2736
  155SAPE  H17X17308   0.431   6.750   8.504  1.9379 -0.7770 -0.3057
  155SAPE  H17Y17309   0.555   6.688   8.614 -0.6036 -0.8896 -1.6469
  155SAPE  C31817310   0.488   6.873   8.675  0.1151  0.2814 -0.5356
  155SAPE  H18X17311   0.585   6.910   8.636  0.5529  0.9320  1.1168
  155SAPE  H18Y17312   0.490   6.849   8.783 -2.4508  0.7151 -0.3451
  155SAPE  H18Z17313   0.403   6.942   8.658 -1.4120 -1.6406 -0.8459
  156SAPE     N17314   4.720   0.101   6.284 -0.1145 -0.7228 -0.0486
  156SAPE   HN117315   4.645   0.154   6.234  1.1751  1.1975 -0.0179
  156SAPE   HN217316   4.678   0.009   6.305 -0.8309 -0.9889 -2.4285
  156SAPE   HN317317   4.733   0.159   6.369 -1.4121 -0.7657  0.1932
  156SAPE   C1217318   4.849   0.080   6.216 -0.9704 -0.1185  0.8269
  156SAPE  H12A17319   4.892   0.176   6.180  1.2711 -1.0429  0.9204
  156SAPE  H12B17320   4.826   0.017   6.127  0.3023  1.3702 -0.5773
  156SAPE   C1117321   4.933  -0.014   6.302 -0.3750 -0.0964 -0.6645
  156SAPE  H11A17322   4.949   0.040   6.398  1.9001  1.2443 -1.7551
  156SAPE  H11B17323   5.026  -0.030   6.244  1.0589 -0.4797  1.6672
  156SAPE     P17324   4.815  -0.202   6.439 -0.1664 -0.3699 -0.0757
  156SAPE   O1317325   4.729  -0.095   6.504  0.4484  0.6568 -0.2673
  156SAPE   O1417326   4.759  -0.335   6.408 -0.3339 -0.3077  0.0545
  156SAPE   O1217327   4.874  -0.142   6.308 -0.0661 -0.3977  0.5048
  156SAPE   O1117328   4.942  -0.216   6.543 -0.2246  0.3651 -0.1755
  156SAPE    C117329   4.951  -0.331   6.623  0.0471 -0.1224  0.6106
  156SAPE    HA17330   4.948  -0.428   6.568  1.2579 -1.0541  2.1419
  156SAPE    HB17331   5.047  -0.342   6.678 -0.3927 -0.3454  1.3468
  156SAPE    C217332   4.848  -0.342   6.746 -0.5957  0.2950 -0.2855
  156SAPE    HS17333   4.751  -0.329   6.693 -0.8730  1.5362  0.5013
  156SAPE   O2117334   4.874  -0.220   6.830  0.0689 -0.3786 -0.8118
  156SAPE   C2117335   4.775  -0.142   6.863  0.3682 -0.0606 -0.8404
  156SAPE   O2217336   4.656  -0.162   6.834  0.4127 -0.0262 -0.2261
  156SAPE   C2217337   4.829  -0.038   6.956  0.3335 -1.0751  0.3372
  156SAPE   H2R17338   4.916  -0.081   7.008  0.4321  1.1309  2.0324
  156SAPE   H2S17339   4.852   0.058   6.905 -0.9487 -0.6887  0.4609
  156SAPE    C317340   4.861  -0.469   6.823  0.5499  0.0338 -0.2654
  156SAPE    HX17341   4.963  -0.497   6.858  0.6323 -0.1411 -0.6418
  156SAPE    HY17342   4.814  -0.544   6.755  0.1848  1.4415 -1.6017
  156SAPE   O3117343   4.784  -0.456   6.942 -0.5036 -0.4819  0.1030
  156SAPE   C3117344   4.761  -0.568   7.009 -0.1428  0.8420 -0.3059
  156SAPE   O3217345   4.804  -0.678   6.976  0.5969 -0.5071  0.8136
  156SAPE   C3217346   4.683  -0.527   7.136 -0.0432  0.0901  0.0062
  156SAPE   H2X17347   4.588  -0.479   7.105 -0.0092  1.4754  1.9998
  156SAPE   H2Y17348   4.745  -0.453   7.191  1.0837 -1.1677  0.4665
  156SAPE   C2317349   4.720  -0.002   7.056  0.3055  0.7375  0.7314
  156SAPE   H3R17350   4.631   0.043   7.007  1.1465  2.8562  1.0708
  156SAPE   H3S17351   4.758   0.089   7.108 -1.2424  0.8148  1.7805
  156SAPE   C2417352   4.680  -0.117   7.154  0.1708 -0.2704  0.4260
  156SAPE   H4R17353   4.641  -0.211   7.109  2.3841 -1.4382  0.8542
  156SAPE   H4S17354   4.585  -0.086   7.203  0.1429 -0.7662  0.6882
  156SAPE   C2517355   4.788  -0.137   7.263  0.4395  0.6025 -0.5223
  156SAPE   H5R17356   4.879  -0.194   7.238  0.7469  0.4695  0.8898
  156SAPE   C2617357   4.779  -0.084   7.387  0.0306  0.1198  0.9034
  156SAPE   H6R17358   4.863  -0.099   7.456  0.8520  0.4971  0.0064
  156SAPE   C2717359   4.661  -0.003   7.425 -0.5654  0.1385  0.1632
  156SAPE   H7R17360   4.594  -0.070   7.483  0.3228  0.0237  1.0827
  156SAPE   H7S17361   4.590   0.043   7.354 -0.1613  2.8414  1.4416
  156SAPE   C2817362   4.714   0.111   7.518  0.4939  0.1136  0.5157
  156SAPE   H8R17363   4.759   0.196   7.464  1.1799 -0.8447 -0.4529
  156SAPE   C2917364   4.690   0.130   7.649 -0.1140  0.0032  0.1151
  156SAPE   H9R17365   4.750   0.210   7.694 -1.9361  0.5791  1.5596
  156SAPE  C21017366   4.633   0.029   7.737 -0.1581 -0.0802  0.0315
  156SAPE  H10R17367   4.612  -0.072   7.696  0.2113  0.2125 -0.8847
  156SAPE  H10S17368   4.537   0.065   7.782 -0.1756  1.5621 -1.2815
  156SAPE  C21117369   4.735  -0.007   7.853 -0.7337  0.1346  0.3177
  156SAPE  H11R17370   4.814  -0.077   7.822  0.2204  0.8233  1.2039
  156SAPE  C21217371   4.718   0.028   7.985 -0.0493  0.3000 -0.3891
  156SAPE  H12R17372   4.795  -0.012   8.053 -1.4803  0.1676  1.1681
  156SAPE  C21317373   4.613   0.116   8.045  0.6760 -0.1305 -0.2618
  156SAPE  H13R17374   4.537   0.051   8.093  1.8912 -1.8381 -0.5835
  156SAPE  H13S17375   4.561   0.178   7.969 -1.5409 -1.1032  0.4263
  156SAPE  C21417376   4.683   0.214   8.138 -0.0165  0.0221 -0.4025
  156SAPE  H14R17377   4.771   0.261   8.093  3.1031 -3.2709  1.9770
  156SAPE  C21517378   4.626   0.279   8.240 -0.3299  0.1163  0.6566
  156SAPE  H15R17379   4.669   0.366   8.292  1.0384 -0.2933  0.2143
  156SAPE  C21617380   4.487   0.254   8.285 -0.2534  0.3336 -0.2083
  156SAPE  H16R17381   4.455   0.148   8.290 -1.3779  0.7448  2.3473
  156SAPE  H16S17382   4.421   0.305   8.211  1.0987  2.2189 -0.1503
  156SAPE  C21717383   4.456   0.305   8.425  0.5443 -0.2473 -0.0277
  156SAPE  H17R17384   4.526   0.385   8.455  0.5299 -0.5723  0.8829
  156SAPE  H17S17385   4.485   0.218   8.488  0.8447 -1.0024 -1.1956
  156SAPE  C21817386   4.307   0.340   8.434  0.2557  0.5558 -0.3192
  156SAPE  H18R17387   4.248   0.250   8.405  1.6869 -0.2415 -0.7613
  156SAPE  H18S17388   4.281   0.428   8.371  2.8186  2.2412  0.8668
  156SAPE  C21917389   4.268   0.391   8.573  0.1659 -0.4978 -0.3775
  156SAPE  H19R17390   4.174   0.451   8.564  0.8880  0.5818 -0.7799
  156SAPE  H19S17391   4.332   0.472   8.615 -0.2790  0.2970 -1.2029
  156SAPE  C22017392   4.241   0.284   8.681 -0.5100 -0.2745  0.4781
  156SAPE  H20R17393   4.330   0.217   8.680  0.2497  0.7161 -1.2690
  156SAPE  H20S17394   4.159   0.215   8.652  0.0404 -2.0466  3.0224
  156SAPE  H20T17395   4.213   0.324   8.781  0.8086  1.0994  0.3270
  156SAPE   C3317396   4.654  -0.662   7.216 -0.1725 -0.4609 -0.0930
  156SAPE   H3X17397   4.749  -0.706   7.254 -0.2836  0.4862  1.3331
  156SAPE   H3Y17398   4.599  -0.740   7.160 -0.4919  0.6044 -1.2888
  156SAPE   C3417399   4.578  -0.623   7.342 -0.2051  0.8580 -0.3784
  156SAPE   H4X17400   4.544  -0.719   7.385  0.4466  0.9772  0.4084
  156SAPE   H4Y17401   4.488  -0.562   7.319 -0.6521  0.4835  0.3762
  156SAPE   C3517402   4.654  -0.553   7.451 -0.2287  0.1108  0.0484
  156SAPE   H5X17403   4.693  -0.466   7.394 -3.8749  0.0020 -2.8243
  156SAPE   H5Y17404   4.742  -0.600   7.498  0.6780  2.5947  0.9370
  156SAPE   C3617405   4.552  -0.516   7.567 -0.4375  1.0708 -0.3401
  156SAPE   H6X17406   4.494  -0.608   7.592  1.7814  0.2588  2.1684
  156SAPE   H6Y17407   4.472  -0.446   7.537  1.0573  3.5484  1.2614
  156SAPE   C3717408   4.621  -0.467   7.696  0.8945 -0.9658  0.4566
  156SAPE   H7X17409   4.707  -0.401   7.670  1.7260 -2.6393 -1.1279
  156SAPE   H7Y17410   4.662  -0.560   7.740 -0.2049 -2.4411 -1.5459
  156SAPE   C3817411   4.534  -0.389   7.794 -0.0236 -0.2477 -0.4299
  156SAPE   H8X17412   4.461  -0.450   7.851  1.5609 -0.9774  0.8156
  156SAPE   H8Y17413   4.477  -0.304   7.751 -0.6588 -0.4565 -0.0097
  156SAPE   C3917414   4.620  -0.345   7.912 -0.3341 -0.4758  0.2342
  156SAPE   H9X17415   4.569  -0.254   7.951  2.0468  1.0003  0.0296
  156SAPE   H9Y17416   4.722  -0.318   7.879 -0.3625 -1.0930 -0.3726
  156SAPE  C31017417   4.628  -0.442   8.033 -0.5899 -0.7161 -0.2224
  156SAPE  H10X17418   4.671  -0.539   7.999 -1.2491 -1.1539  0.1645
  156SAPE  H10Y17419   4.519  -0.461   8.044 -1.0754  1.8621 -0.2399
  156SAPE  C31117420   4.691  -0.378   8.155 -0.5467 -0.1666 -0.4290
  156SAPE  H11X17421   4.784  -0.330   8.118  0.6123 -0.6782  1.7602
  156SAPE  H11Y17422   4.737  -0.460   8.214 -1.5826 -0.5336 -0.1126
  156SAPE  C31217423   4.601  -0.293   8.240  0.8350 -0.5209 -0.1020
  156SAPE  H12X17424   4.510  -0.347   8.272 -0.6921  2.6375  1.1098
  156SAPE  H12Y17425   4.563  -0.208   8.179 -0.5768 -0.5363  0.7323
  156SAPE  C31317426   4.669  -0.218   8.355 -0.2627  0.4393 -0.4646
  156SAPE  H13X17427   4.589  -0.159   8.406  0.4373  2.4895 -1.6911
  156SAPE  H13Y17428   4.744  -0.144   8.320 -1.0260  1.9309  0.9624
  156SAPE  C31417429   4.721  -0.316   8.461 -0.8830 -0.1802  0.0169
  156SAPE  H14X17430   4.784  -0.261   8.535 -1.1822  1.2975 -0.8055
  156SAPE  H14Y17431   4.784  -0.394   8.414  0.5782  0.0627  1.5211
  156SAPE  C31517432   4.620  -0.406   8.538  0.3973 -0.2601  0.5098
  156SAPE  H15X17433   4.539  -0.443   8.472 -0.3314 -1.0892  1.8683
  156SAPE  H15Y17434   4.570  -0.340   8.612 -3.1296 -1.0700 -1.0386
  156SAPE  C31617435   4.676  -0.527   8.608  0.5310 -0.0922  0.1309
  156SAPE  H16X17436   4.588  -0.577   8.653  0.9296 -1.3076 -0.3830
  156SAPE  H16Y17437   4.756  -0.498   8.680 -1.5249  0.3315  2.3005
  156SAPE  C31717438   4.740  -0.625   8.515 -0.4592 -0.2008 -0.1239
  156SAPE  H17X17439   4.839  -0.588   8.482 -0.5907  0.1965 -0.0687
  156SAPE  H17Y17440   4.684  -0.641   8.420 -0.1124 -0.3816 -0.3004
  156SAPE  C31817441   4.754  -0.759   8.587  0.4381  0.5368  0.1641
  156SAPE  H18X17442   4.770  -0.748   8.696 -1.6704 -0.5542  0.6102
  156SAPE  H18Y17443   4.836  -0.821   8.544  0.6880 -0.0348  1.4560
  156SAPE  H18Z17444   4.653  -0.803   8.579  1.0906 -1.3485  1.8977
  157SAPE     N17445   2.034   0.999   6.097  0.2914  0.3263 -0.1307
  157SAPE   HN117446   2.008   1.065   6.022 -0.6896 -1.6013 -1.5403
  157SAPE   HN217447   2.088   0.919   6.058 -1.5753 -1.6112  1.0914
  157SAPE   HN317448   1.955   0.947   6.142  0.8747  1.6533  2.5587
  157SAPE   C1217449   2.091   1.075   6.217 -0.0028 -0.3557  0.5642
  157SAPE  H12A17450   2.182   1.128   6.183 -0.7270  2.1989  2.4098
  157SAPE  H12B17451   2.131   1.010   6.297  0.5814  0.1921  0.7154
  157SAPE   C1117452   2.000   1.180   6.276 -0.1749 -0.6464  0.4792
  157SAPE  H11A17453   2.049   1.223   6.366 -1.0717  1.8247 -0.1591
  157SAPE  H11B17454   1.907   1.146   6.325 -0.0227 -2.9515 -0.7476
  157SAPE     P17455   1.970   1.436   6.226 -0.4986  0.4604 -0.0739
  157SAPE   O1317456   2.097   1.515   6.203  0.3573  0.3252 -0.0734
  157SAPE   O1417457   1.847   1.499   6.171 -0.4758  0.0349 -0.1804
  157SAPE   O1217458   1.981   1.285   6.175  0.0921 -0.2759  0.6170
  157SAPE   O1117459   1.959   1.431   6.382  0.1958  0.3445  0.6523
  157SAPE    C117460   1.978   1.553   6.457 -0.1477  0.5093  0.0409
  157SAPE    HA17461   1.961   1.644   6.396 -1.3522  0.8542  0.8711
  157SAPE    HB17462   1.903   1.562   6.538  0.0302  0.1642  0.2462
  157SAPE    C217463   2.110   1.559   6.531 -0.9790 -0.0503  0.2587
  157SAPE    HS17464   2.191   1.559   6.455 -0.3808 -2.1971  0.8789
  157SAPE   O2117465   2.130   1.446   6.611  0.1443 -0.1142 -0.5054
  157SAPE   C2117466   2.254   1.411   6.645  0.8694  0.4032 -1.0113
  157SAPE   O2217467   2.358   1.461   6.605 -0.0676  0.1437 -0.4882
  157SAPE   C2217468   2.237   1.324   6.770 -0.5133  0.4404 -0.0357
  157SAPE   H2R17469   2.137   1.278   6.782 -0.0591 -0.3686  0.7655
  157SAPE   H2S17470   2.305   1.236   6.768 -0.8462  0.1939 -0.9283
  157SAPE    C317471   2.108   1.692   6.608  0.5252  0.1789  0.3383
  157SAPE    HX17472   2.011   1.692   6.662 -0.4021  0.4793 -1.3164
  157SAPE    HY17473   2.114   1.777   6.537  0.8880 -0.2543 -0.1530
  157SAPE   O3117474   2.220   1.708   6.700 -0.3686  0.2186  0.3469
  157SAPE   C3117475   2.336   1.761   6.650 -0.0812 -0.7904 -0.0562
  157SAPE   O3217476   2.345   1.802   6.535  0.3274  0.2615 -0.5257
  157SAPE   C3217477   2.456   1.739   6.737  0.4610  0.0166  0.1987
  157SAPE   H2X17478   2.534   1.706   6.665 -1.3189  1.9104 -2.6400
  157SAPE   H2Y17479   2.434   1.655   6.807  1.7929 -0.2801  0.2840
  157SAPE   C2317480   2.272   1.404   6.903 -0.1737  0.4761 -0.3610
  157SAPE   H3R17481   2.209   1.352   6.978 -1.4630  1.3818 -0.8010
  157SAPE   H3S17482   2.235   1.508   6.896 -0.5136  0.3258 -0.8660
  157SAPE   C2417483   2.418   1.397   6.947 -0.6078  0.0147 -0.3698
  157SAPE   H4R17484   2.431   1.463   7.036 -1.1368  0.6155 -0.7271
  157SAPE   H4S17485   2.486   1.451   6.878  0.0378 -2.4487 -1.7068
  157SAPE   C2517486   2.469   1.251   6.976 -0.2927 -0.6190 -0.6132
  157SAPE   H5R17487   2.506   1.202   6.885  3.8140 -0.6012  0.9658
  157SAPE   C2617488   2.462   1.188   7.092 -0.4229  0.2744  0.5638
  157SAPE   H6R17489   2.497   1.083   7.099  1.8670  0.9763  0.1471
  157SAPE   C2717490   2.413   1.238   7.225  0.0047 -0.2911 -0.1279
  157SAPE   H7R17491   2.312   1.201   7.252 -1.5067  3.8538  0.3788
  157SAPE   H7S17492   2.401   1.349   7.228  0.1607 -0.2396 -1.3806
  157SAPE   C2817493   2.513   1.196   7.334 -0.4682 -0.2321  0.4651
  157SAPE   H8R17494   2.620   1.186   7.314 -0.6389 -3.2417  0.8750
  157SAPE   C2917495   2.486   1.189   7.465 -0.0850 -0.1086 -0.0732
  157SAPE   H9R17496   2.568   1.185   7.538  0.3786 -0.4777 -0.6116
  157SAPE  C21017497   2.355   1.216   7.545  0.5034 -0.0252 -1.0833
  157SAPE  H10R17498   2.304   1.122   7.574 -0.1474  0.6406 -0.0459
  157SAPE  H10S17499   2.285   1.274   7.481  1.4606  2.2258 -0.1539
  157SAPE  C21117500   2.393   1.303   7.669 -0.6553 -0.2710 -0.3591
  157SAPE  H11R17501   2.417   1.405   7.637 -0.8990 -0.4938 -1.2538
  157SAPE  C21217502   2.381   1.285   7.800 -0.0281 -1.0069  0.1535
  157SAPE  H12R17503   2.412   1.363   7.871  0.1759 -0.9367 -0.0115
  157SAPE  C21317504   2.329   1.163   7.870 -0.9442  0.1672 -0.1060
  157SAPE  H13R17505   2.411   1.091   7.893 -1.2906 -0.5613 -1.1153
  157SAPE  H13S17506   2.269   1.112   7.791  1.2806 -0.5031 -1.4111
  157SAPE  C21417507   2.243   1.196   7.983 -0.2488 -0.2692 -0.1514
  157SAPE  H14R17508   2.159   1.261   7.955 -1.8620 -1.9370  0.6925
  157SAPE  C21517509   2.257   1.163   8.107 -0.1710 -0.0897  0.4265
  157SAPE  H15R17510   2.173   1.191   8.172 -1.3803 -0.3702 -0.9776
  157SAPE  C21617511   2.363   1.074   8.170 -0.0021  0.4559  1.1211
  157SAPE  H16R17512   2.455   1.071   8.109  0.9453  1.0224  2.5049
  157SAPE  H16S17513   2.346   0.965   8.180  2.3881 -0.0534  0.0269
  157SAPE  C21717514   2.417   1.135   8.300  0.5247  0.2018  0.2335
  157SAPE  H17R17515   2.442   1.241   8.278  0.5830 -0.1624 -1.5351
  157SAPE  H17S17516   2.516   1.089   8.318 -1.0680 -2.4536  2.5968
  157SAPE  C21817517   2.329   1.113   8.424 -0.1461  0.3221  0.0710
  157SAPE  H18R17518   2.219   1.131   8.416 -0.5077 -2.2423 -1.2133
  157SAPE  H18S17519   2.362   1.171   8.512 -0.9263  0.2178  0.4398
  157SAPE  C21917520   2.355   0.963   8.450 -0.1979 -0.5226 -0.7218
  157SAPE  H19R17521   2.464   0.943   8.447  0.2458  1.3881  1.1953
  157SAPE  H19S17522   2.304   0.898   8.377  0.4589 -1.4270 -0.3798
  157SAPE  C22017523   2.303   0.915   8.586 -0.3762 -0.6658  0.0323
  157SAPE  H20R17524   2.379   0.945   8.661 -1.2546  0.3433  0.5265
  157SAPE  H20S17525   2.308   0.804   8.572  2.3876 -0.6933  0.9313
  157SAPE  H20T17526   2.201   0.951   8.611 -0.5376 -0.7087 -0.5439
  157SAPE   C3317527   2.509   1.863   6.816  0.1036  0.7395 -0.1099
  157SAPE   H3X17528   2.535   1.939   6.739 -1.1472 -0.1669 -1.4575
  157SAPE   H3Y17529   2.600   1.844   6.876 -1.6328  0.6145  2.5981
  157SAPE   C3417530   2.411   1.919   6.914 -0.0427 -0.3064 -0.0167
  157SAPE   H4X17531   2.334   1.970   6.852  0.2718  0.4543  0.2103
  157SAPE   H4Y17532   2.459   2.005   6.966  2.3576 -0.4523 -1.9228
  157SAPE   C3517533   2.362   1.824   7.026 -0.0469  0.0851 -0.2167
  157SAPE   H5X17534   2.296   1.742   6.992  0.5579 -2.0141  3.3626
  157SAPE   H5Y17535   2.312   1.900   7.090 -0.3538  0.2642 -0.6745
  157SAPE   C3617536   2.475   1.768   7.120 -0.1199 -0.3661 -0.3337
  157SAPE   H6X17537   2.567   1.829   7.132 -1.0589  0.9829  0.2111
  157SAPE   H6Y17538   2.517   1.676   7.074 -1.3560 -1.5308  0.7977
  157SAPE   C3717539   2.420   1.711   7.246 -0.0304 -0.2942 -0.1345
  157SAPE   H7X17540   2.493   1.637   7.286  0.8091  0.4217 -0.3299
  157SAPE   H7Y17541   2.335   1.643   7.225 -0.0294  0.0513 -1.2667
  157SAPE   C3817542   2.368   1.812   7.353 -0.1542 -0.4431 -0.5606
  157SAPE   H8X17543   2.267   1.842   7.320  0.1019  1.1804  0.0622
  157SAPE   H8Y17544   2.442   1.895   7.357 -0.2520 -0.2185 -2.7192
  157SAPE   C3917545   2.354   1.734   7.481  0.1157  0.9323 -0.5035
  157SAPE   H9X17546   2.443   1.668   7.489 -0.3571  0.2973 -0.3937
  157SAPE   H9Y17547   2.265   1.667   7.487  1.4923 -1.0002 -0.9936
  157SAPE  C31017548   2.345   1.813   7.608  0.0922  0.1707 -0.0285
  157SAPE  H10X17549   2.286   1.905   7.588  0.2288  0.1380 -0.5771
  157SAPE  H10Y17550   2.444   1.852   7.638  0.0839 -1.2644  1.9645
  157SAPE  C31117551   2.293   1.736   7.723 -0.2070  0.3943  0.0499
  157SAPE  H11X17552   2.366   1.653   7.731 -0.5762  0.0181 -0.4723
  157SAPE  H11Y17553   2.192   1.695   7.703  0.2272 -1.0837  0.8327
  157SAPE  C31217554   2.310   1.816   7.849  0.2292  0.5831 -0.0742
  157SAPE  H12X17555   2.244   1.906   7.842 -1.6003 -0.5019  2.3214
  157SAPE  H12Y17556   2.412   1.857   7.843  0.0213  0.7807 -3.2838
  157SAPE  C31317557   2.286   1.740   7.980  0.2190  0.0493 -0.7101
  157SAPE  H13X17558   2.186   1.695   7.995  1.2928 -1.0717  4.1883
  157SAPE  H13Y17559   2.296   1.821   8.055 -2.1033  0.2484 -0.6051
  157SAPE  C31417560   2.391   1.633   8.017 -0.3099 -1.0234 -0.1497
  157SAPE  H14X17561   2.496   1.668   8.005  0.1172 -2.6787 -1.4833
  157SAPE  H14Y17562   2.387   1.544   7.950  0.8926 -1.5315  0.4176
  157SAPE  C31517563   2.379   1.595   8.163  0.8141 -0.2908  0.4015
  157SAPE  H15X17564   2.272   1.569   8.181  1.1464  0.1001  3.2235
  157SAPE  H15Y17565   2.390   1.694   8.213 -0.8637 -0.8859  1.9921
  157SAPE  C31617566   2.484   1.489   8.202 -0.3508 -0.3341  0.0040
  157SAPE  H16X17567   2.454   1.395   8.151  0.5545  0.3024 -1.7444
  157SAPE  H16Y17568   2.478   1.470   8.311 -0.2062  1.4005  0.3325
  157SAPE  C31717569   2.630   1.518   8.167  0.1896  0.1025  0.1186
  157SAPE  H17X17570   2.664   1.612   8.216 -0.8686  1.1152 -1.0729
  157SAPE  H17Y17571   2.641   1.520   8.057  4.1439  1.6069  0.4524
  157SAPE  C31817572   2.732   1.416   8.220 -0.6760  0.4951  0.0055
  157SAPE  H18X17573   2.729   1.312   8.182  1.2528 -0.1713  1.5527
  157SAPE  H18Y17574   2.725   1.414   8.331 -0.8458  1.6050  0.0280
  157SAPE  H18Z17575   2.833   1.462   8.214 -1.6973  3.0423  1.4878
  158SAPE     N17576   4.267   5.323   6.157 -0.2752  0.2512 -0.0331
  158SAPE   HN117577   4.320   5.254   6.099 -0.4084  0.7873 -0.8063
  158SAPE   HN217578   4.165   5.301   6.162 -0.2662  0.2371  0.0796
  158SAPE   HN317579   4.290   5.416   6.116  2.4171 -0.1288  0.5034
  158SAPE   C1217580   4.326   5.309   6.290  0.5026  0.6316  0.3689
  158SAPE  H12A17581   4.437   5.312   6.290  0.5266 -0.2283  0.9616
  158SAPE  H12B17582   4.301   5.212   6.338 -0.0221  0.0129 -1.1650
  158SAPE   C1117583   4.275   5.426   6.380  0.2987  0.0192  0.2668
  158SAPE  H11A17584   4.345   5.435   6.466  2.7099  1.5699 -1.7911
  158SAPE  H11B17585   4.173   5.402   6.415 -0.5689  1.2543 -1.3494
  158SAPE     P17586   4.287   5.695   6.376 -0.3324 -0.1049  0.0928
  158SAPE   O1317587   4.430   5.708   6.413  0.3118 -0.6107  0.4603
  158SAPE   O1417588   4.236   5.797   6.280 -0.1665  0.0501  0.2423
  158SAPE   O1217589   4.267   5.551   6.308  0.3861  0.3283  0.1487
  158SAPE   O1117590   4.196   5.692   6.507 -0.6372  0.2231  0.4933
  158SAPE    C117591   4.252   5.652   6.631 -0.1518  0.3694  0.0920
  158SAPE    HA17592   4.213   5.551   6.658 -2.4502  0.3988 -2.9052
  158SAPE    HB17593   4.363   5.649   6.633 -0.1966 -1.5639  0.9045
  158SAPE    C217594   4.197   5.756   6.737  0.7763  1.1449  0.3680
  158SAPE    HS17595   4.249   5.746   6.835 -1.9664 -2.0759  1.5793
  158SAPE   O2117596   4.054   5.741   6.757 -0.1562 -0.4649 -0.4167
  158SAPE   C2117597   4.012   5.668   6.857  0.5061  0.6539  0.1302
  158SAPE   O2217598   4.073   5.585   6.920  0.0109 -0.5048 -0.1204
  158SAPE   C2217599   3.869   5.714   6.898  0.2241 -0.2002 -0.0372
  158SAPE   H2R17600   3.858   5.824   6.881  1.4304  0.1468  1.2888
  158SAPE   H2S17601   3.794   5.663   6.834  1.0181 -0.4382 -0.7771
  158SAPE    C317602   4.218   5.899   6.686 -0.5541 -0.2691 -0.5481
  158SAPE    HX17603   4.149   5.917   6.601 -3.3576 -0.8369  1.5392
  158SAPE    HY17604   4.314   5.904   6.630 -0.3858 -1.0912 -0.3486
  158SAPE   O3117605   4.226   5.995   6.790 -0.1404 -0.3046 -0.2292
  158SAPE   C3117606   4.329   6.010   6.858 -0.1920 -0.5786 -0.9976
  158SAPE   O3217607   4.429   5.934   6.857 -0.1064 -0.0916  0.6505
  158SAPE   C3217608   4.313   6.120   6.957  0.5461 -0.9048  0.1695
  158SAPE   H2X17609   4.243   6.193   6.911  0.9538  0.3642  1.5171
  158SAPE   H2Y17610   4.407   6.178   6.972 -0.6319  1.0190  0.3918
  158SAPE   C2317611   3.833   5.696   7.050 -0.4365 -0.0328 -0.8154
  158SAPE   H3R17612   3.868   5.598   7.090 -0.2305  0.9028  1.3938
  158SAPE   H3S17613   3.723   5.712   7.045 -0.5098 -0.4508 -0.5674
  158SAPE   C2417614   3.892   5.801   7.161 -0.2570  0.3414  0.3532
  158SAPE   H4R17615   4.002   5.809   7.143 -0.6945  1.3067 -2.1539
  158SAPE   H4S17616   3.882   5.751   7.260  0.0527 -0.9375 -0.2379
  158SAPE   C2517617   3.838   5.936   7.158  0.6482 -0.0895  0.5161
  158SAPE   H5R17618   3.813   5.974   7.058 -0.5087 -0.6103  0.6078
  158SAPE   C2617619   3.801   6.009   7.262 -0.3256 -0.1657 -0.4269
  158SAPE   H6R17620   3.765   6.112   7.252 -1.1966 -0.4814 -0.5626
  158SAPE   C2717621   3.824   5.979   7.406 -0.2710 -0.2849 -0.2745
  158SAPE   H7R17622   3.933   5.966   7.424 -0.3102  0.2297  0.3549
  158SAPE   H7S17623   3.777   5.882   7.432 -0.1300 -0.2354  0.1724
  158SAPE   C2817624   3.759   6.088   7.506  0.3356  0.0137 -1.2034
  158SAPE   H8R17625   3.735   6.183   7.458 -2.1889 -0.7496 -1.5268
  158SAPE   C2917626   3.763   6.074   7.641 -0.4402 -0.4125 -0.0972
  158SAPE   H9R17627   3.723   6.151   7.709  1.6979  0.8316 -0.2025
  158SAPE  C21017628   3.811   5.958   7.715 -0.4855  0.7044 -0.2261
  158SAPE  H10R17629   3.899   5.994   7.773 -0.6409  1.3454 -0.3843
  158SAPE  H10S17630   3.851   5.874   7.654  0.2991  0.8500  0.0803
  158SAPE  C21117631   3.709   5.898   7.805 -0.2756  0.3643  0.1661
  158SAPE  H11R17632   3.646   5.824   7.753  0.9218  0.4710 -1.4704
  158SAPE  C21217633   3.692   5.923   7.934 -0.4669  0.1578 -1.2929
  158SAPE  H12R17634   3.603   5.877   7.980 -0.5410  0.2385 -1.3571
  158SAPE  C21317635   3.768   6.020   8.021  0.1099  0.2229  0.1838
  158SAPE  H13R17636   3.693   6.085   8.070 -1.2970 -0.7132 -0.7031
  158SAPE  H13S17637   3.832   6.091   7.964 -1.9960  1.6753 -0.3909
  158SAPE  C21417638   3.864   5.953   8.111  0.1317 -0.6685 -0.3405
  158SAPE  H14R17639   3.913   5.861   8.076  1.5053 -0.2263  0.3899
  158SAPE  C21517640   3.873   5.990   8.242 -0.0315  0.0631 -0.4865
  158SAPE  H15R17641   3.951   5.940   8.302 -1.1512 -2.2325 -0.8696
  158SAPE  C21617642   3.796   6.093   8.320 -0.0268  0.8393  0.5757
  158SAPE  H16R17643   3.695   6.102   8.273  0.5349 -0.2968 -0.9130
  158SAPE  H16S17644   3.843   6.191   8.339 -0.2903  0.8191  1.3475
  158SAPE  C21717645   3.772   6.040   8.464 -0.4462  0.6707 -0.6521
  158SAPE  H17R17646   3.730   6.115   8.534 -1.8748 -1.7054  1.1132
  158SAPE  H17S17647   3.867   6.000   8.505 -1.1093 -0.6714 -0.3811
  158SAPE  C21817648   3.664   5.930   8.477 -0.4224  0.5431  0.2554
  158SAPE  H18R17649   3.688   5.839   8.418  0.6240  1.1992 -0.3491
  158SAPE  H18S17650   3.565   5.972   8.448  0.4795  2.4333 -0.1595
  158SAPE  C21917651   3.646   5.890   8.625 -0.3647  0.6359 -0.3293
  158SAPE  H19R17652   3.619   5.981   8.683  1.9193  1.2688 -0.2233
  158SAPE  H19S17653   3.743   5.847   8.658 -2.1828 -3.2581  0.2333
  158SAPE  C22017654   3.534   5.784   8.648  0.2400 -0.5354 -0.5545
  158SAPE  H20R17655   3.563   5.689   8.597 -2.0430 -1.2974 -0.4739
  158SAPE  H20S17656   3.434   5.805   8.606 -1.5656  2.1501  4.5866
  158SAPE  H20T17657   3.519   5.763   8.757 -1.2257 -2.1549 -1.0500
  158SAPE   C3317658   4.255   6.068   7.091  0.1268  0.7162  0.2654
  158SAPE   H3X17659   4.337   6.033   7.157 -1.2811  0.2166  1.7587
  158SAPE   H3Y17660   4.189   5.980   7.079 -0.2490  0.9739  0.4550
  158SAPE   C3417661   4.178   6.182   7.157 -0.0191  0.3878 -0.1016
  158SAPE   H4X17662   4.092   6.220   7.098  0.4962 -0.5207 -1.4510
  158SAPE   H4Y17663   4.260   6.254   7.177  0.9233 -0.5977 -0.3876
  158SAPE   C3517664   4.133   6.151   7.291  0.1788 -0.3676  0.4618
  158SAPE   H5X17665   4.176   6.053   7.323 -0.7032 -0.7190  0.6059
  158SAPE   H5Y17666   4.023   6.137   7.306 -0.0838  0.9712 -0.1640
  158SAPE   C3617667   4.185   6.235   7.402  0.0550  0.7641 -0.1611
  158SAPE   H6X17668   4.156   6.341   7.386 -1.6569  0.9043  3.3381
  158SAPE   H6Y17669   4.294   6.218   7.399 -0.1926 -1.6734  2.1812
  158SAPE   C3717670   4.123   6.188   7.536 -0.0553  0.2816  0.1729
  158SAPE   H7X17671   4.017   6.222   7.530 -0.2076 -0.0181  1.0079
  158SAPE   H7Y17672   4.146   6.079   7.532 -0.3593  0.0933  2.4988
  158SAPE   C3817673   4.191   6.257   7.659 -0.2364  0.2471  0.9112
  158SAPE   H8X17674   4.182   6.366   7.637  0.1929  0.0985 -0.0284
  158SAPE   H8Y17675   4.299   6.238   7.676 -0.3655 -0.4360  0.9638
  158SAPE   C3917676   4.123   6.231   7.789 -0.4832 -0.0148  0.8025
  158SAPE   H9X17677   4.182   6.149   7.837  1.0139 -1.0239 -2.6113
  158SAPE   H9Y17678   4.017   6.202   7.772 -0.7068  2.2085 -1.9075
  158SAPE  C31017679   4.135   6.339   7.890 -0.1496  0.4077 -0.2123
  158SAPE  H10X17680   4.048   6.404   7.865  0.7057  1.2013 -1.1634
  158SAPE  H10Y17681   4.228   6.398   7.882 -0.6039  1.1058 -0.4100
  158SAPE  C31117682   4.144   6.293   8.035  0.4867  0.0458  0.6767
  158SAPE  H11X17683   4.220   6.211   8.043  0.4374 -0.0283  0.3797
  158SAPE  H11Y17684   4.047   6.253   8.071  0.9929 -0.1076  1.9253
  158SAPE  C31217685   4.178   6.406   8.130 -0.4302 -0.0251  0.6441
  158SAPE  H12X17686   4.107   6.488   8.105  1.0475  1.2504  0.5106
  158SAPE  H12Y17687   4.283   6.439   8.117 -0.1651 -0.3734  1.8667
  158SAPE  C31317688   4.152   6.385   8.281 -0.2060 -0.0900  0.1149
  158SAPE  H13X17689   4.043   6.370   8.298  0.5003 -1.8678  3.6627
  158SAPE  H13Y17690   4.173   6.473   8.345 -1.5280  0.4097 -0.1220
  158SAPE  C31417691   4.222   6.262   8.333  0.5248 -0.9295  0.1682
  158SAPE  H14X17692   4.332   6.279   8.339 -0.0854  3.1690  0.6907
  158SAPE  H14Y17693   4.196   6.185   8.257  0.4088 -0.3306 -0.4059
  158SAPE  C31517694   4.173   6.213   8.467 -0.4254 -0.3766  0.7688
  158SAPE  H15X17695   4.067   6.178   8.469  0.1096 -2.1408 -0.8291
  158SAPE  H15Y17696   4.180   6.304   8.531  0.9949  0.6111 -0.7282
  158SAPE  C31617697   4.250   6.096   8.534 -0.3341  0.4765  0.1844
  158SAPE  H16X17698   4.346   6.144   8.565 -1.0989  1.5052  0.9746
  158SAPE  H16Y17699   4.271   6.012   8.464  0.8236  0.3508  0.6724
  158SAPE  C31717700   4.171   6.056   8.657 -0.0715  0.1261 -0.0682
  158SAPE  H17X17701   4.066   6.052   8.621  0.6409 -1.3079 -2.0927
  158SAPE  H17Y17702   4.177   6.136   8.735 -0.5202 -0.9139  1.0432
  158SAPE  C31817703   4.212   5.926   8.705 -0.0090 -0.2885 -0.7042
  158SAPE  H18X17704   4.167   5.897   8.802  0.3678  4.1407  0.8738
  158SAPE  H18Y17705   4.321   5.925   8.725  0.1860  1.9044 -1.5185
  158SAPE  H18Z17706   4.175   5.850   8.633  0.2935 -0.7771 -0.3466
  159SAPE     N17707   4.126   1.963   6.358  0.4946 -0.0324 -0.0970
  159SAPE   HN117708   4.154   1.917   6.447  3.4374  1.1233 -0.3633
  159SAPE   HN217709   4.101   1.893   6.286 -2.5133  1.9337 -1.0785
  159SAPE   HN317710   4.210   2.021   6.337 -0.4493  2.3870  2.4729
  159SAPE   C1217711   4.017   2.053   6.386  0.3572  1.2096  0.1142
  159SAPE  H12A17712   3.993   2.112   6.296  0.5861  0.1743 -0.6287
  159SAPE  H12B17713   4.047   2.124   6.466 -1.6145 -0.4783  2.4395
  159SAPE   C1117714   3.889   1.974   6.440 -0.5751  0.5708 -0.2671
  159SAPE  H11A17715   3.803   2.045   6.444  0.4218  1.7180  1.9294
  159SAPE  H11B17716   3.911   1.953   6.547  1.1426 -0.5378 -0.8172
  159SAPE     P17717   3.716   1.822   6.306  0.1356  0.0100  0.0679
  159SAPE   O1317718   3.682   1.905   6.188  0.0857 -0.0684 -0.5309
  159SAPE   O1417719   3.701   1.678   6.288 -0.4022 -0.2642 -0.2164
  159SAPE   O1217720   3.856   1.861   6.358 -0.2265  0.1913 -0.4844
  159SAPE   O1117721   3.621   1.871   6.418  0.0357 -0.2531 -0.1576
  159SAPE    C117722   3.616   1.779   6.528  0.2143 -0.2074  0.1124
  159SAPE    HA17723   3.538   1.702   6.514  0.2970  0.2007 -2.9081
  159SAPE    HB17724   3.705   1.717   6.551  1.7470  2.2252  0.9576
  159SAPE    C217725   3.562   1.842   6.657  0.1524  0.0154  1.0660
  159SAPE    HS17726   3.538   1.769   6.737 -0.7291  0.9182  1.6436
  159SAPE   O2117727   3.447   1.932   6.629 -0.1492 -0.0725 -0.6708
  159SAPE   C2117728   3.330   1.877   6.592  0.6080  0.0219 -0.2522
  159SAPE   O2217729   3.300   1.758   6.608  0.2044  0.0849  0.2608
  159SAPE   C2217730   3.237   1.979   6.521 -0.7564 -0.2194 -0.1319
  159SAPE   H2R17731   3.250   2.072   6.580  1.0736 -0.1762 -0.5920
  159SAPE   H2S17732   3.268   1.993   6.415  1.3818 -1.2502  0.3342
  159SAPE    C317733   3.663   1.927   6.727 -0.0991 -0.9391 -0.0494
  159SAPE    HX17734   3.612   1.977   6.812  2.0053  1.5071 -0.1650
  159SAPE    HY17735   3.690   1.999   6.647  0.0135 -1.2748 -0.3128
  159SAPE   O3117736   3.778   1.853   6.767  0.2465 -0.0565  0.1230
  159SAPE   C3117737   3.865   1.913   6.846  0.1737  0.0913  0.6063
  159SAPE   O3217738   3.840   2.021   6.900 -0.1002 -0.3037 -0.1489
  159SAPE   C3217739   3.993   1.831   6.857  0.2467 -0.1863  0.0561
  159SAPE   H2X17740   4.062   1.885   6.924  1.2406 -0.8817 -0.4025
  159SAPE   H2Y17741   4.032   1.839   6.753  1.0597 -1.4114  0.2573
  159SAPE   C2317742   3.093   1.935   6.506  0.8455  0.4839 -0.2115
  159SAPE   H3R17743   3.087   1.835   6.458  1.2622  0.2063  0.3018
  159SAPE   H3S17744   3.050   2.000   6.427  2.0055 -0.5213 -1.7073
  159SAPE   C2417745   3.003   1.949   6.632 -0.2696  0.1118  0.4002
  159SAPE   H4R17746   3.051   1.903   6.721  1.0119  1.9578  0.7024
  159SAPE   H4S17747   2.906   1.914   6.591 -0.4397  1.2106 -0.1515
  159SAPE   C2517748   2.985   2.088   6.672 -0.0496 -0.5689 -0.9084
  159SAPE   H5R17749   2.996   2.161   6.591  0.4262  1.4767  0.9520
  159SAPE   C2617750   2.940   2.141   6.783 -0.3270 -0.3597 -0.7194
  159SAPE   H6R17751   2.922   2.249   6.799  0.7166 -0.4503  1.2393
  159SAPE   C2717752   2.904   2.054   6.904 -0.2812  0.3824  0.5422
  159SAPE   H7R17753   2.996   2.043   6.964  1.8630 -0.2344 -2.7298
  159SAPE   H7S17754   2.865   1.952   6.881  0.0751  0.6134 -1.0974
  159SAPE   C2817755   2.787   2.109   6.977  0.2242 -0.8906  0.3628
  159SAPE   H8R17756   2.693   2.101   6.921  0.6619  0.2010 -0.5644
  159SAPE   C2917757   2.801   2.162   7.100  0.1280 -0.0953 -0.7572
  159SAPE   H9R17758   2.715   2.193   7.160  0.1057  0.4787 -1.0822
  159SAPE  C21017759   2.923   2.177   7.194 -0.7443  0.2604 -0.2561
  159SAPE  H10R17760   3.018   2.159   7.140  0.5658  4.3901  0.4900
  159SAPE  H10S17761   2.918   2.099   7.273 -1.5565 -0.9166 -1.4351
  159SAPE  C21117762   2.928   2.312   7.242 -0.5973  0.2401  0.3795
  159SAPE  H11R17763   2.926   2.390   7.164 -1.8304  0.5184  0.6835
  159SAPE  C21217764   2.934   2.364   7.367  0.0588 -1.0596 -0.3432
  159SAPE  H12R17765   2.924   2.473   7.380  1.0030 -0.7038 -2.4289
  159SAPE  C21317766   2.926   2.279   7.486 -0.0748 -0.2376 -0.9535
  159SAPE  H13R17767   2.859   2.195   7.462 -1.8620  0.8677  0.0158
  159SAPE  H13S17768   2.861   2.327   7.562  1.0489 -2.7339  1.6842
  159SAPE  C21417769   3.062   2.227   7.542  0.3869  0.2060  0.5638
  159SAPE  H14R17770   3.121   2.171   7.468 -0.9962  1.2711 -1.3937
  159SAPE  C21517771   3.107   2.243   7.664 -0.2879  0.0693 -0.2398
  159SAPE  H15R17772   3.206   2.201   7.686 -0.5071  0.1058  0.8507
  159SAPE  C21617773   3.042   2.320   7.777 -0.0390 -1.1204 -0.4539
  159SAPE  H16R17774   2.963   2.391   7.749  0.0382 -1.3451 -1.2555
  159SAPE  H16S17775   3.126   2.372   7.829 -0.1717  0.3351 -1.6645
  159SAPE  C21717776   2.982   2.223   7.880 -0.2648 -0.0471 -0.2597
  159SAPE  H17R17777   3.065   2.153   7.906  0.1962  0.7868  0.5693
  159SAPE  H17S17778   2.902   2.169   7.827 -0.1090 -0.2389 -0.3004
  159SAPE  C21817779   2.918   2.290   8.004 -0.1596  0.8172  0.3738
  159SAPE  H18R17780   2.868   2.215   8.070 -0.1259 -1.1446 -1.7822
  159SAPE  H18S17781   2.842   2.366   7.977 -2.2330 -1.2325  0.2497
  159SAPE  C21917782   3.011   2.363   8.098  0.4762  1.2335 -0.3398
  159SAPE  H19R17783   3.054   2.449   8.042 -0.2471  0.4068 -2.1978
  159SAPE  H19S17784   3.090   2.287   8.116 -0.9982 -0.4940 -0.9181
  159SAPE  C22017785   2.941   2.416   8.229  0.6474 -0.1313  0.8274
  159SAPE  H20R17786   3.023   2.456   8.293  0.4990  0.8368  0.4087
  159SAPE  H20S17787   2.896   2.325   8.275 -0.8782 -0.2899 -0.9269
  159SAPE  H20T17788   2.868   2.499   8.221  1.2346  0.5381  2.2443
  159SAPE   C3317789   3.979   1.694   6.914 -1.0056  0.1558  0.1297
  159SAPE   H3X17790   4.078   1.647   6.937 -2.6976 -1.6022  4.4489
  159SAPE   H3Y17791   3.943   1.614   6.846  1.8411 -0.7631 -0.3938
  159SAPE   C3417792   3.908   1.687   7.047 -0.0100 -0.3761  0.3622
  159SAPE   H4X17793   3.881   1.584   7.079 -1.3154 -0.3585 -0.6474
  159SAPE   H4Y17794   3.805   1.721   7.025  0.2529 -0.0665 -0.4015
  159SAPE   C3517795   3.974   1.769   7.162 -0.0491 -0.1672 -0.0427
  159SAPE   H5X17796   3.993   1.874   7.129  2.0633  0.2336  2.2985
  159SAPE   H5Y17797   4.075   1.730   7.186  0.5717  0.9726 -0.7669
  159SAPE   C3617798   3.882   1.781   7.283 -0.0076 -0.2639 -0.7174
  159SAPE   H6X17799   3.887   1.686   7.341  0.9762 -0.3427 -0.9221
  159SAPE   H6Y17800   3.777   1.797   7.251 -1.0197 -3.0272  1.0086
  159SAPE   C3717801   3.900   1.906   7.373 -0.4194  0.4034 -0.0192
  159SAPE   H7X17802   3.818   1.917   7.447 -0.7313  1.8109 -0.5472
  159SAPE   H7Y17803   3.893   1.994   7.305 -0.5513  0.8897  0.6181
  159SAPE   C3817804   4.033   1.921   7.461 -0.1693  0.3632 -0.1038
  159SAPE   H8X17805   4.127   1.911   7.401  0.0065  0.0402  0.2286
  159SAPE   H8Y17806   4.029   1.832   7.527  1.4881  1.0449  0.9484
  159SAPE   C3917807   4.032   2.052   7.530 -0.6706  0.5849 -0.2601
  159SAPE   H9X17808   3.936   2.073   7.581  0.5604 -1.1521  2.9348
  159SAPE   H9Y17809   4.056   2.131   7.455  0.5813  0.4168 -0.0570
  159SAPE  C31017810   4.147   2.071   7.630 -0.1114  0.4860  0.9136
  159SAPE  H10X17811   4.240   2.044   7.577 -0.2037  0.1061  0.9436
  159SAPE  H10Y17812   4.134   2.005   7.719  2.9613 -2.6740 -0.8336
  159SAPE  C31117813   4.161   2.219   7.677  0.3764 -0.0222 -0.2815
  159SAPE  H11X17814   4.068   2.245   7.731  0.4710  0.4370 -0.3370
  159SAPE  H11Y17815   4.165   2.279   7.583  0.3857  1.0851  0.4151
  159SAPE  C31217816   4.284   2.249   7.768  0.0459  0.2916  0.1151
  159SAPE  H12X17817   4.361   2.191   7.714 -1.3400  0.5956 -2.2338
  159SAPE  H12Y17818   4.258   2.206   7.867  0.5133  3.2372  1.5732
  159SAPE  C31317819   4.322   2.397   7.770  0.0625 -0.1613 -0.4162
  159SAPE  H13X17820   4.227   2.442   7.805  0.8426  0.2749  1.2127
  159SAPE  H13Y17821   4.351   2.422   7.666  1.2637 -0.7886 -0.2466
  159SAPE  C31417822   4.427   2.418   7.874  0.2460  0.3571 -0.2977
  159SAPE  H14X17823   4.507   2.343   7.859 -0.4852 -0.9338  1.9769
  159SAPE  H14Y17824   4.382   2.396   7.973  0.3601  0.7905 -0.1501
  159SAPE  C31517825   4.477   2.563   7.876 -0.1874 -0.4308  0.0908
  159SAPE  H15X17826   4.389   2.628   7.862  1.6281  2.0613 -0.1689
  159SAPE  H15Y17827   4.550   2.572   7.793 -0.0020  1.9268  0.4897
  159SAPE  C31617828   4.549   2.595   8.008 -0.1222  0.5722  0.4333
  159SAPE  H16X17829   4.612   2.686   7.993 -0.1743  0.2190 -2.3544
  159SAPE  H16Y17830   4.614   2.512   8.041 -1.4033 -1.4340 -1.9091
  159SAPE  C31717831   4.444   2.626   8.119  0.0774 -0.0943  0.3191
  159SAPE  H17X17832   4.379   2.536   8.130  1.9298 -1.5308 -0.3855
  159SAPE  H17Y17833   4.391   2.712   8.071  2.2265 -0.0088 -1.9987
  159SAPE  C31817834   4.506   2.671   8.250 -0.7573 -0.3893 -0.8645
  159SAPE  H18X17835   4.585   2.602   8.286  0.0188  0.3549 -1.1189
  159SAPE  H18Y17836   4.429   2.689   8.329  0.4655 -0.8352  0.4536
  159SAPE  H18Z17837   4.556   2.770   8.237 -0.9289 -0.0102  1.0764
  160SAPE     N17838   4.255   0.753   6.576 -0.4534 -0.0294 -0.3044
  160SAPE   HN117839   4.260   0.793   6.481  2.1140  0.3130 -0.0672
  160SAPE   HN217840   4.166   0.776   6.624  0.7497  1.2389  1.4178
  160SAPE   HN317841   4.331   0.773   6.645 -1.2397 -1.9310  1.1637
  160SAPE   C1217842   4.253   0.599   6.576  0.6237  0.2440  0.2802
  160SAPE  H12A17843   4.263   0.569   6.682 -0.2651 -0.3430  0.2009
  160SAPE  H12B17844   4.345   0.568   6.523  0.2082 -1.8582  0.7663
  160SAPE   C1117845   4.126   0.545   6.517  0.3347  0.0410 -0.5849
  160SAPE  H11A17846   4.131   0.561   6.407  2.6010 -0.8020 -0.6080
  160SAPE  H11B17847   4.043   0.605   6.562 -1.0877 -0.9474 -1.8205
  160SAPE     P17848   4.176   0.298   6.483 -0.3830 -0.0538 -0.0547
  160SAPE   O1317849   4.120   0.290   6.349  0.2127 -0.5114 -0.1593
  160SAPE   O1417850   4.325   0.322   6.496  0.3679 -0.0652 -0.1307
  160SAPE   O1217851   4.097   0.410   6.555  0.6340 -0.7223  0.0812
  160SAPE   O1117852   4.143   0.154   6.547 -0.4156 -0.1746 -0.0190
  160SAPE    C117853   4.016   0.112   6.603  0.3228 -0.6714 -0.1812
  160SAPE    HA17854   3.938   0.192   6.600 -0.7454 -1.7297 -1.9127
  160SAPE    HB17855   3.972   0.033   6.538  2.8942 -0.6259 -2.0772
  160SAPE    C217856   4.024   0.064   6.754  0.8521 -0.3753  0.0676
  160SAPE    HS17857   3.926   0.076   6.805  1.1286  0.1974  0.4626
  160SAPE   O2117858   4.112   0.152   6.827 -0.2114 -0.1214  0.4193
  160SAPE   C2117859   4.062   0.269   6.868 -0.4815 -0.0585 -0.2014
  160SAPE   O2217860   3.942   0.297   6.866 -0.2812  0.7075 -0.0212
  160SAPE   C2217861   4.176   0.358   6.915 -0.4562 -0.0762  0.2440
  160SAPE   H2R17862   4.228   0.384   6.821  0.3074 -1.3356  0.3040
  160SAPE   H2S17863   4.138   0.443   6.975 -0.1003  1.0708 -1.1313
  160SAPE    C317864   4.069  -0.081   6.763  0.1591 -0.1132  0.1327
  160SAPE    HX17865   4.164  -0.100   6.708  0.0633 -0.1152 -0.0316
  160SAPE    HY17866   3.992  -0.147   6.719 -0.7327  2.6130 -2.5399
  160SAPE   O3117867   4.091  -0.117   6.900  0.3458 -0.3570  0.0435
  160SAPE   C3117868   4.209  -0.086   6.955  0.0450  0.1283 -0.1507
  160SAPE   O3217869   4.311  -0.052   6.896 -0.1814  0.0754 -0.2063
  160SAPE   C3217870   4.199  -0.110   7.106  0.1775 -0.3896  0.4214
  160SAPE   H2X17871   4.105  -0.160   7.137 -0.1026  0.3391  0.7420
  160SAPE   H2Y17872   4.214  -0.020   7.168 -1.1243 -1.2697  2.0484
  160SAPE   C2317873   4.268   0.289   7.013  0.7351 -0.4882  0.7574
  160SAPE   H3R17874   4.313   0.195   6.974  2.3330  1.2007 -1.6651
  160SAPE   H3S17875   4.208   0.249   7.098  0.8071 -0.0299  1.0235
  160SAPE   C2417876   4.376   0.390   7.048 -0.2417 -0.3023  0.1078
  160SAPE   H4R17877   4.313   0.470   7.091  1.5990  2.2703 -1.8289
  160SAPE   H4S17878   4.424   0.419   6.952  0.1058  0.6318  0.5592
  160SAPE   C2517879   4.485   0.349   7.144  0.0508 -0.1638 -0.1522
  160SAPE   H5R17880   4.588   0.328   7.114  0.1667  0.2438 -0.0343
  160SAPE   C2617881   4.473   0.324   7.277  0.1832 -0.1321 -0.3100
  160SAPE   H6R17882   4.561   0.291   7.335  0.8601  1.0790 -0.6281
  160SAPE   C2717883   4.351   0.346   7.366 -0.4764  0.1503  0.1970
  160SAPE   H7R17884   4.256   0.321   7.315 -0.4280 -3.0058  1.5362
  160SAPE   H7S17885   4.348   0.454   7.390 -0.3733 -0.0301  1.0459
  160SAPE   C2817886   4.362   0.269   7.495 -0.1800  0.0368 -0.0864
  160SAPE   H8R17887   4.311   0.173   7.486 -0.8801  0.4945 -1.1404
  160SAPE   C2917888   4.419   0.307   7.611  0.2176 -0.4872 -0.2084
  160SAPE   H9R17889   4.410   0.235   7.694 -1.2031 -0.7280 -0.5595
  160SAPE  C21017890   4.487   0.433   7.648 -0.2351  0.0296 -0.0643
  160SAPE  H10R17891   4.422   0.524   7.639  1.5420  1.2873 -0.4051
  160SAPE  H10S17892   4.568   0.436   7.572 -0.8677 -0.9165 -0.7794
  160SAPE  C21117893   4.548   0.432   7.790  0.2322 -0.1422  0.0661
  160SAPE  H11R17894   4.655   0.457   7.790 -0.1527  1.5894  1.7447
  160SAPE  C21217895   4.483   0.416   7.909  0.9030 -0.6045  0.4926
  160SAPE  H12R17896   4.556   0.412   7.992  0.6346 -0.2508  0.7482
  160SAPE  C21317897   4.336   0.386   7.928  0.9824 -0.1892  0.3192
  160SAPE  H13R17898   4.316   0.389   8.037  1.1867  2.1910  0.3094
  160SAPE  H13S17899   4.305   0.284   7.896 -1.8837  0.9525 -0.7822
  160SAPE  C21417900   4.235   0.486   7.877  0.5898  0.3304  0.3430
  160SAPE  H14R17901   4.269   0.588   7.854  1.4317 -0.2731 -1.1555
  160SAPE  C21517902   4.105   0.466   7.857  0.8551 -0.8947 -0.9190
  160SAPE  H15R17903   4.046   0.553   7.825  0.2046 -0.5225  1.2141
  160SAPE  C21617904   4.025   0.339   7.880  0.2235  0.5263  0.0956
  160SAPE  H16R17905   3.960   0.345   7.970  1.3084  2.0163  0.8013
  160SAPE  H16S17906   4.092   0.252   7.902 -0.9671 -0.2201  0.8270
  160SAPE  C21717907   3.942   0.301   7.753 -0.2911 -0.1778  0.2438
  160SAPE  H17R17908   3.849   0.360   7.738 -0.4586 -0.3341  0.6463
  160SAPE  H17S17909   3.897   0.202   7.779 -1.6905  0.2748 -0.3910
  160SAPE  C21817910   4.027   0.280   7.624  0.2538 -0.8790 -0.7012
  160SAPE  H18R17911   4.120   0.229   7.653  0.5670 -0.1386 -0.3879
  160SAPE  H18S17912   4.053   0.380   7.583 -1.5023 -0.7243 -1.4828
  160SAPE  C21917913   3.944   0.204   7.522  0.2404 -0.2363 -0.0923
  160SAPE  H19R17914   3.850   0.260   7.502 -0.9131 -2.1009  0.0969
  160SAPE  H19S17915   3.912   0.105   7.559  0.2552  0.6343  2.3581
  160SAPE  C22017916   3.999   0.178   7.388 -0.3161  1.2575  0.4185
  160SAPE  H20R17917   4.023   0.266   7.325 -1.6622  1.5778  0.3339
  160SAPE  H20S17918   3.926   0.120   7.328 -0.9048  2.5975 -0.1908
  160SAPE  H20T17919   4.091   0.117   7.399  0.0812  1.9349  0.8754
  160SAPE   C3317920   4.311  -0.211   7.143  0.0070  0.5406 -0.1093
  160SAPE   H3X17921   4.409  -0.161   7.129 -0.4426  1.4882  0.0048
  160SAPE   H3Y17922   4.300  -0.301   7.080  0.2769 -0.7361  1.6335
  160SAPE   C3417923   4.306  -0.250   7.291 -0.5215 -0.4751 -0.5062
  160SAPE   H4X17924   4.385  -0.325   7.314 -0.1326 -0.2631 -1.1433
  160SAPE   H4Y17925   4.213  -0.309   7.307 -0.2882 -0.9660 -0.9288
  160SAPE   C3517926   4.292  -0.134   7.386 -0.2424  0.4684  0.1631
  160SAPE   H5X17927   4.197  -0.081   7.363  0.2342  1.3813  0.2772
  160SAPE   H5Y17928   4.377  -0.064   7.373 -0.6220  0.4733 -2.4394
  160SAPE   C3617929   4.279  -0.185   7.531  0.3427 -0.6299 -1.0297
  160SAPE   H6X17930   4.373  -0.241   7.553  0.9050  0.1127 -1.5216
  160SAPE   H6Y17931   4.197  -0.260   7.536  0.1767 -0.3247  1.5094
  160SAPE   C3717932   4.254  -0.080   7.638  0.0128  0.3135 -0.7786
  160SAPE   H7X17933   4.169  -0.017   7.603 -0.4197 -0.7852 -1.7211
  160SAPE   H7Y17934   4.335  -0.003   7.638  0.8451 -0.5528 -1.2400
  160SAPE   C3817935   4.207  -0.120   7.781 -0.8679  0.3990  0.1340
  160SAPE   H8X17936   4.295  -0.144   7.845  0.1925  0.4209 -1.2839
  160SAPE   H8Y17937   4.146  -0.213   7.773 -0.4836 -0.0490  2.2582
  160SAPE   C3917938   4.140  -0.002   7.849  0.2776 -0.2925  0.2284
  160SAPE   H9X17939   4.047   0.023   7.795  0.5699  2.0035  0.7443
  160SAPE   H9Y17940   4.210   0.084   7.857  1.1755 -0.9273 -0.7285
  160SAPE  C31017941   4.090  -0.033   7.987 -0.6260  0.4871  0.5555
  160SAPE  H10X17942   4.056  -0.137   8.004  1.5719 -0.0568  1.7740
  160SAPE  H10Y17943   4.004   0.033   8.011 -1.0192  0.3335 -0.3764
  160SAPE  C31117944   4.190  -0.017   8.097  0.5803  0.4694 -0.3581
  160SAPE  H11X17945   4.234   0.085   8.095 -1.6017  1.4688  1.0589
  160SAPE  H11Y17946   4.267  -0.097   8.085  0.1001  0.1734 -1.6217
  160SAPE  C31217947   4.114  -0.038   8.226  0.2421  0.0733  0.0809
  160SAPE  H12X17948   4.054  -0.132   8.218 -1.5982  1.3531 -1.8514
  160SAPE  H12Y17949   4.036   0.039   8.243 -0.5362 -0.4371 -1.0839
  160SAPE  C31317950   4.205  -0.040   8.348 -0.9774  0.3207 -0.4318
  160SAPE  H13X17951   4.269   0.050   8.341 -2.6208  1.5487  0.1326
  160SAPE  H13Y17952   4.268  -0.132   8.344  1.3131  1.8279 -0.0996
  160SAPE  C31417953   4.119  -0.047   8.476 -0.3335 -0.2923  0.2562
  160SAPE  H14X17954   4.043  -0.127   8.460 -0.4869  0.2565 -1.8724
  160SAPE  H14Y17955   4.061   0.045   8.497 -0.1120 -0.0819 -0.0644
  160SAPE  C31517956   4.197  -0.071   8.608 -0.1224  0.3661  0.2858
  160SAPE  H15X17957   4.130  -0.042   8.692 -1.1832  0.7549 -0.6862
  160SAPE  H15Y17958   4.288  -0.007   8.613  0.1011  0.1437 -0.8403
  160SAPE  C31617959   4.227  -0.217   8.643  0.2563  0.0358 -0.2654
  160SAPE  H16X17960   4.289  -0.270   8.567 -1.0693 -0.1687 -1.2255
  160SAPE  H16Y17961   4.126  -0.263   8.648  1.0073 -1.6468 -0.0713
  160SAPE  C31717962   4.288  -0.223   8.787  0.6344  0.0649  0.5273
  160SAPE  H17X17963   4.242  -0.148   8.854  3.6742 -1.2407  4.2206
  160SAPE  H17Y17964   4.396  -0.200   8.772  0.5859  0.8567  1.4083
  160SAPE  C31817965   4.270  -0.360   8.854  0.3309  0.8394  0.4940
  160SAPE  H18X17966   4.311  -0.356   8.957  1.2141 -0.7372  0.2332
  160SAPE  H18Y17967   4.326  -0.437   8.796  0.9592  2.4240 -1.0645
  160SAPE  H18Z17968   4.163  -0.390   8.855 -0.0494  2.2253  2.8499
  161SOPE     N17969   2.774   2.857  10.789 -0.5096 -0.4642  0.3698
  161SOPE   HN117970   2.775   2.754  10.772  0.5763 -0.3291 -0.4049
  161SOPE   HN217971   2.706   2.877  10.865  0.4934  0.4772  1.0145
  161SOPE   HN317972   2.734   2.896  10.701 -0.2651  1.2292  1.0091
  161SOPE   C1217973   2.906   2.903  10.824 -0.7919  0.4240  0.2304
  161SOPE  H12A17974   2.934   2.861  10.923  3.0860 -0.8871 -1.3411
  161SOPE  H12B17975   2.897   3.013  10.839  1.4219  0.6264  0.1281
  161SOPE   C1117976   3.001   2.868  10.712  0.1682  0.8574  0.8885
  161SOPE  H11A17977   2.965   2.776  10.661 -0.1888  1.2360  0.4523
  161SOPE  H11B17978   3.099   2.840  10.758 -0.7699  1.0513  3.0488
  161SOPE     P17979   2.942   3.004  10.493  0.0701  0.1998 -0.1452
  161SOPE   O1317980   2.962   3.141  10.455  0.0110  0.1170  0.2093
  161SOPE   O1417981   2.809   2.952  10.510 -0.0509  0.0387  0.0523
  161SOPE   O1217982   3.029   2.976  10.620 -0.1153 -0.8753  0.6412
  161SOPE   O1117983   3.014   2.915  10.388  0.2554  0.0710 -0.1603
  161SOPE    C117984   3.104   2.967  10.297  0.7319 -0.3731 -0.1909
  161SOPE    HA17985   3.165   2.886  10.250  0.8932  0.4963 -1.5106
  161SOPE    HB17986   3.178   3.033  10.347  2.4051 -0.9422 -1.8116
  161SOPE    C217987   3.040   3.033  10.175  0.5018  0.2137 -0.2562
  161SOPE    HS17988   2.961   3.105  10.205  2.6474  1.4295  2.7650
  161SOPE   O2117989   2.979   2.929  10.093 -0.0326  0.2113 -0.3807
  161SOPE   C2117990   2.880   2.973  10.020 -0.8614 -0.5784  0.0909
  161SOPE   O2217991   2.855   3.090  10.000  0.6496  0.0039 -0.3558
  161SOPE   C2217992   2.797   2.856   9.961  0.2500  0.2763 -0.4583
  161SOPE   H2R17993   2.751   2.810  10.051 -0.0780 -1.7056 -1.6213
  161SOPE   H2S17994   2.852   2.775   9.909 -0.3470 -1.2763  1.2709
  161SOPE    C317995   3.149   3.120  10.106  0.2254  0.0458 -0.6552
  161SOPE    HX17996   3.173   3.192  10.187 -3.1418 -0.4415  0.8717
  161SOPE    HY17997   3.088   3.172  10.029 -1.2928 -1.4812 -0.5088
  161SOPE   O3117998   3.258   3.037  10.068  0.0192  0.1679  0.0582
  161SOPE   C3117999   3.255   3.010   9.938  0.0121  0.3466 -0.2009
  161SOPE   O3218000   3.176   3.058   9.864  0.1713  0.0521  0.2643
  161SOPE   C3218001   3.346   2.896   9.894 -0.7294 -0.4614  0.8988
  161SOPE   H2X18002   3.447   2.914   9.937 -0.9824  2.7919  0.2695
  161SOPE   H2Y18003   3.355   2.891   9.783  0.1854  0.0341  0.9470
  161SOPE   C2318004   2.687   2.911   9.872  0.2923  1.1341 -0.0408
  161SOPE   H3R18005   2.748   2.945   9.786  0.1277 -0.0167 -0.6156
  161SOPE   H3S18006   2.621   2.994   9.907 -1.2080 -0.4374  0.9460
  161SOPE   C2418007   2.585   2.805   9.825 -1.4559  0.4821 -0.2949
  161SOPE   H4R18008   2.537   2.763   9.915 -1.7115 -2.5321 -1.7593
  161SOPE   H4S18009   2.502   2.842   9.761 -1.2239 -0.7501 -1.3239
  161SOPE   C2518010   2.638   2.678   9.765 -0.2067 -0.6127  0.8103
  161SOPE   H5R18011   2.677   2.689   9.662 -0.8917 -0.2580  0.5867
  161SOPE   H5S18012   2.727   2.632   9.815  1.0520 -1.6306 -2.2529
  161SOPE   C2618013   2.533   2.557   9.748  0.2326  0.0800 -0.5921
  161SOPE   H6R18014   2.510   2.502   9.842  0.1963  1.1640  0.0457
  161SOPE   H6S18015   2.442   2.608   9.712  0.3020  0.8688  0.3407
  161SOPE   C2718016   2.578   2.455   9.644 -1.1945 -0.5726  0.8450
  161SOPE   H7R18017   2.595   2.507   9.547 -1.7726  2.3889  2.2705
  161SOPE   H7S18018   2.676   2.419   9.683 -0.3072  0.7301 -0.1329
  161SOPE   C2818019   2.487   2.335   9.619 -0.7078 -0.3561  0.1759
  161SOPE   H8R18020   2.545   2.251   9.575  1.3189  1.1490 -0.0808
  161SOPE   H8S18021   2.448   2.304   9.719 -1.8398  2.0866  0.5368
  161SOPE   C2918022   2.367   2.370   9.538  0.2137  0.1049 -0.4685
  161SOPE   H9118023   2.292   2.442   9.577 -0.3518 -0.4354 -0.5514
  161SOPE  C21018024   2.350   2.338   9.410  0.1313 -0.0706 -0.3399
  161SOPE  H10118025   2.252   2.359   9.364  0.9963  2.6369 -1.0664
  161SOPE  C21118026   2.439   2.255   9.327 -0.4191 -0.2941  1.1559
  161SOPE  H11R18027   2.384   2.223   9.236  0.2575 -0.7870  0.9202
  161SOPE  H11S18028   2.465   2.159   9.376 -2.9137 -1.2879  0.6226
  161SOPE  C21218029   2.570   2.329   9.292 -0.5003 -0.2871  0.1056
  161SOPE  H12R18030   2.644   2.335   9.374  0.6659  0.9887 -1.0240
  161SOPE  H12S18031   2.554   2.433   9.256 -0.0702  0.4343  1.9421
  161SOPE  C21318032   2.651   2.256   9.176 -0.5874  0.0384  0.6039
  161SOPE  H13R18033   2.702   2.162   9.205 -0.6529 -0.6874 -1.5326
  161SOPE  H13S18034   2.730   2.322   9.135 -1.6175  0.0753 -1.4233
  161SOPE  C21418035   2.565   2.213   9.045 -0.1814  0.1159 -0.7025
  161SOPE  H14R18036   2.510   2.299   9.004 -0.4091 -0.5876 -1.8853
  161SOPE  H14S18037   2.491   2.137   9.078  1.1964 -0.6034  0.8111
  161SOPE  C21518038   2.655   2.142   8.944 -0.0426  0.2508 -0.2074
  161SOPE  H15R18039   2.705   2.057   8.995 -0.3710 -0.5417 -1.2041
  161SOPE  H15S18040   2.739   2.208   8.916  0.9037 -1.9805 -2.8216
  161SOPE  C21618041   2.573   2.097   8.822 -0.0332 -0.0605  0.1987
  161SOPE  H16R18042   2.509   2.183   8.793  1.4233  1.5618  1.6589
  161SOPE  H16S18043   2.502   2.018   8.855 -1.4783 -0.0736 -2.7224
  161SOPE  C21718044   2.646   2.052   8.688  0.3880 -0.6039 -0.5695
  161SOPE  H17R18045   2.575   2.006   8.616 -0.8812  0.8032 -0.2161
  161SOPE  H17S18046   2.722   1.972   8.706  0.2917 -0.3641  0.9770
  161SOPE  C21818047   2.727   2.162   8.628  0.1989 -0.1224 -0.3478
  161SOPE  H18R18048   2.769   2.123   8.533 -1.1665 -2.1244 -0.1749
  161SOPE  H18S18049   2.820   2.195   8.679  0.9911 -2.2284 -0.3799
  161SOPE  H18T18050   2.667   2.254   8.613 -0.0868 -0.4013 -0.9265
  161SOPE   C3318051   3.286   2.755   9.943 -0.0623  0.0201  0.7451
  161SOPE   H3X18052   3.271   2.757  10.053  2.6578  1.5772  1.1350
  161SOPE   H3Y18053   3.358   2.679   9.908 -0.7310 -0.4511  0.3789
  161SOPE   C3418054   3.151   2.718   9.869  0.3793  0.2491 -0.2833
  161SOPE   H4X18055   3.081   2.797   9.904  1.8747  1.0177  1.0493
  161SOPE   H4Y18056   3.114   2.629   9.924 -0.6968  1.6495  1.2893
  161SOPE   C3518057   3.155   2.712   9.718  0.7097  0.5678  1.7127
  161SOPE   H5X18058   3.226   2.631   9.695 -0.3541  0.5273 -1.6834
  161SOPE   H5Y18059   3.197   2.804   9.672  0.7504 -0.4143 -0.2563
  161SOPE   C3618060   3.016   2.685   9.655  0.2692  0.2271  0.3565
  161SOPE   H6X18061   2.955   2.763   9.705  1.2969  0.7721  0.7732
  161SOPE   H6Y18062   2.973   2.588   9.687 -0.3240  1.1118  2.3389
  161SOPE   C3718063   3.011   2.705   9.502 -0.5523 -0.1032 -0.0261
  161SOPE   H7X18064   3.064   2.617   9.459  1.6286  1.5489 -0.8254
  161SOPE   H7Y18065   3.076   2.790   9.473  0.3146 -0.7808 -0.0988
  161SOPE   C3818066   2.870   2.731   9.446  0.3349  0.0835  0.0612
  161SOPE   H8X18067   2.811   2.820   9.477 -1.9181 -0.2822 -2.9574
  161SOPE   H8Y18068   2.799   2.652   9.479  0.3969 -0.4721 -1.0957
  161SOPE   C3918069   2.874   2.736   9.292  0.4227 -0.3238  0.1862
  161SOPE   H9X18070   2.953   2.672   9.249  2.3328  0.7604  1.9894
  161SOPE   H9Y18071   2.892   2.840   9.256  0.4670 -0.2150  0.5124
  161SOPE  C31018072   2.738   2.684   9.242  0.0058  0.4646  0.4610
  161SOPE  H10X18073   2.656   2.745   9.286 -0.0048  0.6080  0.2402
  161SOPE  H10Y18074   2.719   2.577   9.265  0.0185  0.8463  2.3188
  161SOPE  C31118075   2.724   2.688   9.085  0.1043 -0.3831 -0.0573
  161SOPE  H11X18076   2.801   2.624   9.035  0.4761 -0.2588  0.3515
  161SOPE  H11Y18077   2.746   2.795   9.065 -0.5408 -0.4153 -0.9610
  161SOPE  C31218078   2.586   2.654   9.030 -0.1104 -0.2720 -0.6519
  161SOPE  H12X18079   2.520   2.741   9.054  0.3681  0.4158 -1.7861
  161SOPE  H12Y18080   2.551   2.559   9.075  2.4699 -0.9664 -0.0749
  161SOPE  C31318081   2.588   2.623   8.881 -0.6362  0.2663 -0.0451
  161SOPE  H13X18082   2.491   2.583   8.846 -0.4687  0.3508 -0.6207
  161SOPE  H13Y18083   2.658   2.542   8.851 -1.6604 -0.4813 -0.4079
  161SOPE  C31418084   2.606   2.741   8.783  0.0097 -0.1919  0.2747
  161SOPE  H14X18085   2.715   2.762   8.774  0.0672 -0.5429  0.1290
  161SOPE  H14Y18086   2.562   2.836   8.820 -0.6964 -0.4589  0.1324
  161SOPE  C31518087   2.561   2.719   8.638  0.4685  0.1035  0.6114
  161SOPE  H15X18088   2.556   2.818   8.587  1.9800  0.2107  0.6514
  161SOPE  H15Y18089   2.454   2.690   8.644  0.7376 -0.7236  1.5839
  161SOPE  C31618090   2.654   2.620   8.575 -0.2179 -0.0894 -0.2416
  161SOPE  H16X18091   2.677   2.538   8.647 -1.3617 -0.7248 -0.5761
  161SOPE  H16Y18092   2.737   2.688   8.548 -1.3543  1.2809 -0.3244
  161SOPE  C31718093   2.600   2.553   8.442 -0.1721 -0.1234 -0.3161
  161SOPE  H17X18094   2.678   2.490   8.393 -0.1891 -0.7365  0.4223
  161SOPE  H17Y18095   2.577   2.633   8.369  2.5317  0.4931 -0.5676
  161SOPE  C31818096   2.479   2.461   8.460  0.0217 -0.0844  0.2064
  161SOPE  H18X18097   2.399   2.530   8.496 -0.1406 -1.3927  2.4683
  161SOPE  H18Y18098   2.502   2.391   8.543 -0.0253  0.1588  0.4240
  161SOPE  H18Z18099   2.454   2.416   8.362 -2.8780 -0.3875  1.0398
  162SOPE     N18100   0.745   2.951  11.201 -0.1149  0.6250 -0.2922
  162SOPE   HN118101   0.670   2.941  11.272 -0.8632  0.1245 -1.1410
  162SOPE   HN218102   0.767   3.052  11.190 -2.0518  1.2012  0.9394
  162SOPE   HN318103   0.704   2.921  11.110  0.0904  2.3696 -0.9834
  162SOPE   C1218104   0.867   2.860  11.230 -0.3242  0.2277  0.8085
  162SOPE  H12A18105   0.847   2.819  11.331 -0.5412 -0.3223  0.5412
  162SOPE  H12B18106   0.953   2.931  11.236 -0.8900  0.8749  1.4006
  162SOPE   C1118107   0.889   2.758  11.114 -0.0617  0.2450  0.3923
  162SOPE  H11A18108   0.906   2.814  11.020  1.3289 -2.7453 -1.2083
  162SOPE  H11B18109   0.794   2.702  11.105  0.3696 -0.4387  0.0133
  162SOPE     P18110   1.022   2.560  11.034  0.1203 -0.0682 -0.1173
  162SOPE   O1318111   0.900   2.470  11.039  0.3316 -0.4545  0.0503
  162SOPE   O1418112   1.149   2.485  11.052 -0.0511  0.6744 -0.4951
  162SOPE   O1218113   0.999   2.682  11.135  0.2144 -0.0537 -0.1485
  162SOPE   O1118114   1.028   2.633  10.887 -0.4676  0.1793 -0.4732
  162SOPE    C118115   0.909   2.635  10.804 -0.2632  0.5690  0.4821
  162SOPE    HA18116   0.877   2.741  10.813  0.4907  0.6746  2.2107
  162SOPE    HB18117   0.828   2.565  10.833  0.6332 -0.2919  0.9549
  162SOPE    C218118   0.951   2.599  10.660 -0.0577 -0.4224 -0.0716
  162SOPE    HS18119   0.968   2.489  10.654 -0.4925 -0.5597  1.0397
  162SOPE   O2118120   1.060   2.679  10.616  0.4952  0.0117  0.5914
  162SOPE   C2118121   1.138   2.617  10.531  0.0077  0.5020  0.9403
  162SOPE   O2218122   1.138   2.497  10.500  0.6937 -0.1967  0.4264
  162SOPE   C2218123   1.231   2.721  10.469 -0.5440 -0.2721  0.0284
  162SOPE   H2R18124   1.335   2.680  10.469 -0.0134  1.0373 -1.0344
  162SOPE   H2S18125   1.243   2.806  10.539 -2.1025  1.6364 -1.9713
  162SOPE    C318126   0.828   2.624  10.563  0.5440  0.1530 -0.6795
  162SOPE    HX18127   0.781   2.719  10.594 -0.3873 -1.0152  1.5416
  162SOPE    HY18128   0.749   2.550  10.588 -1.3749  2.6756  0.9860
  162SOPE   O3118129   0.856   2.627  10.424 -0.6100 -0.5453 -0.5545
  162SOPE   C3118130   0.835   2.522  10.347 -0.3196  0.4068  0.3530
  162SOPE   O3218131   0.792   2.417  10.385  0.4622 -0.4903 -0.1670
  162SOPE   C3218132   0.864   2.562  10.200  0.2241  0.2873 -0.8678
  162SOPE   H2X18133   0.950   2.632  10.206 -1.9569  2.9060  1.3525
  162SOPE   H2Y18134   0.780   2.622  10.160 -0.3369  2.3188  3.0838
  162SOPE   C2318135   1.188   2.768  10.333  0.6513 -0.0156  0.5924
  162SOPE   H3R18136   1.084   2.804  10.345  1.5353  3.0732 -0.6269
  162SOPE   H3S18137   1.184   2.688  10.256 -1.9221  2.4634 -1.9602
  162SOPE   C2418138   1.272   2.886  10.275  0.2348  0.2189 -0.0005
  162SOPE   H4R18139   1.251   2.979  10.332 -0.8447  0.1855 -0.3322
  162SOPE   H4S18140   1.379   2.857  10.280 -0.1468 -1.3892 -0.8614
  162SOPE   C2518141   1.233   2.921  10.125 -0.0818 -0.2753  0.7119
  162SOPE   H5R18142   1.239   2.826  10.068  0.1325  0.5545 -0.6661
  162SOPE   H5S18143   1.132   2.968  10.117  0.7809  1.3315 -1.1522
  162SOPE   C2618144   1.337   3.008  10.062  0.4352  0.5166 -0.4370
  162SOPE   H6R18145   1.323   3.105  10.115 -0.0809  1.4002 -2.1601
  162SOPE   H6S18146   1.439   2.971  10.084 -0.5989 -0.9474  2.0951
  162SOPE   C2718147   1.330   3.012   9.913 -0.4808  0.6712 -0.3764
  162SOPE   H7R18148   1.344   2.906   9.882  0.0921  0.4963  0.4706
  162SOPE   H7S18149   1.225   3.042   9.893 -0.9142 -1.1190 -0.9015
  162SOPE   C2818150   1.437   3.096   9.844 -0.4985 -0.0070  0.3346
  162SOPE   H8R18151   1.537   3.051   9.865 -1.5190 -2.6046 -0.2253
  162SOPE   H8S18152   1.417   3.097   9.735 -1.3923  2.1332  0.4928
  162SOPE   C2918153   1.435   3.242   9.888  0.3459  0.2244 -0.7117
  162SOPE   H9118154   1.405   3.258   9.993  0.2960 -1.4614 -0.4688
  162SOPE  C21018155   1.457   3.352   9.812 -0.2818 -0.8335  0.6026
  162SOPE  H10118156   1.445   3.450   9.861 -0.6493 -0.9211  0.6889
  162SOPE  C21118157   1.489   3.339   9.659 -0.1875 -0.0673 -0.2658
  162SOPE  H11R18158   1.388   3.325   9.615 -0.3668 -0.9638  0.4189
  162SOPE  H11S18159   1.549   3.253   9.625  0.2608  0.3424 -0.5134
  162SOPE  C21218160   1.543   3.470   9.600 -1.5488 -0.3472 -0.1290
  162SOPE  H12R18161   1.613   3.528   9.663 -0.2612 -1.4258 -0.5363
  162SOPE  H12S18162   1.447   3.526   9.595 -0.3860  1.8725  1.9448
  162SOPE  C21318163   1.601   3.443   9.454  0.3058 -0.1225 -0.2701
  162SOPE  H13R18164   1.525   3.381   9.402 -0.5586  0.2379  0.5489
  162SOPE  H13S18165   1.688   3.375   9.461  0.1085 -0.3068  0.4825
  162SOPE  C21418166   1.640   3.566   9.374 -0.1054 -0.5023  0.8568
  162SOPE  H14R18167   1.743   3.596   9.402  0.1955  0.5411 -1.3131
  162SOPE  H14S18168   1.593   3.660   9.410  1.2096 -0.4004  2.3439
  162SOPE  C21518169   1.617   3.549   9.222  0.4064 -0.3163 -0.1272
  162SOPE  H15R18170   1.512   3.550   9.188  0.1259 -2.0501  0.6224
  162SOPE  H15S18171   1.648   3.444   9.198 -1.4357 -1.6176  3.0032
  162SOPE  C21618172   1.688   3.654   9.135  0.0687  0.2680 -0.6630
  162SOPE  H16R18173   1.667   3.624   9.030 -1.2129  1.9695 -0.9197
  162SOPE  H16S18174   1.799   3.646   9.134  0.0266 -0.4823  0.7724
  162SOPE  C21718175   1.651   3.803   9.155  0.1175 -0.5417  0.1541
  162SOPE  H17R18176   1.713   3.868   9.089  0.7919 -0.9139  0.4193
  162SOPE  H17S18177   1.680   3.825   9.260 -0.5391 -1.1769  0.4765
  162SOPE  C21818178   1.504   3.836   9.131  0.4005  0.2946 -0.3623
  162SOPE  H18R18179   1.472   3.942   9.142 -1.3531 -0.4862  2.5765
  162SOPE  H18S18180   1.432   3.778   9.192  1.1253  1.2119  1.4358
  162SOPE  H18T18181   1.481   3.829   9.023 -2.1478  2.0939  0.0066
  162SOPE   C3318182   0.896   2.439  10.106 -0.2799 -0.0881 -0.1237
  162SOPE   H3X18183   0.802   2.379  10.101 -0.0577 -0.4319 -0.1734
  162SOPE   H3Y18184   0.984   2.385  10.146 -0.4092  1.2879  2.0596
  162SOPE   C3418185   0.941   2.490   9.963 -0.2903  0.2179 -0.8142
  162SOPE   H4X18186   0.870   2.571   9.938 -1.0409 -0.0564  0.3912
  162SOPE   H4Y18187   0.928   2.408   9.888 -0.1582 -2.0156  1.5353
  162SOPE   C3518188   1.084   2.536   9.949  0.5460  0.0972  0.0825
  162SOPE   H5X18189   1.152   2.448   9.948  0.6309  0.1657 -0.2804
  162SOPE   H5Y18190   1.124   2.591  10.037 -0.5355 -0.6327  1.0398
  162SOPE   C3618191   1.100   2.617   9.820  0.0305  0.4580 -0.6395
  162SOPE   H6X18192   1.058   2.717   9.846  2.0371  1.4205 -0.9542
  162SOPE   H6Y18193   1.045   2.578   9.732 -0.5593  1.5670 -0.7692
  162SOPE   C3718194   1.241   2.643   9.773 -0.0158 -0.3814  0.7146
  162SOPE   H7X18195   1.293   2.551   9.741 -2.0121 -1.2574 -0.0759
  162SOPE   H7Y18196   1.304   2.682   9.857  1.9127 -0.6227 -0.5905
  162SOPE   C3818197   1.229   2.742   9.657  0.3331  0.2535 -0.6371
  162SOPE   H8X18198   1.179   2.832   9.700  0.9127 -0.5789  1.8502
  162SOPE   H8Y18199   1.184   2.692   9.568  2.2081 -1.8260 -0.4592
  162SOPE   C3918200   1.371   2.779   9.612 -0.2415  0.2800  0.0062
  162SOPE   H9X18201   1.426   2.689   9.578 -0.2554 -0.3452  1.5861
  162SOPE   H9Y18202   1.423   2.830   9.696  0.0789 -0.7608  0.4452
  162SOPE  C31018203   1.375   2.883   9.497  0.3567 -0.1639 -0.4115
  162SOPE  H10X18204   1.298   2.958   9.523  1.6136  0.7436  0.7464
  162SOPE  H10Y18205   1.331   2.838   9.405  0.7042 -2.3127  0.4329
  162SOPE  C31118206   1.511   2.944   9.479 -0.1738 -0.7301  0.2821
  162SOPE  H11X18207   1.572   2.860   9.440  0.5005  0.5063 -1.4211
  162SOPE  H11Y18208   1.542   2.967   9.583 -0.5389 -0.1215  0.2590
  162SOPE  C31218209   1.502   3.072   9.392 -0.3609 -0.2809 -1.2537
  162SOPE  H12X18210   1.599   3.126   9.400 -0.1777 -0.9942  2.0181
  162SOPE  H12Y18211   1.418   3.139   9.420 -2.2135 -2.8150 -0.5409
  162SOPE  C31318212   1.497   3.043   9.246  0.5805 -0.3143  0.2601
  162SOPE  H13X18213   1.398   3.001   9.217 -0.5165  3.2514 -1.5990
  162SOPE  H13Y18214   1.567   2.962   9.218  1.7805  0.7892  0.0229
  162SOPE  C31418215   1.545   3.158   9.151 -0.1716  0.0134  1.2193
  162SOPE  H14X18216   1.637   3.202   9.195  1.7198 -2.0759 -0.5544
  162SOPE  H14Y18217   1.463   3.233   9.153 -1.6626 -1.4970 -1.4791
  162SOPE  C31518218   1.576   3.103   9.009 -0.0943 -0.0254 -0.3401
  162SOPE  H15X18219   1.484   3.050   8.976  0.0323 -0.6189  0.2509
  162SOPE  H15Y18220   1.657   3.027   9.020 -2.8537 -2.9610  0.4890
  162SOPE  C31618221   1.603   3.208   8.901 -0.3376 -0.2204  0.1990
  162SOPE  H16X18222   1.521   3.282   8.907  0.3793  0.3895  3.8565
  162SOPE  H16Y18223   1.592   3.168   8.798 -1.6695 -0.5495  0.4687
  162SOPE  C31718224   1.736   3.288   8.918 -0.0601  0.2998 -0.6811
  162SOPE  H17X18225   1.817   3.213   8.913  0.2029  0.5825 -0.6627
  162SOPE  H17Y18226   1.736   3.353   9.008  2.7283 -1.0680  0.3492
  162SOPE  C31818227   1.770   3.383   8.810 -0.0614  0.0330  0.1527
  162SOPE  H18X18228   1.815   3.339   8.719  0.7323  1.1923 -0.0423
  162SOPE  H18Y18229   1.849   3.455   8.843  1.7834 -1.3982 -1.0305
  162SOPE  H18Z18230   1.682   3.445   8.784  0.6099 -0.2239 -2.8558
  163SOPE     N18231   2.328   0.758  10.744  0.2760 -0.2049  0.0594
  163SOPE   HN118232   2.416   0.815  10.739  0.7481 -0.8490  0.9527
  163SOPE   HN218233   2.243   0.818  10.740  0.9117  0.7645  0.7356
  163SOPE   HN318234   2.325   0.702  10.831  3.2045  1.3202  1.2275
  163SOPE   C1218235   2.335   0.665  10.629 -0.0066  0.0633 -0.2576
  163SOPE  H12A18236   2.398   0.575  10.645 -2.3944 -1.7446 -0.6950
  163SOPE  H12B18237   2.379   0.722  10.545 -0.9474 -1.9656 -2.1981
  163SOPE   C1118238   2.191   0.615  10.588 -1.1123  0.5741  0.2086
  163SOPE  H11A18239   2.214   0.552  10.499  0.3012  1.7407 -0.2559
  163SOPE  H11B18240   2.116   0.689  10.553 -0.5608 -0.0791 -2.4873
  163SOPE     P18241   2.009   0.450  10.670 -0.0248  0.0530 -0.2481
  163SOPE   O1318242   1.933   0.538  10.581 -0.0430  0.7159 -0.6702
  163SOPE   O1418243   1.951   0.421  10.801  0.7771  0.1772  0.3624
  163SOPE   O1218244   2.145   0.532  10.697  0.5184  0.1799  0.3674
  163SOPE   O1118245   2.043   0.318  10.603  0.5300  0.7034  0.1088
  163SOPE    C118246   2.170   0.254  10.573  0.3415 -0.5834 -0.3407
  163SOPE    HA18247   2.182   0.154  10.620  1.9062  0.8150  2.3643
  163SOPE    HB18248   2.251   0.321  10.609 -3.2763  3.2090  1.2352
  163SOPE    C218249   2.191   0.230  10.420 -0.8003  0.0082  0.6957
  163SOPE    HS18250   2.241   0.320  10.378 -2.2427  0.7553  0.5811
  163SOPE   O2118251   2.068   0.199  10.357 -0.1237 -0.8121  0.1995
  163SOPE   C2118252   2.057   0.261  10.232 -0.0507  0.3011  0.2249
  163SOPE   O2218253   2.143   0.324  10.180 -0.1214  0.3843  0.1887
  163SOPE   C2218254   1.908   0.245  10.180 -0.0571  0.7235  0.6816
  163SOPE   H2R18255   1.851   0.289  10.265 -0.8095 -1.3395  1.3038
  163SOPE   H2S18256   1.906   0.133  10.179  1.7122  0.6697  1.5543
  163SOPE    C318257   2.296   0.113  10.403 -0.4523 -1.0178  0.4843
  163SOPE    HX18258   2.262   0.019  10.450  1.6934 -0.8542  2.4751
  163SOPE    HY18259   2.384   0.152  10.459  0.1458 -2.2448  0.4179
  163SOPE   O3118260   2.318   0.076  10.270 -0.0251  0.3291 -0.4602
  163SOPE   C3118261   2.404   0.146  10.207 -0.4200  0.1749  0.9095
  163SOPE   O3218262   2.465   0.241  10.254  0.0883 -0.6975 -0.0394
  163SOPE   C3218263   2.414   0.109  10.065 -0.2381  0.0912  0.3889
  163SOPE   H2X18264   2.311   0.092  10.029  0.1666 -1.6690  0.0490
  163SOPE   H2Y18265   2.486   0.026  10.047  0.6531  1.2500 -1.5537
  163SOPE   C2318266   1.883   0.315  10.049  0.3628  0.2730  0.1693
  163SOPE   H3R18267   1.902   0.424  10.036 -2.2747  1.0167  2.1781
  163SOPE   H3S18268   1.773   0.307  10.039  0.3306 -0.0380  0.7329
  163SOPE   C2418269   1.944   0.235   9.929 -0.3167  0.2617 -0.0489
  163SOPE   H4R18270   2.053   0.257   9.932 -0.0349 -0.5525 -3.1816
  163SOPE   H4S18271   1.935   0.125   9.935  0.2197  0.2359  0.3796
  163SOPE   C2518272   1.898   0.275   9.792  1.0965 -0.5268 -0.1419
  163SOPE   H5R18273   1.787   0.282   9.788  1.0603 -1.8199 -2.4381
  163SOPE   H5S18274   1.941   0.377   9.779  2.1389 -0.7397  1.5651
  163SOPE   C2618275   1.943   0.177   9.683  0.0074 -0.1235 -0.1604
  163SOPE   H6R18276   2.054   0.173   9.679 -0.0020 -0.2597 -0.3029
  163SOPE   H6S18277   1.911   0.076   9.716  0.2048  0.1373  0.8481
  163SOPE   C2718278   1.891   0.200   9.543 -0.0070 -0.1579 -0.6922
  163SOPE   H7R18279   1.782   0.218   9.554 -0.1718 -0.5383 -1.6314
  163SOPE   H7S18280   1.947   0.288   9.506 -0.9670  1.2440  1.0656
  163SOPE   C2818281   1.938   0.084   9.452  0.4778 -0.3299 -0.5685
  163SOPE   H8R18282   2.049   0.071   9.459  0.4329 -0.1978  0.6002
  163SOPE   H8S18283   1.900  -0.008   9.503  1.2694  1.0161  2.5838
  163SOPE   C2918284   1.885   0.110   9.316 -0.7132  0.6228  0.8302
  163SOPE   H9118285   1.798   0.178   9.315  0.6806  2.4760  1.4189
  163SOPE  C21018286   1.952   0.077   9.200 -0.0478 -0.4234  0.1592
  163SOPE  H10118287   1.914   0.109   9.102 -1.6638  0.1620  0.9625
  163SOPE  C21118288   2.084   0.003   9.193 -0.1079  1.1281  0.3206
  163SOPE  H11R18289   2.094  -0.052   9.288  1.0670  2.0852  0.7735
  163SOPE  H11S18290   2.173   0.069   9.197  0.2905  0.6553 -0.4385
  163SOPE  C21218291   2.105  -0.081   9.063 -0.2491  0.0683  0.0856
  163SOPE  H12R18292   2.031  -0.163   9.051  1.6798 -1.8525  1.0279
  163SOPE  H12S18293   2.207  -0.122   9.072  0.1939  0.9119 -0.9936
  163SOPE  C21318294   2.106   0.000   8.935  0.0678  0.4435  0.2440
  163SOPE  H13R18295   2.180   0.083   8.923 -1.2169  1.6650  0.6669
  163SOPE  H13S18296   1.999   0.028   8.925  0.1460  0.4521 -0.6407
  163SOPE  C21418297   2.139  -0.087   8.817 -0.4847 -0.0419  0.2218
  163SOPE  H14R18298   2.071  -0.175   8.812 -0.6585  0.0988  0.1379
  163SOPE  H14S18299   2.233  -0.126   8.861  1.0067  1.0647 -1.9023
  163SOPE  C21518300   2.163  -0.006   8.692  0.3853 -0.0737  0.2944
  163SOPE  H15R18301   2.250   0.062   8.700 -0.7606  1.5727 -0.8667
  163SOPE  H15S18302   2.075   0.054   8.660  0.9458 -0.3225 -1.7570
  163SOPE  C21618303   2.199  -0.094   8.575  0.1418 -0.1896  0.1606
  163SOPE  H16R18304   2.128  -0.179   8.566 -0.3212  0.0214  1.7565
  163SOPE  H16S18305   2.306  -0.124   8.574  0.0842 -0.4325 -1.7125
  163SOPE  C21718306   2.169  -0.020   8.443 -0.4642  0.4502  0.0297
  163SOPE  H17R18307   2.060   0.002   8.442 -0.3755  1.0309  1.6366
  163SOPE  H17S18308   2.185  -0.088   8.357 -0.3406 -1.3328  1.4088
  163SOPE  C21818309   2.262   0.105   8.419  0.3395 -0.0585 -0.5323
  163SOPE  H18R18310   2.261   0.179   8.503  0.9379 -1.2036  0.4956
  163SOPE  H18S18311   2.230   0.148   8.322  3.0751 -0.4737 -1.6743
  163SOPE  H18T18312   2.362   0.056   8.411 -0.3060 -1.1568 -1.9075
  163SOPE   C3318313   2.461   0.227   9.974 -0.2340  0.1168 -0.5580
  163SOPE   H3X18314   2.554   0.275  10.011 -0.5109  0.7847 -0.7243
  163SOPE   H3Y18315   2.398   0.318   9.969  0.0931  0.4149  0.6295
  163SOPE   C3418316   2.493   0.175   9.835  0.0063 -0.6224  0.0168
  163SOPE   H4X18317   2.401   0.166   9.773 -0.1308 -1.7997  0.3795
  163SOPE   H4Y18318   2.538   0.074   9.838 -0.5864 -0.8939 -0.0499
  163SOPE   C3518319   2.592   0.255   9.751 -0.4690 -0.1925  0.2503
  163SOPE   H5X18320   2.680   0.295   9.806  0.2329 -0.8415 -0.4019
  163SOPE   H5Y18321   2.543   0.351   9.725  1.5809  0.3375 -1.7455
  163SOPE   C3618322   2.638   0.182   9.627 -0.3433 -0.2517  0.0388
  163SOPE   H6X18323   2.547   0.171   9.564 -0.4569 -0.6478  0.2745
  163SOPE   H6Y18324   2.677   0.080   9.645 -0.7309 -0.6943 -1.5219
  163SOPE   C3718325   2.729   0.260   9.530 -0.2798  0.6036 -0.9953
  163SOPE   H7X18326   2.698   0.366   9.516  0.8854  1.0710 -0.1214
  163SOPE   H7Y18327   2.707   0.216   9.430  1.7928  1.0686 -1.6705
  163SOPE   C3818328   2.881   0.263   9.557  0.3278 -0.2389 -0.9166
  163SOPE   H8X18329   2.905   0.300   9.659  2.3748 -1.6102 -0.8559
  163SOPE   H8Y18330   2.926   0.331   9.481  1.6124 -1.1046 -0.9508
  163SOPE   C3918331   2.959   0.133   9.531  0.1715 -0.4394 -0.4319
  163SOPE   H9X18332   2.924   0.063   9.609  0.3348  0.0917  0.1154
  163SOPE   H9Y18333   3.068   0.150   9.545  0.4346 -2.4011 -0.0538
  163SOPE  C31018334   2.950   0.073   9.380  0.2093  0.1597 -1.0758
  163SOPE  H10X18335   2.851   0.028   9.358  0.6607 -1.4673  0.1577
  163SOPE  H10Y18336   3.026  -0.006   9.395 -2.1717 -2.0929 -0.5881
  163SOPE  C31118337   2.989   0.185   9.281  0.4526 -0.2671  0.3389
  163SOPE  H11X18338   3.082   0.238   9.310 -1.5037  2.8347  1.3168
  163SOPE  H11Y18339   2.896   0.247   9.280  0.9222  0.4312  0.1735
  163SOPE  C31218340   3.023   0.142   9.140 -0.1585  0.4674  0.8560
  163SOPE  H12X18341   2.949   0.079   9.087  1.9950 -1.0474 -0.4456
  163SOPE  H12Y18342   3.113   0.077   9.151  0.8996  1.4209 -1.9355
  163SOPE  C31318343   3.058   0.267   9.064  0.0436 -0.5523 -0.4906
  163SOPE  H13X18344   3.160   0.296   9.099  0.3061 -2.4911  0.4465
  163SOPE  H13Y18345   2.979   0.344   9.078 -0.4506 -1.0824 -0.3415
  163SOPE  C31418346   3.067   0.249   8.912  0.0430 -0.0715 -0.0528
  163SOPE  H14X18347   2.966   0.218   8.878  0.8126 -1.7968 -0.7908
  163SOPE  H14Y18348   3.150   0.179   8.889 -0.4167 -0.0737 -1.7192
  163SOPE  C31518349   3.115   0.373   8.833  0.3522 -0.3982 -0.3888
  163SOPE  H15X18350   3.218   0.396   8.867 -0.5961  0.1869  2.1976
  163SOPE  H15Y18351   3.051   0.460   8.860 -1.3684 -1.4336 -1.0688
  163SOPE  C31618352   3.111   0.370   8.684 -0.9079 -0.4144  0.0868
  163SOPE  H16X18353   3.125   0.471   8.640 -3.0234  0.9681  2.4438
  163SOPE  H16Y18354   3.011   0.342   8.645 -1.6353  0.3626  1.3516
  163SOPE  C31718355   3.217   0.280   8.630  0.2282 -0.7076 -0.0537
  163SOPE  H17X18356   3.204   0.177   8.672  0.4128 -0.3009  1.0184
  163SOPE  H17Y18357   3.321   0.309   8.657  0.6520 -2.9045  0.8669
  163SOPE  C31818358   3.215   0.268   8.475  0.6117  1.3260  0.1440
  163SOPE  H18X18359   3.120   0.223   8.438 -0.2277  1.3699  2.1881
  163SOPE  H18Y18360   3.298   0.197   8.456 -0.0695  0.8262 -1.0073
  163SOPE  H18Z18361   3.240   0.360   8.419  1.2172  0.8881 -0.3071
  164SOPE     N18362   4.188   5.159  10.654 -0.2039 -0.7410  0.8040
  164SOPE   HN118363   4.197   5.064  10.695 -0.7025 -0.1928  2.2118
  164SOPE   HN218364   4.233   5.226  10.719 -2.2701  2.4921 -0.9941
  164SOPE   HN318365   4.088   5.185  10.645  0.0430  0.7430  2.0840
  164SOPE   C1218366   4.234   5.159  10.513  0.3873  0.1112  0.0653
  164SOPE  H12A18367   4.253   5.263  10.478  3.8316 -1.4619 -3.0500
  164SOPE  H12B18368   4.159   5.104  10.454  0.6696  1.0380 -1.1814
  164SOPE   C1118369   4.365   5.076  10.495 -0.9355  0.0890 -0.7734
  164SOPE  H11A18370   4.394   5.085  10.388  0.6503  0.6277 -0.3129
  164SOPE  H11B18371   4.342   4.968  10.510  1.6727 -0.2533  0.9792
  164SOPE     P18372   4.554   5.025  10.666 -0.4040 -0.0616 -0.1436
  164SOPE   O1318373   4.467   4.922  10.725  0.1943  0.0251 -0.0404
  164SOPE   O1418374   4.631   5.102  10.767 -0.4312 -0.0071 -0.6715
  164SOPE   O1218375   4.477   5.119  10.574  0.4252 -0.4762  0.2589
  164SOPE   O1118376   4.653   4.949  10.570 -0.5529  0.4390  0.6653
  164SOPE    C118377   4.732   5.025  10.480 -0.5314 -0.0645  0.9715
  164SOPE    HA18378   4.811   5.080  10.535 -0.2257  0.4803  0.0199
  164SOPE    HB18379   4.671   5.099  10.423  0.7951 -1.2259 -2.0693
  164SOPE    C218380   4.792   4.935  10.374 -0.2045  0.3603 -0.9670
  164SOPE    HS18381   4.887   4.894  10.415 -0.6667  0.9244  0.7324
  164SOPE   O2118382   4.830   5.017  10.259  0.1494 -0.4029  0.6677
  164SOPE   C2118383   4.945   5.081  10.266  0.5078  0.4194 -0.3482
  164SOPE   O2218384   5.025   5.065  10.351 -0.0371 -0.0937  0.0552
  164SOPE   C2218385   4.967   5.161  10.138 -0.4763 -0.5507  0.5300
  164SOPE   H2R18386   4.869   5.200  10.103 -0.3229 -1.4081 -0.8799
  164SOPE   H2S18387   5.002   5.100  10.052  0.0068 -1.4143  1.3294
  164SOPE    C318388   4.697   4.821  10.333  0.2861  0.2161 -0.1527
  164SOPE    HX18389   4.604   4.870  10.297  0.1575 -0.1223 -0.2890
  164SOPE    HY18390   4.664   4.762  10.421 -0.4535  0.1126 -0.4987
  164SOPE   O3118391   4.745   4.728  10.228 -0.4585 -0.7694 -0.5330
  164SOPE   C3118392   4.831   4.645  10.278 -0.3837 -0.4879 -0.7661
  164SOPE   O3218393   4.874   4.652  10.391  0.0368 -0.1638 -0.0458
  164SOPE   C3218394   4.890   4.553  10.180 -0.3256 -0.0599 -0.3598
  164SOPE   H2X18395   4.872   4.449  10.212 -0.5455  0.1260  0.1308
  164SOPE   H2Y18396   4.997   4.584  10.183  0.2925 -2.0683 -1.0701
  164SOPE   C2318397   5.079   5.267  10.145 -0.3547  0.3198  0.1229
  164SOPE   H3R18398   5.174   5.216  10.170 -2.1975 -2.3638  1.9522
  164SOPE   H3S18399   5.062   5.336  10.229 -0.5774 -0.5653  0.8142
  164SOPE   C2418400   5.084   5.352  10.018  0.0012 -0.6001 -0.5447
  164SOPE   H4R18401   5.097   5.271   9.943 -2.6116 -3.0593  1.5374
  164SOPE   H4S18402   4.985   5.402  10.011 -0.1640 -0.7426  0.6714
  164SOPE   C2518403   5.196   5.457  10.011 -0.2253 -0.1740  1.0919
  164SOPE   H5R18404   5.205   5.514  10.106  0.1935  0.7342  0.5120
  164SOPE   H5S18405   5.290   5.397  10.008  0.5830  1.1207 -0.6547
  164SOPE   C2618406   5.192   5.535   9.878  0.9656  0.0462 -0.1542
  164SOPE   H6R18407   5.176   5.468   9.791 -0.0159 -3.1796  2.4385
  164SOPE   H6S18408   5.110   5.609   9.891  1.6448  0.9835 -1.1169
  164SOPE   C2718409   5.326   5.611   9.852  0.1599  0.8310  0.1055
  164SOPE   H7R18410   5.357   5.672   9.940 -0.2463  1.4860 -0.2007
  164SOPE   H7S18411   5.407   5.535   9.844  0.5019  1.2326 -0.2608
  164SOPE   C2818412   5.314   5.697   9.724  0.5026 -0.3905 -0.3061
  164SOPE   H8R18413   5.282   5.630   9.641  1.2873  2.7064 -3.2502
  164SOPE   H8S18414   5.239   5.778   9.725  0.6796 -0.2265 -0.2407
  164SOPE   C2918415   5.446   5.754   9.689 -0.0327  0.2524 -0.2455
  164SOPE   H9118416   5.459   5.851   9.737  1.9653 -0.0242 -0.1800
  164SOPE  C21018417   5.545   5.695   9.617  0.0189  0.4797  0.2074
  164SOPE  H10118418   5.619   5.766   9.579 -0.8225  1.7111  0.8514
  164SOPE  C21118419   5.536   5.558   9.551 -0.5389 -0.8030 -0.1004
  164SOPE  H11R18420   5.434   5.512   9.558 -0.6026 -1.1439 -2.6719
  164SOPE  H11S18421   5.603   5.492   9.610  0.9482 -1.1750 -2.1218
  164SOPE  C21218422   5.589   5.581   9.408  0.2855 -0.1069 -0.3112
  164SOPE  H12R18423   5.612   5.476   9.379  2.6892 -0.1470  1.5913
  164SOPE  H12S18424   5.684   5.636   9.390 -1.0109  2.7739  1.3760
  164SOPE  C21318425   5.477   5.638   9.322  0.1413 -0.3521 -0.3216
  164SOPE  H13R18426   5.450   5.740   9.358  0.3797  0.4276 -2.2944
  164SOPE  H13S18427   5.379   5.586   9.335 -0.4336  1.3993  2.8892
  164SOPE  C21418428   5.525   5.652   9.180 -0.2289  0.3417 -0.0494
  164SOPE  H14R18429   5.524   5.556   9.122 -0.1009 -1.4079  2.7667
  164SOPE  H14S18430   5.631   5.684   9.188  0.3301 -1.9825  2.5190
  164SOPE  C21518431   5.464   5.771   9.105  0.2887 -0.3900  0.3090
  164SOPE  H15R18432   5.502   5.867   9.146  1.0704 -0.1625 -0.9190
  164SOPE  H15S18433   5.354   5.779   9.120  0.1869  0.3492 -0.7553
  164SOPE  C21618434   5.498   5.776   8.954  0.0147  0.1640  0.4216
  164SOPE  H16R18435   5.467   5.674   8.923  1.2869 -0.3436  0.7831
  164SOPE  H16S18436   5.607   5.797   8.947  1.0157 -3.6274  3.1362
  164SOPE  C21718437   5.413   5.872   8.875 -0.0393  0.2395  0.0052
  164SOPE  H17R18438   5.413   5.964   8.939  1.8246  0.9304 -0.9615
  164SOPE  H17S18439   5.310   5.835   8.894 -0.3353  1.0602  0.0216
  164SOPE  C21818440   5.447   5.911   8.732 -0.1822 -0.3279  0.0003
  164SOPE  H18R18441   5.535   5.979   8.738 -0.5006  0.3148 -2.1540
  164SOPE  H18S18442   5.359   5.963   8.689 -2.5816 -1.2091  3.6636
  164SOPE  H18T18443   5.465   5.819   8.672 -1.7258  0.0869 -1.1305
  164SOPE   C3318444   4.834   4.557  10.039 -0.7053  0.8454  0.6280
  164SOPE   H3X18445   4.821   4.661  10.001 -0.1198  0.2878 -1.1554
  164SOPE   H3Y18446   4.741   4.497  10.036 -0.2024  0.0243  1.3092
  164SOPE   C3418447   4.939   4.491   9.949  0.2588  0.4459 -0.0213
  164SOPE   H4X18448   4.981   4.402  10.000 -2.6425 -0.3232  1.0881
  164SOPE   H4Y18449   5.034   4.549   9.944  0.4171  0.1957  0.0812
  164SOPE   C3518450   4.884   4.458   9.813  0.2189  0.4559 -0.0052
  164SOPE   H5X18451   4.860   4.554   9.761 -0.8600  1.1500  1.7118
  164SOPE   H5Y18452   4.786   4.406   9.822 -0.1695  1.4742  1.9707
  164SOPE   C3618453   4.975   4.365   9.726 -0.1931  0.2269 -0.2768
  164SOPE   H6X18454   5.003   4.277   9.788 -1.0545 -0.3430 -0.6983
  164SOPE   H6Y18455   5.072   4.417   9.709  0.2924 -0.5780  0.0203
  164SOPE   C3718456   4.917   4.336   9.591  0.2238  0.3524  0.2538
  164SOPE   H7X18457   4.865   4.430   9.562 -2.1021 -0.9810 -0.0940
  164SOPE   H7Y18458   4.843   4.253   9.600 -1.0345  1.6284  1.8733
  164SOPE   C3818459   5.024   4.302   9.485  0.6618 -0.7018  0.4241
  164SOPE   H8X18460   5.100   4.221   9.496  1.8527  0.3769  0.1810
  164SOPE   H8Y18461   5.077   4.399   9.482  0.6849 -0.7182  0.3284
  164SOPE   C3918462   4.966   4.291   9.343 -0.8819  0.7406 -0.0587
  164SOPE   H9X18463   4.902   4.379   9.322  1.1710  1.6061 -3.0174
  164SOPE   H9Y18464   4.904   4.199   9.349 -0.7513  0.6477 -0.1375
  164SOPE  C31018465   5.068   4.272   9.234 -0.5129  0.1419 -0.5011
  164SOPE  H10X18466   5.134   4.182   9.239  0.1026  0.4364 -2.7282
  164SOPE  H10Y18467   5.127   4.366   9.227 -1.9826  1.0987 -0.3346
  164SOPE  C31118468   5.001   4.259   9.097 -0.0698 -0.6103 -0.6627
  164SOPE  H11X18469   4.936   4.349   9.085 -0.5953 -0.4810  2.6144
  164SOPE  H11Y18470   4.932   4.172   9.103 -1.5694  0.5871 -0.1883
  164SOPE  C31218471   5.098   4.251   8.977 -0.1695 -0.1998 -0.1566
  164SOPE  H12X18472   5.040   4.219   8.888 -0.1849  0.5572 -0.4265
  164SOPE  H12Y18473   5.175   4.172   8.992 -0.1739 -0.1045  0.4011
  164SOPE  C31318474   5.162   4.389   8.954  0.3973  0.1928  0.2498
  164SOPE  H13X18475   5.208   4.414   9.052  1.1298  2.7915 -0.7259
  164SOPE  H13Y18476   5.080   4.457   8.923 -1.1557  0.0391  3.6828
  164SOPE  C31418477   5.287   4.388   8.867  1.0884 -0.4072 -0.1479
  164SOPE  H14X18478   5.349   4.304   8.905  1.4137  1.1327  2.9062
  164SOPE  H14Y18479   5.347   4.482   8.867  0.9918 -0.3421  0.6674
  164SOPE  C31518480   5.253   4.372   8.713 -0.4228 -1.0924  0.1917
  164SOPE  H15X18481   5.179   4.451   8.689  0.8087 -0.1782 -0.5758
  164SOPE  H15Y18482   5.217   4.268   8.696 -0.5297 -0.9315 -0.6122
  164SOPE  C31618483   5.382   4.392   8.632  0.6471  0.3059  0.0794
  164SOPE  H16X18484   5.363   4.361   8.527 -2.6336 -1.1898  1.0443
  164SOPE  H16Y18485   5.467   4.334   8.671  1.5393  0.7266 -1.2008
  164SOPE  C31718486   5.449   4.534   8.642 -0.0490  0.5603  0.4592
  164SOPE  H17X18487   5.490   4.558   8.742 -0.7669  2.1196  0.4044
  164SOPE  H17Y18488   5.366   4.606   8.623 -0.3658  1.1692  3.8845
  164SOPE  C31818489   5.555   4.539   8.532 -0.7726 -0.5548 -0.1366
  164SOPE  H18X18490   5.604   4.639   8.529  0.2845 -0.9887  1.9932
  164SOPE  H18Y18491   5.535   4.506   8.427 -1.0739 -2.4405  0.5083
  164SOPE  H18Z18492   5.637   4.476   8.573  1.1422  1.1651 -1.2161
  165SOPE     N18493   3.197   5.994  11.128 -0.5597 -0.1610 -0.5145
  165SOPE   HN118494   3.119   6.041  11.077  1.4753  2.2848 -1.4923
  165SOPE   HN218495   3.199   6.027  11.227  1.0325 -0.2293 -0.5197
  165SOPE   HN318496   3.287   6.029  11.088 -0.9205  0.1372 -1.0806
  165SOPE   C1218497   3.183   5.843  11.120 -0.5309 -0.6168 -0.6517
  165SOPE  H12A18498   3.148   5.830  11.015  2.0357 -2.4225 -1.3391
  165SOPE  H12B18499   3.095   5.834  11.187 -0.8978 -0.5248 -1.1176
  165SOPE   C1118500   3.304   5.751  11.153 -0.2341 -0.7046 -0.0765
  165SOPE  H11A18501   3.273   5.644  11.141  1.2418 -0.9879 -1.5448
  165SOPE  H11B18502   3.323   5.759  11.262 -2.1914  1.8699  0.1226
  165SOPE     P18503   3.456   5.739  10.939  0.1166  0.3800 -0.4120
  165SOPE   O1318504   3.405   5.599  10.925 -0.1053  0.0032 -0.5128
  165SOPE   O1418505   3.605   5.754  10.917 -0.8588  0.6533  0.5996
  165SOPE   O1218506   3.420   5.793  11.083  0.3924  0.2890 -0.1597
  165SOPE   O1118507   3.370   5.839  10.854 -0.2737  0.1078  0.6524
  165SOPE    C118508   3.396   5.982  10.838 -0.1483  0.1892  0.5267
  165SOPE    HA18509   3.481   6.011  10.904  1.3258  0.6426 -1.5095
  165SOPE    HB18510   3.307   6.044  10.859 -0.1810  1.5217 -3.0616
  165SOPE    C218511   3.429   6.012  10.688  0.4426 -0.5021 -0.0010
  165SOPE    HS18512   3.468   6.115  10.676 -1.8050  0.3767  0.0510
  165SOPE   O2118513   3.304   5.998  10.616 -0.6333  0.2166  0.1701
  165SOPE   C2118514   3.297   6.058  10.495 -0.4979 -0.0995  0.0082
  165SOPE   O2218515   3.373   6.137  10.443  0.2610 -0.1751  0.0165
  165SOPE   C2218516   3.192   5.979  10.413  0.0179 -0.2771  0.4943
  165SOPE   H2R18517   3.099   6.034  10.438 -0.9552 -1.4285 -0.5429
  165SOPE   H2S18518   3.179   5.880  10.462 -1.8262 -0.3491 -0.1216
  165SOPE    C318519   3.540   5.912  10.632  0.2063 -0.1926 -0.1732
  165SOPE    HX18520   3.494   5.811  10.641 -0.4207  0.0588 -0.4865
  165SOPE    HY18521   3.629   5.924  10.697 -1.4328  0.9397  1.9461
  165SOPE   O3118522   3.572   5.924  10.492 -0.3797  0.1220  0.3238
  165SOPE   C3118523   3.656   6.028  10.460 -0.8048  0.1449 -0.4763
  165SOPE   O3218524   3.693   6.120  10.534 -0.0785 -0.4841 -0.1504
  165SOPE   C3218525   3.686   6.023  10.313  0.4084 -0.7004  0.3958
  165SOPE   H2X18526   3.703   6.124  10.272 -0.5652 -1.1126 -1.0883
  165SOPE   H2Y18527   3.593   5.981  10.268 -0.8600  1.6327  0.7805
  165SOPE   C2318528   3.209   5.968  10.262  0.2920  0.6466  0.2100
  165SOPE   H3R18529   3.256   6.062  10.224  0.8166 -0.4764 -2.0076
  165SOPE   H3S18530   3.106   5.959  10.221 -0.3920 -1.2239  2.2567
  165SOPE   C2418531   3.295   5.845  10.228  0.1784  0.7349 -0.7165
  165SOPE   H4R18532   3.386   5.838  10.290 -0.5084  1.6153  0.4219
  165SOPE   H4S18533   3.227   5.757  10.234  1.4192 -0.1468  0.4225
  165SOPE   C2518534   3.361   5.852  10.086 -0.1244  0.3315  0.5077
  165SOPE   H5R18535   3.400   5.955  10.069  3.3530 -1.2745 -1.7921
  165SOPE   H5S18536   3.456   5.795  10.091 -0.2749 -0.2628 -2.7334
  165SOPE   C2618537   3.278   5.797   9.968 -0.0037  0.3138  0.3925
  165SOPE   H6R18538   3.223   5.702   9.987  0.1919 -0.0622 -0.8773
  165SOPE   H6S18539   3.203   5.876   9.946  1.6485  1.5647 -0.8190
  165SOPE   C2718540   3.370   5.797   9.850 -0.1772  0.1371  0.0219
  165SOPE   H7R18541   3.371   5.903   9.817 -1.7842  0.4940  1.0983
  165SOPE   H7S18542   3.472   5.765   9.881  0.4317  0.2856 -1.7449
  165SOPE   C2818543   3.318   5.709   9.739  0.1712  0.3107 -0.0587
  165SOPE   H8R18544   3.282   5.614   9.782  1.5166 -0.5989 -0.8982
  165SOPE   H8S18545   3.228   5.752   9.692  0.2567  1.6783  0.9700
  165SOPE   C2918546   3.430   5.690   9.641  0.1005 -0.0674 -0.1313
  165SOPE   H9118547   3.513   5.625   9.671 -0.2951 -0.2256  0.6571
  165SOPE  C21018548   3.429   5.734   9.511  0.1098  0.2010 -0.1603
  165SOPE  H10118549   3.523   5.725   9.455  1.2022  0.1832  1.6097
  165SOPE  C21118550   3.319   5.812   9.444  0.0267  0.1638 -0.1403
  165SOPE  H11R18551   3.337   5.920   9.462 -0.1024  0.0513  0.6682
  165SOPE  H11S18552   3.217   5.783   9.476 -1.7819  2.2441 -3.7107
  165SOPE  C21218553   3.310   5.796   9.292  0.2041  0.1022 -0.3969
  165SOPE  H12R18554   3.216   5.846   9.262 -0.7657 -1.6224 -0.3185
  165SOPE  H12S18555   3.293   5.687   9.280  2.0717  0.0111 -2.5815
  165SOPE  C21318556   3.416   5.831   9.193  0.2949  0.4785 -0.1298
  165SOPE  H13R18557   3.479   5.741   9.181 -0.3989  0.0013 -0.1978
  165SOPE  H13S18558   3.472   5.924   9.219  0.4843  0.5828 -0.8909
  165SOPE  C21418559   3.358   5.881   9.056 -0.3529 -0.2245 -0.3475
  165SOPE  H14R18560   3.444   5.901   8.989  0.0937 -0.6046  0.1035
  165SOPE  H14S18561   3.305   5.978   9.072 -1.0180 -0.6098 -0.1745
  165SOPE  C21518562   3.270   5.784   8.982  0.2417  0.2979 -0.0329
  165SOPE  H15R18563   3.179   5.752   9.038 -0.2726 -0.1566 -1.1190
  165SOPE  H15S18564   3.330   5.693   8.959  3.2908  2.5116 -1.1307
  165SOPE  C21618565   3.225   5.842   8.851  0.5473 -0.3489 -0.4317
  165SOPE  H16R18566   3.307   5.902   8.807 -0.0492  0.9852  0.2427
  165SOPE  H16S18567   3.139   5.913   8.852  1.0882  0.3280  2.1248
  165SOPE  C21718568   3.174   5.733   8.754  0.1684  0.1178 -0.8158
  165SOPE  H17R18569   3.101   5.674   8.813  0.3417  0.7301  0.0206
  165SOPE  H17S18570   3.253   5.660   8.725  0.0886 -0.3527  0.1475
  165SOPE  C21818571   3.096   5.786   8.636 -0.2629 -0.4147  1.1061
  165SOPE  H18R18572   3.092   5.707   8.558 -0.9327  0.9635 -0.2610
  165SOPE  H18S18573   3.133   5.880   8.591 -2.3932 -0.1641 -0.1832
  165SOPE  H18T18574   2.991   5.809   8.667 -0.0412  1.9653  0.1759
  165SOPE   C3318575   3.799   5.917  10.276  0.1247 -0.9923  0.0053
  165SOPE   H3X18576   3.797   5.831  10.347  0.0892 -0.3911  0.7278
  165SOPE   H3Y18577   3.900   5.962  10.284 -0.7482  0.9464  0.1632
  165SOPE   C3418578   3.806   5.888  10.126  1.0486 -0.2187 -0.9044
  165SOPE   H4X18579   3.713   5.837  10.094  1.1236  0.1125 -1.6731
  165SOPE   H4Y18580   3.896   5.823  10.116  1.9490  0.6072  1.5886
  165SOPE   C3518581   3.824   6.024  10.047 -0.5550 -0.0065 -0.8092
  165SOPE   H5X18582   3.927   6.059  10.069  0.0197 -1.0321 -1.7840
  165SOPE   H5Y18583   3.751   6.106  10.065 -1.7932 -1.0324 -1.1554
  165SOPE   C3618584   3.824   5.988   9.895 -0.3082 -0.7221 -0.1687
  165SOPE   H6X18585   3.843   6.078   9.834  1.0163  0.8793  2.5197
  165SOPE   H6Y18586   3.727   5.939   9.869 -0.6273 -0.6392  0.8481
  165SOPE   C3718587   3.928   5.883   9.855  0.0548 -0.4103 -0.4256
  165SOPE   H7X18588   3.894   5.783   9.889 -0.2234 -1.2289 -3.0612
  165SOPE   H7Y18589   4.024   5.912   9.903 -0.2218  0.8822 -0.6340
  165SOPE   C3818590   3.952   5.900   9.703 -0.1361 -0.6915  0.1198
  165SOPE   H8X18591   4.019   5.815   9.678  1.8916  1.0017 -0.2936
  165SOPE   H8Y18592   4.009   5.992   9.677 -1.9140  1.0247  2.0291
  165SOPE   C3918593   3.821   5.908   9.622 -0.3806  0.2934 -0.3850
  165SOPE   H9X18594   3.762   6.002   9.630  1.6724  1.6024 -0.2272
  165SOPE   H9Y18595   3.757   5.824   9.657 -0.2448  0.4445  0.2364
  165SOPE  C31018596   3.843   5.887   9.470  0.9614  0.7494 -0.1658
  165SOPE  H10X18597   3.749   5.845   9.427  0.6426  2.9950 -1.7344
  165SOPE  H10Y18598   3.919   5.806   9.461 -0.1274 -0.4137  0.9909
  165SOPE  C31118599   3.881   6.005   9.383 -0.4191  0.7125  0.5427
  165SOPE  H11X18600   3.991   6.023   9.376 -0.5859  2.2941  1.6358
  165SOPE  H11Y18601   3.831   6.094   9.426 -1.0290  0.0345  1.2377
  165SOPE  C31218602   3.818   6.016   9.246 -0.6720 -0.0897  0.0630
  165SOPE  H12X18603   3.709   5.993   9.248 -0.6266 -0.3606 -0.5804
  165SOPE  H12Y18604   3.869   5.938   9.186 -2.0552  0.6953 -2.1924
  165SOPE  C31318605   3.837   6.148   9.175 -0.1086  0.3980  0.4240
  165SOPE  H13X18606   3.946   6.168   9.189  0.0099  0.4392 -0.5375
  165SOPE  H13Y18607   3.782   6.233   9.219  1.1226  1.0559  0.7178
  165SOPE  C31418608   3.822   6.142   9.020 -0.3592  0.0035  0.2862
  165SOPE  H14X18609   3.728   6.087   8.999 -1.6212  1.7113  1.3605
  165SOPE  H14Y18610   3.898   6.075   8.975 -0.6311  0.1089 -0.3453
  165SOPE  C31518611   3.836   6.281   8.946  0.0538  0.0579  0.7775
  165SOPE  H15X18612   3.939   6.311   8.977  0.2151 -0.6297  0.9126
  165SOPE  H15Y18613   3.763   6.357   8.981 -0.0948  0.3035 -0.0721
  165SOPE  C31618614   3.840   6.271   8.792 -0.5100 -0.6864 -0.0968
  165SOPE  H16X18615   3.743   6.225   8.762 -0.4674 -0.2765 -0.8638
  165SOPE  H16Y18616   3.918   6.204   8.753 -0.5399 -0.1276 -1.1270
  165SOPE  C31718617   3.854   6.416   8.735 -0.4979  1.0981  0.7233
  165SOPE  H17X18618   3.950   6.463   8.763 -0.6802  0.8121  1.8340
  165SOPE  H17Y18619   3.765   6.466   8.779  0.2508  2.6975  0.4592
  165SOPE  C31818620   3.822   6.413   8.579 -0.1795 -0.4857 -0.4262
  165SOPE  H18X18621   3.806   6.519   8.549  1.8024 -0.1888 -0.5196
  165SOPE  H18Y18622   3.729   6.355   8.563  0.5770 -1.6544 -0.6505
  165SOPE  H18Z18623   3.911   6.371   8.529  2.0686  1.8523  1.4299
  166SOPE     N18624   0.169   5.522  10.809 -0.4729 -0.4314  0.0232
  166SOPE   HN118625   0.172   5.419  10.794 -0.6790 -0.5443  0.7277
  166SOPE   HN218626   0.267   5.556  10.811 -0.8094  0.6574 -1.5258
  166SOPE   HN318627   0.124   5.538  10.902  0.5264  0.0928  0.4202
  166SOPE   C1218628   0.087   5.586  10.701 -0.5453  0.1426  0.2925
  166SOPE  H12A18629   0.090   5.516  10.615 -0.8292 -1.3006  1.4379
  166SOPE  H12B18630   0.130   5.685  10.674 -0.7781  0.5787  1.5109
  166SOPE   C1118631  -0.055   5.605  10.750  0.2894  0.7682  0.3759
  166SOPE  H11A18632  -0.109   5.507  10.756 -1.2293  1.6674  1.7140
  166SOPE  H11B18633  -0.113   5.661  10.674 -1.8525 -2.0987 -0.1897
  166SOPE     P18634  -0.025   5.827  10.897  0.2878 -0.2551 -0.0607
  166SOPE   O1318635   0.109   5.843  10.957  0.2397 -0.2096  0.0437
  166SOPE   O1418636  -0.134   5.883  10.977 -0.3098  0.1312 -0.4200
  166SOPE   O1218637  -0.063   5.675  10.874  0.2497 -0.3014 -0.2202
  166SOPE   O1118638  -0.017   5.891  10.749  0.1587 -0.0101 -0.0671
  166SOPE    C118639  -0.011   6.035  10.731  0.0869 -0.3054 -0.4466
  166SOPE    HA18640   0.054   6.083  10.807  0.6025 -1.0974 -0.3835
  166SOPE    HB18641  -0.116   6.066  10.750  0.2600 -0.1452  0.2372
  166SOPE    C218642   0.050   6.076  10.600  0.1827  0.3088  0.1342
  166SOPE    HS18643   0.126   6.155  10.621 -1.1384  1.3509  1.0291
  166SOPE   O2118644  -0.054   6.116  10.511 -0.0140  0.1078  0.3423
  166SOPE   C2118645  -0.022   6.211  10.421 -0.2971  0.0594 -0.4871
  166SOPE   O2218646   0.082   6.270  10.403 -0.0796 -0.4603 -0.3704
  166SOPE   C2218647  -0.153   6.253  10.357 -0.2530 -0.4550 -0.2650
  166SOPE   H2R18648  -0.218   6.284  10.442 -1.3218  1.6709 -1.8323
  166SOPE   H2S18649  -0.197   6.165  10.305 -1.5445  1.7925 -3.1292
  166SOPE    C318650   0.130   5.963  10.535 -0.0041  0.7228 -0.8063
  166SOPE    HX18651   0.057   5.880  10.523  2.5972 -1.6148 -0.9654
  166SOPE    HY18652   0.204   5.932  10.612 -1.0504 -0.8731 -0.3984
  166SOPE   O3118653   0.204   5.997  10.410 -0.0783 -0.2761 -0.1068
  166SOPE   C3118654   0.224   5.894  10.322 -0.9261 -0.0087 -0.1116
  166SOPE   O3218655   0.185   5.782  10.338  0.0953  0.4260 -0.1078
  166SOPE   C3218656   0.302   5.934  10.198  0.3578  0.0422 -0.0484
  166SOPE   H2X18657   0.411   5.924  10.218  0.4816  0.8522 -0.2774
  166SOPE   H2Y18658   0.288   6.044  10.191  2.9926  0.3042 -1.9214
  166SOPE   C2318659  -0.161   6.386  10.277 -0.0743  0.2701  0.1385
  166SOPE   H3R18660  -0.119   6.471  10.336 -1.8717  1.1163  0.2126
  166SOPE   H3S18661  -0.268   6.405  10.256 -0.1411  1.0248  1.1186
  166SOPE   C2418662  -0.095   6.369  10.141  0.1760 -0.3145  0.3241
  166SOPE   H4R18663   0.005   6.321  10.152  0.2955  0.1609  1.4691
  166SOPE   H4S18664  -0.172   6.313  10.085 -0.4413  1.3547 -0.5018
  166SOPE   C2518665  -0.076   6.498  10.064 -0.1631  0.5045  0.5982
  166SOPE   H5R18666  -0.166   6.563  10.060  0.5691  1.6752  2.2598
  166SOPE   H5S18667   0.005   6.560  10.108  0.4073  0.3887 -0.2686
  166SOPE   C2618668  -0.030   6.460   9.927 -0.1998 -0.4768 -0.0776
  166SOPE   H6R18669   0.011   6.551   9.878  4.0499 -1.7523  0.8585
  166SOPE   H6S18670   0.055   6.388   9.927 -0.0139 -0.2742  1.2817
  166SOPE   C2718671  -0.138   6.403   9.838 -0.4453  0.1657  0.7676
  166SOPE   H7R18672  -0.179   6.310   9.884 -1.3337  0.3212  0.3086
  166SOPE   H7S18673  -0.231   6.464   9.838 -0.6380 -0.1261  0.0200
  166SOPE   C2818674  -0.092   6.391   9.693 -0.0173 -0.1833  0.1813
  166SOPE   H8R18675  -0.075   6.498   9.667 -1.4234  0.3423  1.3023
  166SOPE   H8S18676   0.007   6.342   9.700  1.1803  2.3008  1.0679
  166SOPE   C2918677  -0.199   6.340   9.603  0.1204 -0.4790  0.3562
  166SOPE   H9118678  -0.271   6.267   9.642  1.1006 -0.9925  1.2170
  166SOPE  C21018679  -0.223   6.391   9.475 -0.0766  0.3608 -0.0928
  166SOPE  H10118680  -0.307   6.347   9.419 -0.5409  2.4803 -1.0924
  166SOPE  C21118681  -0.152   6.495   9.392  0.0985 -0.3001 -0.1917
  166SOPE  H11R18682  -0.041   6.494   9.396  0.0311 -0.0773  3.6078
  166SOPE  H11S18683  -0.183   6.595   9.428  0.9265 -0.3873  0.7971
  166SOPE  C21218684  -0.187   6.476   9.238  0.4393 -1.0123  0.0048
  166SOPE  H12R18685  -0.147   6.562   9.181 -0.7676 -0.6706 -0.3437
  166SOPE  H12S18686  -0.297   6.473   9.228  0.2565  0.4282  1.3273
  166SOPE  C21318687  -0.136   6.342   9.184  0.1936 -0.1593 -0.9410
  166SOPE  H13R18688  -0.173   6.267   9.257  2.6854 -3.3086 -2.7541
  166SOPE  H13S18689  -0.026   6.329   9.190 -0.0290 -1.8053  0.0171
  166SOPE  C21418690  -0.201   6.302   9.052 -0.7364  0.8426  0.1524
  166SOPE  H14R18691  -0.199   6.377   8.970 -3.2646  1.7389  0.8670
  166SOPE  H14S18692  -0.310   6.297   9.072 -0.8750  2.8954  0.0147
  166SOPE  C21518693  -0.148   6.170   8.995 -0.2406 -0.3428  0.2645
  166SOPE  H15R18694  -0.194   6.104   9.072  1.3546 -1.4772  0.2586
  166SOPE  H15S18695  -0.039   6.152   8.991  0.0880  1.3688  0.9311
  166SOPE  C21618696  -0.203   6.131   8.858  0.1729 -0.7365 -0.4245
  166SOPE  H16R18697  -0.312   6.155   8.853  0.3422  0.2692  0.6147
  166SOPE  H16S18698  -0.193   6.023   8.834  1.2471 -0.5100 -1.0179
  166SOPE  C21718699  -0.125   6.203   8.738  0.3470 -0.0302  0.0411
  166SOPE  H17R18700  -0.024   6.160   8.721  0.5209 -0.1468  1.3449
  166SOPE  H17S18701  -0.117   6.304   8.782 -3.2152  0.3329  0.0271
  166SOPE  C21818702  -0.212   6.208   8.606  0.4303  0.5251 -0.4251
  166SOPE  H18R18703  -0.312   6.257   8.610  0.1587  0.2207 -3.0791
  166SOPE  H18S18704  -0.243   6.104   8.584  0.2636  0.4328  0.2286
  166SOPE  H18T18705  -0.165   6.251   8.515  0.6632 -2.6517 -1.8571
  166SOPE   C3318706   0.245   5.879  10.072  0.0652  0.5095  0.4208
  166SOPE   H3X18707   0.263   5.943   9.983  1.8700  0.9821  1.0992
  166SOPE   H3Y18708   0.136   5.859  10.084 -0.0033  0.2219 -0.6227
  166SOPE   C3418709   0.310   5.741  10.043  0.7409  0.5266 -0.4631
  166SOPE   H4X18710   0.271   5.672  10.122 -1.8520  1.6989 -0.6886
  166SOPE   H4Y18711   0.420   5.755  10.054  0.3374  2.7519  1.2116
  166SOPE   C3518712   0.292   5.676   9.904 -0.0450 -0.0458 -0.6807
  166SOPE   H5X18713   0.183   5.657   9.890 -0.3016 -0.0418  1.2526
  166SOPE   H5Y18714   0.348   5.581   9.916  0.0864  0.5293  4.0060
  166SOPE   C3618715   0.348   5.758   9.792  0.2821  0.6365  0.0853
  166SOPE   H6X18716   0.458   5.776   9.799  0.4887  0.9507 -3.0964
  166SOPE   H6Y18717   0.304   5.859   9.782 -0.6289  0.3044  0.7580
  166SOPE   C3718718   0.332   5.689   9.653  0.7887  0.1509  0.6713
  166SOPE   H7X18719   0.224   5.676   9.632  0.4807 -1.4374  2.9825
  166SOPE   H7Y18720   0.370   5.585   9.666  0.8329  0.1158  0.2659
  166SOPE   C3818721   0.388   5.774   9.544 -0.3567 -0.0192  0.0412
  166SOPE   H8X18722   0.498   5.759   9.551 -0.2478  1.3933  1.7116
  166SOPE   H8Y18723   0.368   5.882   9.563  1.4637  0.8351 -2.6944
  166SOPE   C3918724   0.353   5.726   9.400  0.4206  1.2679  0.0505
  166SOPE   H9X18725   0.420   5.792   9.341  0.4613  1.1586 -0.0253
  166SOPE   H9Y18726   0.246   5.750   9.381 -0.1758 -1.2136  0.1016
  166SOPE  C31018727   0.372   5.580   9.351 -0.1757  0.3409  0.0109
  166SOPE  H10X18728   0.288   5.522   9.394  2.2630 -2.5092  1.1449
  166SOPE  H10Y18729   0.466   5.531   9.386  0.2695  0.4614 -0.9819
  166SOPE  C31118730   0.371   5.584   9.200 -0.0259  0.1865 -0.3784
  166SOPE  H11X18731   0.466   5.639   9.181  0.9125 -1.0184  0.7162
  166SOPE  H11Y18732   0.291   5.631   9.139 -1.3829 -1.6182 -0.0057
  166SOPE  C31218733   0.402   5.438   9.136 -0.3516  0.0108 -0.1575
  166SOPE  H12X18734   0.317   5.370   9.160 -1.0010  0.6101 -0.7514
  166SOPE  H12Y18735   0.493   5.398   9.186  0.3143  0.0475 -1.3259
  166SOPE  C31318736   0.425   5.439   8.986 -0.3449  0.2759 -0.2842
  166SOPE  H13X18737   0.454   5.337   8.954  2.1994 -0.2162  3.2911
  166SOPE  H13Y18738   0.511   5.508   8.969  1.8513 -1.4045  3.2205
  166SOPE  C31418739   0.306   5.478   8.896  0.3471  0.0412 -0.0998
  166SOPE  H14X18740   0.295   5.587   8.911 -1.6511 -0.2534  0.6763
  166SOPE  H14Y18741   0.214   5.435   8.940  0.5382  0.1042  0.3583
  166SOPE  C31518742   0.314   5.444   8.746 -0.1272 -0.1206 -0.2053
  166SOPE  H15X18743   0.316   5.334   8.734 -0.2591  0.0375 -1.9188
  166SOPE  H15Y18744   0.395   5.505   8.702 -0.1758 -1.9358 -2.9770
  166SOPE  C31618745   0.187   5.504   8.680  0.3180  0.7211  0.4541
  166SOPE  H16X18746   0.169   5.608   8.715 -2.0579  1.3786 -2.5835
  166SOPE  H16Y18747   0.100   5.446   8.717 -0.6335 -0.3839 -3.3016
  166SOPE  C31718748   0.189   5.489   8.529  0.5326 -0.2047 -0.1651
  166SOPE  H17X18749   0.195   5.381   8.506 -0.2174 -0.7579  2.1263
  166SOPE  H17Y18750   0.274   5.542   8.482  2.4979 -0.3422  3.1106
  166SOPE  C31818751   0.052   5.537   8.474  0.2705 -0.7417 -0.6061
  166SOPE  H18X18752  -0.031   5.482   8.524  0.0095 -0.8885 -1.2061
  166SOPE  H18Y18753   0.058   5.531   8.364  1.3436 -0.2630 -0.5763
  166SOPE  H18Z18754   0.030   5.645   8.487  1.2853 -0.5297 -0.5624
  167SOPE     N18755   0.767   3.560   6.061  0.2358 -0.2766 -0.3985
  167SOPE   HN118756   0.838   3.598   5.996  0.9634 -1.1045 -0.0918
  167SOPE   HN218757   0.765   3.456   6.067 -2.4522 -0.1888  1.2543
  167SOPE   HN318758   0.671   3.587   6.029 -0.7766 -2.7618  0.3990
  167SOPE   C1218759   0.786   3.642   6.189 -0.0510  0.4122  0.4017
  167SOPE  H12A18760   0.715   3.594   6.259 -1.0886  1.8867  0.3747
  167SOPE  H12B18761   0.755   3.748   6.176 -1.1596  0.7304  4.8424
  167SOPE   C1118762   0.932   3.619   6.243  0.4732 -0.9892  0.4886
  167SOPE  H11A18763   0.945   3.511   6.267  0.8688 -0.4944  2.6828
  167SOPE  H11B18764   0.942   3.670   6.342  0.4210 -1.2559  0.6337
  167SOPE     P18765   1.077   3.825   6.154  0.3186  0.0299 -0.0681
  167SOPE   O1318766   0.961   3.906   6.185 -0.0311 -1.0242  0.3062
  167SOPE   O1418767   1.153   3.844   6.029  0.4072 -0.5476 -0.0722
  167SOPE   O1218768   1.031   3.671   6.148 -0.7686 -0.0425  0.4789
  167SOPE   O1118769   1.186   3.829   6.274 -0.1664  0.1803 -0.1517
  167SOPE    C118770   1.295   3.735   6.255 -0.0408  0.3412 -0.1603
  167SOPE    HA18771   1.340   3.740   6.153  0.1634 -0.6689 -0.1194
  167SOPE    HB18772   1.256   3.632   6.261  0.3976  0.1177 -0.9765
  167SOPE    C218773   1.404   3.743   6.368 -0.1189  0.4724 -0.6977
  167SOPE    HS18774   1.473   3.656   6.373  0.5442  1.0022 -0.4968
  167SOPE   O2118775   1.345   3.766   6.497 -0.2515  0.3213 -0.0827
  167SOPE   C2118776   1.246   3.687   6.540 -0.1305  0.1319  0.6123
  167SOPE   O2218777   1.226   3.575   6.505  0.0177 -0.6219  0.4933
  167SOPE   C2218778   1.169   3.753   6.651 -0.0196  0.6280 -0.7040
  167SOPE   H2R18779   1.132   3.848   6.607 -1.4113 -0.3623 -1.7341
  167SOPE   H2S18780   1.242   3.781   6.729 -0.2172 -1.4887  0.2748
  167SOPE    C318781   1.503   3.868   6.348 -0.5141  0.5991  0.2069
  167SOPE    HX18782   1.443   3.959   6.371 -0.6108  0.1080  1.9418
  167SOPE    HY18783   1.534   3.879   6.242  0.2449  2.2270  0.5850
  167SOPE   O3118784   1.613   3.847   6.441 -0.1208 -0.5739 -0.1589
  167SOPE   C3118785   1.673   3.955   6.476 -0.2925 -0.1122 -0.0661
  167SOPE   O3218786   1.665   4.066   6.424 -0.0006  0.7902 -0.0474
  167SOPE   C3218787   1.770   3.933   6.596  0.4603 -0.1545 -0.1313
  167SOPE   H2X18788   1.870   3.907   6.556  0.4407 -2.8766  1.5010
  167SOPE   H2Y18789   1.734   3.851   6.662  1.5531  1.5131  2.6718
  167SOPE   C2318790   1.058   3.669   6.706  0.4108 -0.0409  0.1610
  167SOPE   H3R18791   1.088   3.578   6.762  2.2324  1.4501  1.6836
  167SOPE   H3S18792   0.995   3.634   6.621  1.1892  0.8624 -0.8048
  167SOPE   C2418793   0.959   3.758   6.793 -0.3431  0.1241 -0.1426
  167SOPE   H4R18794   1.007   3.835   6.856 -0.0905  1.7924 -2.3149
  167SOPE   H4S18795   0.896   3.811   6.719 -1.4750  0.0149  0.7491
  167SOPE   C2518796   0.881   3.663   6.889  0.2090  0.2883  0.8610
  167SOPE   H5R18797   0.851   3.569   6.839  0.4244  0.0675  1.1451
  167SOPE   H5S18798   0.954   3.643   6.970  0.9241  3.7050  1.1549
  167SOPE   C2618799   0.766   3.735   6.965  0.1010 -0.5733 -0.9341
  167SOPE   H6R18800   0.731   3.673   7.050  2.0672 -0.2301  0.1606
  167SOPE   H6S18801   0.823   3.809   7.025  0.1614 -0.6900 -0.8487
  167SOPE   C2718802   0.662   3.807   6.875 -0.1667 -0.1674  0.0596
  167SOPE   H7R18803   0.730   3.880   6.826  2.3756  0.6457  4.4997
  167SOPE   H7S18804   0.618   3.737   6.801  0.3573 -1.2263  0.7258
  167SOPE   C2818805   0.552   3.877   6.961 -1.1288  0.0345  0.2752
  167SOPE   H8R18806   0.590   3.928   7.052  0.0113 -0.2756 -0.0286
  167SOPE   H8S18807   0.507   3.955   6.896 -1.5128  0.3613  0.9236
  167SOPE   C2918808   0.441   3.787   7.001 -0.2542  0.3497  0.0153
  167SOPE   H9118809   0.381   3.751   6.916  0.5703  0.4167 -0.6048
  167SOPE  C21018810   0.427   3.727   7.125 -1.3320 -0.0983 -0.5048
  167SOPE  H10118811   0.363   3.638   7.133 -0.7814 -0.3705  1.1477
  167SOPE  C21118812   0.519   3.741   7.242 -0.2876 -0.0292  0.1005
  167SOPE  H11R18813   0.626   3.759   7.216 -0.3266 -1.1009 -0.8401
  167SOPE  H11S18814   0.527   3.642   7.291 -1.0797 -1.2526 -2.1487
  167SOPE  C21218815   0.483   3.828   7.363  0.3695 -0.2690 -0.1074
  167SOPE  H12R18816   0.557   3.806   7.443  2.8931  1.9372 -1.7285
  167SOPE  H12S18817   0.381   3.818   7.404  0.7631  1.5810  1.3896
  167SOPE  C21318818   0.515   3.971   7.323  0.1815  0.2293  0.5435
  167SOPE  H13R18819   0.461   3.993   7.229  0.0213  1.6190  0.9423
  167SOPE  H13S18820   0.625   3.974   7.304 -0.1583  2.5943 -1.3226
  167SOPE  C21418821   0.487   4.072   7.433  0.2534 -0.3894 -0.3196
  167SOPE  H14R18822   0.560   4.047   7.513  0.1493 -1.1120 -0.4470
  167SOPE  H14S18823   0.387   4.042   7.469  0.6903  0.1621  1.3823
  167SOPE  C21518824   0.485   4.216   7.388  0.1290  0.2781  0.9238
  167SOPE  H15R18825   0.420   4.214   7.298 -0.8916  2.5650  1.5802
  167SOPE  H15S18826   0.592   4.230   7.359  1.2674 -2.6380  3.5236
  167SOPE  C21618827   0.438   4.312   7.499  0.2556 -0.7834  0.4806
  167SOPE  H16R18828   0.337   4.285   7.535  0.1994  0.3413  1.2057
  167SOPE  H16S18829   0.450   4.414   7.455  0.1930 -0.6136  0.8489
  167SOPE  C21718830   0.533   4.300   7.613  0.0548  0.1974 -0.1783
  167SOPE  H17R18831   0.632   4.319   7.567 -0.1141  1.8100  0.1055
  167SOPE  H17S18832   0.527   4.199   7.659  0.8305  0.3336  0.2174
  167SOPE  C21818833   0.512   4.393   7.734  0.5343 -0.1299  0.5364
  167SOPE  H18R18834   0.568   4.488   7.715 -1.7476  1.1489 -0.0488
  167SOPE  H18S18835   0.551   4.347   7.827 -0.6258 -0.2008  0.9984
  167SOPE  H18T18836   0.404   4.416   7.749 -0.2789 -1.1664 -3.1390
  167SOPE   C3318837   1.788   4.070   6.663  0.3546  0.1997  0.4121
  167SOPE   H3X18838   1.690   4.124   6.669  0.3030  0.7603 -3.8764
  167SOPE   H3Y18839   1.846   4.141   6.601  0.6620  1.6994  2.3482
  167SOPE   C3418840   1.854   4.060   6.800 -0.4053  0.3293 -0.5728
  167SOPE   H4X18841   1.957   4.019   6.794 -0.9203 -1.0036 -0.5541
  167SOPE   H4Y18842   1.800   3.984   6.861  2.4434 -0.2022  1.4380
  167SOPE   C3518843   1.859   4.189   6.882 -0.6548 -0.3409  0.7391
  167SOPE   H5X18844   1.868   4.276   6.814 -1.2112 -0.4153  0.5637
  167SOPE   H5Y18845   1.947   4.180   6.949  0.0380  0.3537 -0.0684
  167SOPE   C3618846   1.745   4.222   6.974 -0.0588 -0.2741 -0.0559
  167SOPE   H6X18847   1.720   4.126   7.025 -0.0706 -0.1748  0.1211
  167SOPE   H6Y18848   1.671   4.261   6.901  2.2044  1.6625 -1.3754
  167SOPE   C3718849   1.775   4.337   7.071 -0.2586 -0.5603  0.8506
  167SOPE   H7X18850   1.779   4.431   7.011 -1.0237 -0.5581  0.8064
  167SOPE   H7Y18851   1.875   4.321   7.118  0.0594 -0.9183  0.0642
  167SOPE   C3818852   1.669   4.346   7.184 -0.4838  0.5070  0.2547
  167SOPE   H8X18853   1.687   4.255   7.244 -2.2870  0.7914  1.2415
  167SOPE   H8Y18854   1.567   4.336   7.140 -1.1975 -0.6370  2.1119
  167SOPE   C3918855   1.686   4.486   7.262 -0.1714  0.4820  0.1931
  167SOPE   H9X18856   1.599   4.494   7.330 -0.8588  2.7469 -0.8985
  167SOPE   H9Y18857   1.696   4.568   7.187  3.0028 -2.0025 -2.2424
  167SOPE  C31018858   1.824   4.478   7.338  0.1901  0.6904  0.7737
  167SOPE  H10X18859   1.911   4.478   7.269 -0.2945 -2.9704  0.0438
  167SOPE  H10Y18860   1.836   4.384   7.395 -0.9673 -1.0891 -1.7981
  167SOPE  C31118861   1.843   4.599   7.434 -0.2702 -0.0529 -0.6393
  167SOPE  H11X18862   1.811   4.692   7.383 -2.3166 -0.4891 -0.1968
  167SOPE  H11Y18863   1.951   4.610   7.455 -0.0663 -2.3503 -0.3219
  167SOPE  C31218864   1.769   4.601   7.565 -0.1483  0.0512  0.2310
  167SOPE  H12X18865   1.660   4.603   7.546 -0.2838  0.4638  1.0236
  167SOPE  H12Y18866   1.795   4.694   7.620  0.8358  0.5435 -1.0502
  167SOPE  C31318867   1.802   4.488   7.664  0.2090  0.1018 -0.5140
  167SOPE  H13X18868   1.910   4.471   7.681 -0.0278  0.0813  1.0471
  167SOPE  H13Y18869   1.768   4.396   7.613 -1.0784  0.6408 -0.6500
  167SOPE  C31418870   1.724   4.497   7.798  0.1617 -0.5165  0.1401
  167SOPE  H14X18871   1.616   4.513   7.776  0.6530  0.5855 -1.6110
  167SOPE  H14Y18872   1.766   4.583   7.855 -0.0298 -0.2234 -0.1518
  167SOPE  C31518873   1.746   4.365   7.867 -0.4858 -0.4914 -0.0192
  167SOPE  H15X18874   1.706   4.283   7.805  0.6384 -1.3235  0.3382
  167SOPE  H15Y18875   1.699   4.362   7.968 -4.8477 -0.4793 -1.9442
  167SOPE  C31618876   1.894   4.322   7.899  0.1993 -0.7093  0.6384
  167SOPE  H16X18877   1.942   4.400   7.962  2.4610  0.6160 -2.6259
  167SOPE  H16Y18878   1.960   4.317   7.810 -0.3849 -0.5753  0.2018
  167SOPE  C31718879   1.903   4.178   7.965  0.1373 -0.5006 -0.1564
  167SOPE  H17X18880   1.869   4.095   7.900  0.6042  0.5436 -1.7510
  167SOPE  H17Y18881   1.832   4.170   8.051 -2.1854  2.5209 -1.6777
  167SOPE  C31818882   2.043   4.155   8.023 -0.1539 -0.4108 -0.2640
  167SOPE  H18X18883   2.059   4.047   8.044  1.7685  0.0037  0.4808
  167SOPE  H18Y18884   2.056   4.203   8.122 -0.5914 -0.0247 -0.3934
  167SOPE  H18Z18885   2.120   4.188   7.949 -0.7436 -0.2009 -0.7899
  168SOPE     N18886   1.027   1.426   6.283 -0.6667  0.2921 -0.9662
  168SOPE   HN118887   0.995   1.515   6.239 -0.7732  0.8668  0.2431
  168SOPE   HN218888   0.965   1.424   6.366  0.5051 -1.2207 -0.1118
  168SOPE   HN318889   1.127   1.435   6.311 -1.3343 -0.7917  1.9854
  168SOPE   C1218890   0.991   1.314   6.190  0.3575 -0.0616 -0.1898
  168SOPE  H12A18891   1.033   1.337   6.089  0.6859  1.4067  0.2784
  168SOPE  H12B18892   0.882   1.315   6.167  0.5698 -1.7538 -1.3722
  168SOPE   C1118893   1.017   1.168   6.248 -0.7345 -0.1280 -0.1574
  168SOPE  H11A18894   1.012   1.094   6.165  0.7657  0.5476 -0.8684
  168SOPE  H11B18895   0.942   1.141   6.325 -0.5932  0.2001  0.0968
  168SOPE     P18896   1.204   1.061   6.404 -0.3875  0.3296  0.2428
  168SOPE   O1318897   1.348   1.077   6.423 -0.3434 -0.0542 -1.0194
  168SOPE   O1418898   1.165   0.931   6.349 -0.1887  0.3016 -1.0944
  168SOPE   O1218899   1.155   1.166   6.298  0.0470 -0.0141 -0.2079
  168SOPE   O1118900   1.135   1.091   6.539  0.0022  0.4748 -0.6693
  168SOPE    C118901   1.127   1.229   6.588  0.2695 -0.1672  0.1476
  168SOPE    HA18902   1.053   1.225   6.670  1.2885  0.8819  1.1296
  168SOPE    HB18903   1.084   1.302   6.517  1.1460  2.7216  2.5019
  168SOPE    C218904   1.263   1.264   6.660 -0.0748 -0.7278  0.3313
  168SOPE    HS18905   1.342   1.272   6.583 -0.8783 -0.8035 -0.5154
  168SOPE   O2118906   1.295   1.159   6.756  0.0828 -0.4106 -0.0034
  168SOPE   C2118907   1.421   1.172   6.814 -0.8768  0.2151 -0.2408
  168SOPE   O2218908   1.507   1.253   6.782 -0.1165 -0.6321  0.3896
  168SOPE   C2218909   1.439   1.071   6.924 -0.0102 -0.2871 -0.0910
  168SOPE   H2R18910   1.541   1.045   6.889 -1.1632 -2.5701 -1.8759
  168SOPE   H2S18911   1.372   0.985   6.902  0.6951 -1.2535  1.4601
  168SOPE    C318912   1.246   1.408   6.721  0.4293 -0.4169 -1.2263
  168SOPE    HX18913   1.191   1.467   6.644 -1.2267 -0.1549  0.1228
  168SOPE    HY18914   1.350   1.446   6.734 -0.0130  0.4364 -0.1250
  168SOPE   O3118915   1.174   1.415   6.847 -0.5390 -0.1058 -0.3115
  168SOPE   C3118916   1.057   1.478   6.851  0.0498  0.1036  0.4388
  168SOPE   O3218917   1.007   1.536   6.755  0.1426  0.1035  0.5359
  168SOPE   C3218918   1.006   1.468   6.992 -0.5775 -0.6295 -0.3347
  168SOPE   H2X18919   0.983   1.370   7.038 -1.4127 -0.0805  0.4316
  168SOPE   H2Y18920   0.914   1.530   7.000 -0.5324 -0.3952 -1.4628
  168SOPE   C2318921   1.442   1.101   7.074  0.0315 -0.0811 -0.0671
  168SOPE   H3R18922   1.501   1.195   7.071 -2.1599  1.3061 -1.5028
  168SOPE   H3S18923   1.488   1.014   7.126 -0.7441 -1.3951 -1.5547
  168SOPE   C2418924   1.307   1.125   7.143 -0.0794  0.3984  0.6228
  168SOPE   H4R18925   1.254   1.208   7.093 -0.6802  0.3367  1.1514
  168SOPE   H4S18926   1.244   1.040   7.108  3.3405 -1.6741 -0.7967
  168SOPE   C2518927   1.309   1.134   7.293  0.5198  0.8721 -0.1760
  168SOPE   H5R18928   1.383   1.065   7.340 -0.3672 -1.1039 -1.6031
  168SOPE   H5S18929   1.329   1.240   7.318  0.6158 -0.1780  4.7202
  168SOPE   C2618930   1.168   1.113   7.360  0.2859  0.3353 -0.6300
  168SOPE   H6R18931   1.092   1.151   7.288  2.4734 -1.6024 -4.0968
  168SOPE   H6S18932   1.154   1.003   7.357  0.3424  0.2070  2.3673
  168SOPE   C2718933   1.139   1.169   7.501  0.3450 -0.1073  1.2784
  168SOPE   H7R18934   1.132   1.277   7.478  1.2216 -0.7470 -2.2540
  168SOPE   H7S18935   1.041   1.119   7.512  1.3241 -2.8282 -1.6063
  168SOPE   C2818936   1.240   1.135   7.618  0.6108  1.0490  0.5908
  168SOPE   H8R18937   1.259   1.026   7.625 -0.2305  0.8701  0.1214
  168SOPE   H8S18938   1.338   1.183   7.595  0.3256  1.1839 -0.3564
  168SOPE   C2918939   1.176   1.190   7.745  0.0898  0.1359 -0.0420
  168SOPE   H9118940   1.135   1.291   7.730 -0.5917  0.1558  1.7989
  168SOPE  C21018941   1.157   1.142   7.870 -0.2348 -0.8169  1.0602
  168SOPE  H10118942   1.090   1.188   7.944  1.6857  1.9466  1.1663
  168SOPE  C21118943   1.215   1.013   7.908 -0.3095 -0.0228  0.3463
  168SOPE  H11R18944   1.285   0.979   7.829  1.5695  0.4842  1.7709
  168SOPE  H11S18945   1.131   0.943   7.928 -0.6183  0.5564  1.0955
  168SOPE  C21218946   1.297   1.020   8.042  0.0160  0.0079  0.1006
  168SOPE  H12R18947   1.315   0.912   8.061  0.1939  0.0639  0.2507
  168SOPE  H12S18948   1.234   1.060   8.124 -2.0822 -0.4112 -1.2687
  168SOPE  C21318949   1.421   1.105   8.042 -0.3771  0.7303 -0.4281
  168SOPE  H13R18950   1.405   1.203   7.993  3.8639  2.1837  0.7980
  168SOPE  H13S18951   1.495   1.053   7.977  0.0398 -0.2481  0.8183
  168SOPE  C21418952   1.468   1.145   8.188 -0.7138 -0.0378 -0.9224
  168SOPE  H14R18953   1.446   1.060   8.256 -0.6647  1.3971  0.9518
  168SOPE  H14S18954   1.409   1.236   8.212  0.9301  0.8161 -0.0172
  168SOPE  C21518955   1.613   1.196   8.194  0.2720 -0.0293 -0.0762
  168SOPE  H15R18956   1.620   1.256   8.100 -0.6508  0.8511  0.4151
  168SOPE  H15S18957   1.679   1.107   8.191 -1.3125 -1.2351  0.4928
  168SOPE  C21618958   1.636   1.289   8.314  0.1000 -0.0039  0.1608
  168SOPE  H16R18959   1.660   1.228   8.404 -2.3426 -0.9829  0.1904
  168SOPE  H16S18960   1.536   1.333   8.332  0.6983  1.3966  0.0761
  168SOPE  C21718961   1.737   1.400   8.302 -0.0053 -0.4285  0.3568
  168SOPE  H17R18962   1.741   1.448   8.403  1.7927  1.8963 -0.7795
  168SOPE  H17S18963   1.697   1.483   8.240  1.5333 -0.0934 -0.1983
  168SOPE  C21818964   1.883   1.382   8.244  0.0381  0.5658 -0.4412
  168SOPE  H18R18965   1.887   1.352   8.137  0.0171 -1.4678  0.0944
  168SOPE  H18S18966   1.940   1.297   8.287 -0.6991  0.7480  0.9116
  168SOPE  H18T18967   1.930   1.481   8.257 -0.2779  0.8171 -1.1557
  168SOPE   C3318968   1.106   1.528   7.096  0.4559 -0.4942  0.2770
  168SOPE   H3X18969   1.148   1.624   7.063 -1.4505 -0.0473 -0.9481
  168SOPE   H3Y18970   1.184   1.450   7.111 -0.3143 -1.1470  1.0249
  168SOPE   C3418971   1.033   1.537   7.236  0.4180  1.1175  0.3627
  168SOPE   H4X18972   0.990   1.439   7.266  2.6211  0.2730  0.8753
  168SOPE   H4Y18973   0.952   1.613   7.234 -1.2497 -0.6621  0.1198
  168SOPE   C3518974   1.128   1.572   7.349  0.0181  0.8252  0.9319
  168SOPE   H5X18975   1.154   1.679   7.338 -0.7726  1.0914  1.5520
  168SOPE   H5Y18976   1.209   1.499   7.328 -0.4377  1.6213 -4.3583
  168SOPE   C3618977   1.070   1.556   7.488 -0.4488  0.2608  0.5556
  168SOPE   H6X18978   1.009   1.464   7.497 -0.3166  0.0673 -0.4472
  168SOPE   H6Y18979   0.992   1.634   7.503  0.0435  0.2653  3.2403
  168SOPE   C3718980   1.169   1.575   7.605  0.2617  0.6730 -0.5045
  168SOPE   H7X18981   1.226   1.667   7.580  1.6984  0.0792  0.5420
  168SOPE   H7Y18982   1.238   1.490   7.620 -1.5071 -0.9681 -1.4865
  168SOPE   C3818983   1.094   1.613   7.739 -0.1414 -1.1314  0.5775
  168SOPE   H8X18984   1.006   1.548   7.756 -1.0100 -0.2664 -0.4412
  168SOPE   H8Y18985   1.048   1.714   7.729  1.4716 -0.5046 -0.7747
  168SOPE   C3918986   1.183   1.630   7.870  0.9620  0.0558 -0.2446
  168SOPE   H9X18987   1.130   1.685   7.950  1.1633 -1.4966  0.9750
  168SOPE   H9Y18988   1.273   1.684   7.834  1.8379 -1.9158 -1.0580
  168SOPE  C31018989   1.222   1.491   7.920 -0.0487 -0.5420  0.5802
  168SOPE  H10X18990   1.289   1.453   7.840  1.8142 -0.2805  2.0068
  168SOPE  H10Y18991   1.130   1.428   7.924 -2.2656  2.6204  1.1708
  168SOPE  C31118992   1.293   1.502   8.052  0.1384 -0.5403  0.6813
  168SOPE  H11X18993   1.375   1.578   8.046 -0.9733  0.7073  1.0920
  168SOPE  H11Y18994   1.321   1.397   8.073 -2.0520 -1.9012 -2.7304
  168SOPE  C31218995   1.195   1.531   8.172 -0.2322 -0.0769  0.6281
  168SOPE  H12X18996   1.106   1.467   8.156  0.3420 -1.6217  3.4066
  168SOPE  H12Y18997   1.149   1.631   8.155 -0.1438 -0.1817 -0.2891
  168SOPE  C31318998   1.254   1.523   8.317  0.6990  1.1442  0.2434
  168SOPE  H13X18999   1.338   1.596   8.323  1.1760  0.5280  1.3546
  168SOPE  H13Y19000   1.317   1.432   8.331  0.0276  0.6007 -0.2554
  168SOPE  C31419001   1.144   1.555   8.418 -0.6384 -0.4832 -0.6722
  168SOPE  H14X19002   1.066   1.479   8.397 -2.5717  1.8448 -2.2149
  168SOPE  H14Y19003   1.085   1.646   8.395 -0.7227 -0.5559 -0.7467
  168SOPE  C31519004   1.192   1.552   8.563 -1.1301 -0.2300  0.8746
  168SOPE  H15X19005   1.239   1.648   8.591  1.7967 -1.4850  0.3666
  168SOPE  H15Y19006   1.255   1.463   8.582 -1.1785 -0.6800 -0.9865
  168SOPE  C31619007   1.079   1.527   8.662 -0.4653 -0.9751  0.7987
  168SOPE  H16X19008   1.058   1.418   8.652 -0.8290 -0.8264 -0.0804
  168SOPE  H16Y19009   0.981   1.576   8.640  0.0297 -0.1792  0.3690
  168SOPE  C31719010   1.114   1.564   8.808  0.2166 -0.5670 -0.7993
  168SOPE  H17X19011   1.020   1.547   8.865  0.7140 -0.1449  0.1521
  168SOPE  H17Y19012   1.144   1.671   8.803  0.2767 -0.3816  2.5131
  168SOPE  C31819013   1.222   1.481   8.871 -0.0882 -0.3326  0.1773
  168SOPE  H18X19014   1.179   1.382   8.900 -1.8612 -0.1499 -1.6796
  168SOPE  H18Y19015   1.238   1.525   8.971  1.2014 -1.7937  0.6298
  168SOPE  H18Z19016   1.309   1.479   8.802  0.0223  0.4458  0.2938
  169SOPE     N19017   3.185   3.347   6.489  0.2961  0.4217 -0.4522
  169SOPE   HN119018   3.273   3.304   6.453  1.7678  1.2530  2.0649
  169SOPE   HN219019   3.187   3.448   6.464 -1.9077  0.5794 -0.0843
  169SOPE   HN319020   3.187   3.360   6.592 -0.6761 -4.5220  0.3304
  169SOPE   C1219021   3.066   3.277   6.430 -0.1009 -0.1443 -0.5089
  169SOPE  H12A19022   3.034   3.345   6.347  0.0512  0.0118 -0.4406
  169SOPE  H12B19023   2.987   3.270   6.507 -1.0299 -0.0155 -1.4344
  169SOPE   C1119024   3.114   3.145   6.370 -0.6370  0.1403  0.0817
  169SOPE  H11A19025   3.164   3.157   6.271  0.6207  0.8010  0.7828
  169SOPE  H11B19026   3.021   3.087   6.353 -0.4405 -1.3136  3.5156
  169SOPE     P19027   3.265   2.940   6.385 -0.4250  0.0579 -0.7097
  169SOPE   O1319028   3.407   2.975   6.354 -0.5075  0.2418 -0.8191
  169SOPE   O1419029   3.179   2.892   6.274 -0.1155 -0.1733  0.4744
  169SOPE   O1219030   3.201   3.070   6.455 -0.1384  0.0416  0.2916
  169SOPE   O1119031   3.272   2.841   6.509 -0.3579  0.1744 -0.0904
  169SOPE    C119032   3.387   2.862   6.597 -0.6547 -0.5582  0.3539
  169SOPE    HA19033   3.411   2.967   6.622 -1.9217  0.4332 -2.3509
  169SOPE    HB19034   3.480   2.829   6.545 -0.3686 -0.0661  0.5480
  169SOPE    C219035   3.372   2.784   6.730  0.8483  0.5215  0.4565
  169SOPE    HS19036   3.474   2.776   6.774  2.1363  2.7779 -1.9840
  169SOPE   O2119037   3.316   2.655   6.702  0.4999 -0.3684 -0.5244
  169SOPE   C2119038   3.377   2.571   6.624  0.2767  0.1958  0.0508
  169SOPE   O2219039   3.490   2.591   6.584 -0.5372  0.5291  0.8767
  169SOPE   C2219040   3.292   2.451   6.596 -0.1093 -0.1397 -0.1976
  169SOPE   H2R19041   3.354   2.381   6.537  0.4246 -0.9344  1.2735
  169SOPE   H2S19042   3.205   2.492   6.540 -0.4368 -0.6942 -0.0913
  169SOPE    C319043   3.289   2.867   6.830 -0.7736  0.0897  0.1781
  169SOPE    HX19044   3.192   2.880   6.777 -0.2563  1.3797 -0.4794
  169SOPE    HY19045   3.328   2.971   6.841 -3.3398  1.1318 -0.3236
  169SOPE   O3119046   3.284   2.810   6.965 -0.2395  0.1300 -0.2483
  169SOPE   C3119047   3.186   2.722   6.982 -0.9650 -0.8643 -0.3040
  169SOPE   O3219048   3.100   2.698   6.898  0.1725 -0.6640  0.3711
  169SOPE   C3219049   3.196   2.654   7.114 -0.3389 -0.0923  0.4325
  169SOPE   H2X19050   3.103   2.595   7.121  0.5730 -2.1700 -3.5762
  169SOPE   H2Y19051   3.202   2.731   7.195 -2.6085  2.8136 -2.0392
  169SOPE   C2319052   3.249   2.382   6.726  0.3962 -0.0971  0.1511
  169SOPE   H3R19053   3.183   2.300   6.691 -0.0634 -0.6872  2.3214
  169SOPE   H3S19054   3.202   2.448   6.802 -0.8806 -0.8198  0.0006
  169SOPE   C2419055   3.374   2.310   6.798  0.0828  0.4108 -0.1448
  169SOPE   H4R19056   3.440   2.256   6.727  0.8700  2.5529 -1.1023
  169SOPE   H4S19057   3.430   2.395   6.842 -0.2836  0.4097  0.3244
  169SOPE   C2519058   3.324   2.221   6.916  0.0888  0.0749  0.6673
  169SOPE   H5R19059   3.242   2.279   6.962  0.7786  0.9791  0.7642
  169SOPE   H5S19060   3.274   2.127   6.883 -1.1174  0.3670  1.6505
  169SOPE   C2619061   3.441   2.180   7.006 -0.2446  0.3403  0.0630
  169SOPE   H6R19062   3.503   2.106   6.950 -0.5126 -1.2868  1.8588
  169SOPE   H6S19063   3.508   2.266   7.024 -0.1992  0.6839 -1.7153
  169SOPE   C2719064   3.393   2.116   7.139 -0.2555  0.0137 -0.3598
  169SOPE   H7R19065   3.337   2.184   7.207  2.2159  1.9485 -0.2019
  169SOPE   H7S19066   3.330   2.037   7.093 -2.5192  2.2044 -1.1639
  169SOPE   C2819067   3.508   2.058   7.224  0.0754  0.0174 -0.6535
  169SOPE   H8R19068   3.581   2.008   7.157 -0.0777  0.4088 -1.1247
  169SOPE   H8S19069   3.568   2.145   7.259 -2.1044  1.1799  0.3649
  169SOPE   C2919070   3.450   1.974   7.335 -0.4624  0.6955  0.4379
  169SOPE   H9119071   3.435   1.870   7.302  2.0848  0.4116  0.0477
  169SOPE  C21019072   3.446   2.008   7.464  0.0682  0.6647 -0.4206
  169SOPE  H10119073   3.414   1.929   7.534  0.8876  1.3132  0.7090
  169SOPE  C21119074   3.501   2.132   7.527 -0.0097  0.2725  0.4407
  169SOPE  H11R19075   3.418   2.191   7.571 -1.3129 -0.6331 -0.7279
  169SOPE  H11S19076   3.543   2.204   7.453 -0.9591  2.4318  1.9520
  169SOPE  C21219077   3.600   2.100   7.637 -0.2909  0.3116 -0.1120
  169SOPE  H12R19078   3.687   2.042   7.601  0.9044  1.2200  1.2046
  169SOPE  H12S19079   3.568   2.045   7.728 -0.5160  1.7906  0.7291
  169SOPE  C21319080   3.651   2.232   7.695  0.1941  0.2829  0.5925
  169SOPE  H13R19081   3.570   2.306   7.709  0.6459  0.6386  1.3560
  169SOPE  H13S19082   3.721   2.283   7.626 -0.9522  0.4154 -0.4841
  169SOPE  C21419083   3.722   2.209   7.829 -0.2632 -0.0947 -0.2178
  169SOPE  H14R19084   3.800   2.131   7.813  0.5814 -0.1950  3.8541
  169SOPE  H14S19085   3.641   2.175   7.896 -0.3945  0.1523 -0.2502
  169SOPE  C21519086   3.789   2.338   7.888 -0.3243  0.7411  0.0080
  169SOPE  H15R19087   3.706   2.405   7.918 -1.2075 -0.8796  1.2875
  169SOPE  H15S19088   3.859   2.387   7.817 -2.3257  2.7042 -0.6665
  169SOPE  C21619089   3.881   2.300   8.002  0.2794 -0.7586 -0.2468
  169SOPE  H16R19090   3.944   2.211   7.979 -0.0063 -0.3539 -2.7233
  169SOPE  H16S19091   3.844   2.274   8.103  2.5766 -1.7787  0.3719
  169SOPE  C21719092   3.981   2.413   8.025  0.3146  0.6627 -0.2701
  169SOPE  H17R19093   3.926   2.501   8.063 -0.4153  0.6837 -1.3513
  169SOPE  H17S19094   4.033   2.431   7.928  1.4629 -0.4750  0.1197
  169SOPE  C21819095   4.088   2.372   8.120 -0.1243 -0.0274  0.0109
  169SOPE  H18R19096   4.060   2.349   8.225  1.5940 -1.5116  0.1668
  169SOPE  H18S19097   4.158   2.458   8.124 -0.8806  0.5745  0.4727
  169SOPE  H18T19098   4.134   2.282   8.074 -0.6760 -1.2200  1.7282
  169SOPE   C3319099   3.319   2.563   7.119 -0.1371 -0.6876  0.5682
  169SOPE   H3X19100   3.409   2.624   7.097 -1.0544  0.2300 -0.7735
  169SOPE   H3Y19101   3.297   2.496   7.034  0.7276  0.0977 -0.2894
  169SOPE   C3419102   3.339   2.477   7.247  0.6228 -0.0865  0.0012
  169SOPE   H4X19103   3.414   2.397   7.230 -1.3502 -2.1465  0.7229
  169SOPE   H4Y19104   3.241   2.433   7.274  0.8379 -1.3572 -1.2006
  169SOPE   C3519105   3.368   2.569   7.370  0.2515  0.3907  1.3189
  169SOPE   H5X19106   3.288   2.644   7.382 -0.2056  0.6239 -2.5558
  169SOPE   H5Y19107   3.465   2.615   7.341  0.0182 -0.8964 -1.7819
  169SOPE   C3619108   3.367   2.503   7.509  0.1188  0.0571 -0.6920
  169SOPE   H6X19109   3.426   2.410   7.494 -1.4018 -0.9104 -0.6785
  169SOPE   H6Y19110   3.265   2.475   7.540  0.9308 -0.3376  1.7107
  169SOPE   C3719111   3.423   2.587   7.628  0.0793  0.1809  0.6171
  169SOPE   H7X19112   3.410   2.696   7.614  1.1311  0.2159 -0.1444
  169SOPE   H7Y19113   3.530   2.560   7.615 -0.9204 -2.5789 -2.2641
  169SOPE   C3819114   3.383   2.548   7.770  0.1676 -0.0813  0.0043
  169SOPE   H8X19115   3.285   2.595   7.792 -0.3642 -0.5539 -1.3468
  169SOPE   H8Y19116   3.375   2.439   7.787  1.0517 -0.1133  0.2599
  169SOPE   C3919117   3.490   2.604   7.867  0.6070 -0.1106 -0.0574
  169SOPE   H9X19118   3.510   2.713   7.855  1.2962 -0.2951 -0.6064
  169SOPE   H9Y19119   3.593   2.565   7.857  0.0937 -1.4338 -0.3003
  169SOPE  C31019120   3.455   2.580   8.024 -0.5019  0.2435  0.4107
  169SOPE  H10X19121   3.471   2.472   8.044  0.0568  0.1666 -0.4168
  169SOPE  H10Y19122   3.347   2.604   8.030 -0.8462 -0.9833 -0.5231
  169SOPE  C31119123   3.545   2.673   8.119  0.0482  0.0444  0.1260
  169SOPE  H11X19124   3.486   2.700   8.209 -1.5862  0.2825 -0.9911
  169SOPE  H11Y19125   3.574   2.771   8.075  0.7386  0.6128  1.7936
  169SOPE  C31219126   3.670   2.604   8.168  0.0349  0.1792 -0.4986
  169SOPE  H12X19127   3.722   2.549   8.087  0.1370  0.4310 -0.6069
  169SOPE  H12Y19128   3.637   2.521   8.234 -0.8482 -1.8599 -3.4140
  169SOPE  C31319129   3.762   2.702   8.242  0.0182 -0.2321  0.1351
  169SOPE  H13X19130   3.693   2.739   8.321 -1.1621 -2.0669 -0.0150
  169SOPE  H13Y19131   3.778   2.782   8.167 -0.6345 -1.3978 -1.2599
  169SOPE  C31419132   3.889   2.652   8.295  0.4654 -0.5149  0.0888
  169SOPE  H14X19133   3.957   2.641   8.208 -0.0250 -0.5098 -0.2962
  169SOPE  H14Y19134   3.871   2.546   8.325 -1.4464  0.6857  3.3839
  169SOPE  C31519135   3.960   2.730   8.402  0.9400  0.5450 -0.3213
  169SOPE  H15X19136   3.886   2.764   8.477  0.2120 -2.7095  0.5123
  169SOPE  H15Y19137   3.993   2.829   8.363 -1.2001  1.1140 -0.7500
  169SOPE  C31619138   4.075   2.664   8.475 -0.1977  0.2862  0.2654
  169SOPE  H16X19139   4.159   2.659   8.403  1.5918 -0.0506  2.3230
  169SOPE  H16Y19140   4.057   2.559   8.507 -0.4296  0.0946 -0.4980
  169SOPE  C31719141   4.125   2.742   8.602 -0.4751  0.2707  0.2045
  169SOPE  H17X19142   4.217   2.685   8.627 -1.6611 -2.2685 -1.0741
  169SOPE  H17Y19143   4.047   2.743   8.682 -1.2695 -1.2853 -0.5263
  169SOPE  C31819144   4.157   2.891   8.578 -0.1433  0.2198  0.0519
  169SOPE  H18X19145   4.176   2.904   8.469 -1.3000 -0.1359 -0.2050
  169SOPE  H18Y19146   4.247   2.918   8.637 -0.0546  1.7856 -0.7608
  169SOPE  H18Z19147   4.060   2.939   8.605  0.4412  0.1161  2.4794
  170SOPE     N19148   4.521   6.784   6.647 -0.0828  0.6181 -0.2391
  170SOPE   HN119149   4.609   6.793   6.593 -0.1355  1.2568 -0.2339
  170SOPE   HN219150   4.539   6.748   6.743 -1.2276 -2.1975 -1.0621
  170SOPE   HN319151   4.467   6.709   6.601  2.6796 -1.0669 -0.8359
  170SOPE   C1219152   4.470   6.921   6.658 -0.1563  0.5491  0.2162
  170SOPE  H12A19153   4.369   6.929   6.702 -1.2314  0.3547 -2.1491
  170SOPE  H12B19154   4.462   6.963   6.556 -1.2478  2.2617  0.9831
  170SOPE   C1119155   4.557   7.005   6.758  0.0546 -0.3142  0.2019
  170SOPE  H11A19156   4.544   6.975   6.865  0.8639  0.0650  0.4125
  170SOPE  H11B19157   4.541   7.115   6.755  2.2550  0.0095 -0.3351
  170SOPE     P19158   4.795   7.055   6.651  0.1446  0.1035 -0.1463
  170SOPE   O1319159   4.742   7.063   6.514 -0.4892 -0.1181 -0.2795
  170SOPE   O1419160   4.927   6.988   6.675 -0.5447  0.0582 -0.3425
  170SOPE   O1219161   4.692   6.974   6.736 -0.0837 -0.0594 -0.3548
  170SOPE   O1119162   4.795   7.199   6.707  0.1391 -0.0758  0.4338
  170SOPE    C119163   4.819   7.214   6.845  0.2566  0.5698 -0.0115
  170SOPE    HA19164   4.924   7.185   6.868 -0.5637 -1.3402  1.3894
  170SOPE    HB19165   4.750   7.155   6.908 -0.9265  1.4066 -0.5033
  170SOPE    C219166   4.793   7.366   6.885  0.0458  0.1434  0.2258
  170SOPE    HS19167   4.865   7.440   6.844  0.5395 -0.4844 -0.0468
  170SOPE   O2119168   4.785   7.358   7.026  0.4885 -0.0906 -0.2508
  170SOPE   C2119169   4.853   7.448   7.096  0.0486  0.2063 -0.3330
  170SOPE   O2219170   4.907   7.547   7.048  0.2428  0.1009 -0.3766
  170SOPE   C2219171   4.865   7.415   7.251  0.5046 -0.0847  0.1543
  170SOPE   H2R19172   4.973   7.396   7.269 -0.0212 -1.3759  1.9997
  170SOPE   H2S19173   4.827   7.312   7.265  2.5477 -0.8776  0.0076
  170SOPE    C319174   4.649   7.410   6.838  0.0621 -0.1395  0.5810
  170SOPE    HX19175   4.579   7.326   6.855  0.6499 -0.7973 -0.2251
  170SOPE    HY19176   4.645   7.441   6.731 -1.3309 -1.8460  0.1096
  170SOPE   O3119177   4.604   7.520   6.926 -0.0663 -0.4942  0.4127
  170SOPE   C3119178   4.520   7.602   6.872 -0.0673 -0.8905  0.3136
  170SOPE   O3219179   4.458   7.589   6.767 -0.4389 -0.0436  0.1589
  170SOPE   C3219180   4.503   7.717   6.967  0.2399 -0.3521 -0.2024
  170SOPE   H2X19181   4.550   7.805   6.919  0.0493 -0.0078  0.2330
  170SOPE   H2Y19182   4.564   7.699   7.058  0.7364 -2.2778 -0.8928
  170SOPE   C2319183   4.807   7.520   7.343  0.6029  0.5554  0.0334
  170SOPE   H3R19184   4.844   7.619   7.309 -0.9028  1.3430  0.6363
  170SOPE   H3S19185   4.838   7.501   7.448  1.7017 -1.6661 -0.6728
  170SOPE   C2419186   4.651   7.520   7.341 -0.3772 -0.3626 -0.8217
  170SOPE   H4R19187   4.631   7.545   7.234  1.2115  2.2082 -0.5331
  170SOPE   H4S19188   4.619   7.417   7.369 -2.6152  0.1719 -1.3061
  170SOPE   C2519189   4.593   7.618   7.436  0.2738  0.6420 -0.3975
  170SOPE   H5R19190   4.616   7.718   7.394  0.0960  0.1716 -1.6190
  170SOPE   H5S19191   4.485   7.595   7.428  0.3809  0.4263 -1.3278
  170SOPE   C2619192   4.648   7.615   7.584  1.0279  0.7211  0.0815
  170SOPE   H6R19193   4.627   7.508   7.606  2.5010  0.7764  1.8222
  170SOPE   H6S19194   4.758   7.628   7.588  1.1553 -0.6189  1.2052
  170SOPE   C2719195   4.579   7.702   7.689  0.0511  0.6643 -0.9918
  170SOPE   H7R19196   4.582   7.806   7.649 -1.3732  1.0831 -0.0615
  170SOPE   H7S19197   4.476   7.662   7.687  0.2933 -0.0173 -0.2528
  170SOPE   C2819198   4.642   7.694   7.826  0.3783 -0.4000 -0.3107
  170SOPE   H8R19199   4.630   7.589   7.859  1.1703  0.0035  1.3208
  170SOPE   H8S19200   4.750   7.717   7.815  1.2695 -2.6071  2.9048
  170SOPE   C2919201   4.571   7.795   7.919  0.1057 -0.3258  0.3901
  170SOPE   H9119202   4.585   7.902   7.898 -0.2515 -0.5432 -1.0050
  170SOPE  C21019203   4.485   7.765   8.016 -0.4377  0.0082  0.8297
  170SOPE  H10119204   4.436   7.852   8.063  0.1750 -0.5574  2.5606
  170SOPE  C21119205   4.437   7.623   8.060  0.8362  0.7129 -0.3748
  170SOPE  H11R19206   4.512   7.559   8.112  0.3058 -0.2261 -0.7563
  170SOPE  H11S19207   4.400   7.556   7.980  0.6750 -0.2148  0.4748
  170SOPE  C21219208   4.325   7.643   8.166  0.1978 -0.2910 -0.0995
  170SOPE  H12R19209   4.360   7.697   8.257 -1.9719  0.1550  0.4860
  170SOPE  H12S19210   4.314   7.540   8.207 -0.5441 -0.9044 -1.8203
  170SOPE  C21319211   4.192   7.697   8.115  0.4919 -0.6307  0.4134
  170SOPE  H13R19212   4.156   7.644   8.024  0.7250 -2.2550  1.2360
  170SOPE  H13S19213   4.199   7.801   8.078 -2.1540 -0.0224  1.5070
  170SOPE  C21419214   4.082   7.690   8.219 -0.2120  0.4383  1.2295
  170SOPE  H14R19215   3.999   7.752   8.180  1.2257  2.2921  1.0449
  170SOPE  H14S19216   4.129   7.737   8.309  0.2465 -0.2727  1.3692
  170SOPE  C21519217   4.027   7.547   8.250  0.3814  0.0204 -0.3803
  170SOPE  H15R19218   4.083   7.507   8.338 -1.4531  1.6733  1.5698
  170SOPE  H15S19219   4.053   7.482   8.164 -0.0109 -0.1954 -0.3387
  170SOPE  C21619220   3.874   7.546   8.297 -0.0097  0.3153  0.2508
  170SOPE  H16R19221   3.822   7.563   8.200 -2.6058  0.1253  1.5875
  170SOPE  H16S19222   3.861   7.628   8.371 -1.4043  0.6757 -0.3762
  170SOPE  C21719223   3.818   7.419   8.368 -0.5002  0.4196 -0.0581
  170SOPE  H17R19224   3.819   7.332   8.300  0.0536  0.8131 -0.5568
  170SOPE  H17S19225   3.709   7.439   8.374 -0.2385  1.6693  0.7721
  170SOPE  C21819226   3.868   7.394   8.505 -0.6696 -0.1497  0.0815
  170SOPE  H18R19227   3.970   7.351   8.500 -0.9959 -0.7636 -1.9386
  170SOPE  H18S19228   3.812   7.310   8.550 -1.0063  0.9007  1.6496
  170SOPE  H18T19229   3.864   7.484   8.570  1.3199  0.5286 -0.6658
  170SOPE   C3319230   4.357   7.765   6.982  0.3876 -0.5001  0.4115
  170SOPE   H3X19231   4.284   7.690   7.018 -0.1454 -0.5592 -0.7756
  170SOPE   H3Y19232   4.328   7.797   6.880  1.0394 -1.7584 -0.1762
  170SOPE   C3419233   4.340   7.888   7.067 -0.5412  0.1383 -0.5802
  170SOPE   H4X19234   4.237   7.929   7.063 -0.6260 -0.0840 -0.7081
  170SOPE   H4Y19235   4.411   7.970   7.041 -0.1488 -0.0760 -0.1913
  170SOPE   C3519236   4.362   7.852   7.218 -0.5556  0.1130  0.0854
  170SOPE   H5X19237   4.465   7.811   7.226 -0.2142  0.6838 -1.2357
  170SOPE   H5Y19238   4.287   7.772   7.239 -0.0481 -0.0659  1.2444
  170SOPE   C3619239   4.345   7.970   7.310  0.7276 -0.1534 -0.1625
  170SOPE   H6X19240   4.246   8.018   7.295 -0.6884 -2.5020  1.3202
  170SOPE   H6Y19241   4.423   8.041   7.277 -1.6275  2.6570  0.0957
  170SOPE   C3719242   4.357   7.933   7.463  0.1625  0.2678 -0.0192
  170SOPE   H7X19243   4.445   7.870   7.488  0.8020  1.1281 -0.0638
  170SOPE   H7Y19244   4.256   7.887   7.470 -0.7125  2.0546 -0.3546
  170SOPE   C3819245   4.355   8.051   7.550 -0.0807 -0.7921 -0.5068
  170SOPE   H8X19246   4.315   8.140   7.497  1.0457 -0.5567 -0.9701
  170SOPE   H8Y19247   4.458   8.086   7.571  0.5611 -1.8649 -1.7552
  170SOPE   C3919248   4.276   8.031   7.680  0.1181  0.4485 -0.1823
  170SOPE   H9X19249   4.312   7.938   7.730  0.7610 -0.2266 -1.8770
  170SOPE   H9Y19250   4.166   8.020   7.676  0.3439 -1.5962 -1.2176
  170SOPE  C31019251   4.323   8.128   7.788  1.1534 -0.2998 -0.4879
  170SOPE  H10X19252   4.341   8.231   7.751 -0.2760  0.5495  1.1122
  170SOPE  H10Y19253   4.414   8.082   7.833 -0.4459 -1.2833  1.8562
  170SOPE  C31119254   4.222   8.133   7.903  0.2004  0.1595  0.3895
  170SOPE  H11X19255   4.192   8.028   7.925  1.9379 -0.5805 -0.6253
  170SOPE  H11Y19256   4.129   8.179   7.864  0.9267 -0.0553 -1.6780
  170SOPE  C31219257   4.283   8.191   8.032  0.0690 -0.6124  0.4713
  170SOPE  H12X19258   4.285   8.301   8.018 -0.3146 -0.5921  0.5821
  170SOPE  H12Y19259   4.391   8.164   8.043 -0.0414 -1.8351 -1.1154
  170SOPE  C31319260   4.197   8.144   8.148  0.4369  0.8987 -0.4005
  170SOPE  H13X19261   4.217   8.041   8.183  0.9819  1.5550  1.2851
  170SOPE  H13Y19262   4.090   8.141   8.118  1.4412  1.3083 -4.2645
  170SOPE  C31419263   4.212   8.240   8.267  0.1625  0.2555  0.4970
  170SOPE  H14X19264   4.174   8.335   8.225  0.0361  0.9257  2.1195
  170SOPE  H14Y19265   4.319   8.242   8.296  0.7188 -0.9892 -1.3676
  170SOPE  C31519266   4.128   8.202   8.396 -0.9205  0.2296  0.3955
  170SOPE  H15X19267   4.142   8.094   8.417  0.3799  0.9080  3.2699
  170SOPE  H15Y19268   4.022   8.227   8.373 -2.0098 -3.2225  1.2775
  170SOPE  C31619269   4.164   8.279   8.521  0.0351  0.3509  0.1966
  170SOPE  H16X19270   4.152   8.390   8.524 -0.8913  0.1969  3.1670
  170SOPE  H16Y19271   4.271   8.257   8.539  0.4058  0.6787 -1.4914
  170SOPE  C31719272   4.078   8.225   8.628 -0.4449 -0.3287  0.5249
  170SOPE  H17X19273   4.093   8.117   8.648 -0.1181 -0.0748  1.7198
  170SOPE  H17Y19274   3.974   8.241   8.594 -0.5563  1.4054  1.5815
  170SOPE  C31819275   4.082   8.298   8.761 -0.4317 -0.0350 -0.1963
  170SOPE  H18X19276   4.018   8.389   8.755 -1.3656 -0.4895  2.4682
  170SOPE  H18Y19277   4.188   8.320   8.786 -0.5850 -0.8740  1.2545
  170SOPE  H18Z19278   4.040   8.238   8.845  1.2392 -2.1921 -0.8675
  171SOPE     N19279   4.131   3.725   6.774  0.2332 -0.5482 -0.1993
  171SOPE   HN119280   4.229   3.758   6.765  0.5004 -0.9580  1.0549
  171SOPE   HN219281   4.117   3.749   6.874  1.3072 -0.9728  0.0636
  171SOPE   HN319282   4.128   3.621   6.769  2.3037 -0.7864  2.3239
  171SOPE   C1219283   4.033   3.802   6.687 -0.3150  0.5497  0.4485
  171SOPE  H12A19284   3.932   3.780   6.726 -1.6360 -0.7222 -3.5040
  171SOPE  H12B19285   4.041   3.755   6.587 -1.1668  2.4488 -0.5178
  171SOPE   C1119286   4.077   3.953   6.679 -0.0335  0.6461  0.1200
  171SOPE  H11A19287   4.058   3.989   6.782 -3.9191 -2.2151  0.5397
  171SOPE  H11B19288   4.002   4.005   6.615 -1.2078 -2.2456 -0.9441
  171SOPE     P19289   4.240   4.096   6.547 -0.0837  0.3446 -0.4120
  171SOPE   O1319290   4.143   4.099   6.436  0.3702 -0.0343  0.0889
  171SOPE   O1419291   4.379   4.099   6.498 -0.2188  0.0079  0.3651
  171SOPE   O1219292   4.211   3.967   6.630  0.4988 -0.6516  0.7483
  171SOPE   O1119293   4.222   4.215   6.648  0.3300 -0.9504  0.9074
  171SOPE    C119294   4.306   4.262   6.749  0.3067 -0.3994  0.3151
  171SOPE    HA19295   4.304   4.372   6.729 -0.5587 -0.7553 -1.6658
  171SOPE    HB19296   4.412   4.231   6.731  0.5749  0.0430  1.1319
  171SOPE    C219297   4.257   4.224   6.889  0.7836 -0.1605  0.1736
  171SOPE    HS19298   4.243   4.113   6.891 -0.0498 -0.0324  2.0272
  171SOPE   O2119299   4.121   4.284   6.909  0.1758  0.1532  0.2476
  171SOPE   C2119300   4.040   4.199   6.970 -0.8004 -0.0202 -0.7076
  171SOPE   O2219301   4.067   4.090   7.018 -0.0027 -0.8425  0.2982
  171SOPE   C2219302   3.904   4.267   6.990 -0.7398 -0.1162 -0.1858
  171SOPE   H2R19303   3.838   4.217   6.916 -1.5337  1.8334 -0.8179
  171SOPE   H2S19304   3.900   4.372   6.955 -0.3072 -0.6591 -1.9328
  171SOPE    C319305   4.356   4.279   7.002  0.5247 -0.3133 -0.5109
  171SOPE    HX19306   4.376   4.386   6.979  2.1745 -0.0246  2.0855
  171SOPE    HY19307   4.453   4.229   6.982 -0.0619 -2.4478  1.7200
  171SOPE   O3119308   4.300   4.260   7.135  0.3586  0.1056 -0.3772
  171SOPE   C3119309   4.390   4.267   7.226  0.3243 -0.3622  0.5771
  171SOPE   O3219310   4.508   4.283   7.202 -0.2043  0.7104  0.1028
  171SOPE   C3219311   4.329   4.253   7.361 -0.5169  0.6921 -0.2550
  171SOPE   H2X19312   4.280   4.154   7.366 -0.2829  0.6039  0.4392
  171SOPE   H2Y19313   4.242   4.321   7.373 -1.5427 -0.9503  2.0548
  171SOPE   C2319314   3.842   4.253   7.125  0.8126 -0.4019  0.3548
  171SOPE   H3R19315   3.810   4.148   7.141  2.1341 -0.9058 -0.2683
  171SOPE   H3S19316   3.750   4.316   7.130  0.6695 -0.2931 -2.5465
  171SOPE   C2419317   3.938   4.288   7.241 -0.9072 -0.2118  0.6240
  171SOPE   H4R19318   4.037   4.237   7.233  0.1108  2.0787 -2.0864
  171SOPE   H4S19319   3.964   4.395   7.230  0.5531 -0.5067  1.0120
  171SOPE   C2519320   3.878   4.270   7.380 -0.2758 -0.8751  0.7230
  171SOPE   H5R19321   3.781   4.324   7.390 -0.3237 -0.5272 -1.4357
  171SOPE   H5S19322   3.850   4.163   7.389  2.2884 -1.4811  1.9070
  171SOPE   C2619323   3.982   4.311   7.497  0.1376 -0.2542  0.0463
  171SOPE   H6R19324   4.082   4.265   7.481 -0.7101 -1.2288 -2.7819
  171SOPE   H6S19325   3.990   4.422   7.493 -2.8046 -0.0627 -1.3355
  171SOPE   C2719326   3.928   4.273   7.634  0.6741  0.0526 -0.2301
  171SOPE   H7R19327   3.914   4.163   7.633  0.6470  0.0319  1.3409
  171SOPE   H7S19328   4.005   4.300   7.709 -0.6401 -0.6677  1.4182
  171SOPE   C2819329   3.794   4.328   7.678  0.0063 -0.0009  0.1392
  171SOPE   H8R19330   3.726   4.273   7.610  1.2222 -2.3510  0.7954
  171SOPE   H8S19331   3.791   4.291   7.782 -0.6528 -2.6834 -0.8108
  171SOPE   C2919332   3.777   4.480   7.658 -0.8016  0.3257 -0.0489
  171SOPE   H9119333   3.811   4.518   7.561  2.4731  0.8600  1.2368
  171SOPE  C21019334   3.738   4.563   7.756  0.0020  0.0109  0.0990
  171SOPE  H10119335   3.735   4.669   7.730 -0.6739 -0.2837 -1.0486
  171SOPE  C21119336   3.698   4.539   7.897  0.7955 -0.1555  0.3448
  171SOPE  H11R19337   3.656   4.437   7.907  1.1154 -0.4160 -1.0277
  171SOPE  H11S19338   3.611   4.607   7.915  0.3046 -0.5517 -0.5263
  171SOPE  C21219339   3.808   4.567   7.996  0.3881  0.1873  0.4529
  171SOPE  H12R19340   3.843   4.666   7.961  1.2918  0.1194  1.1507
  171SOPE  H12S19341   3.884   4.486   7.991 -2.0091 -2.1958  1.1051
  171SOPE  C21319342   3.750   4.569   8.136  0.5073 -0.6668 -0.1915
  171SOPE  H13R19343   3.701   4.471   8.154 -0.5961 -0.2834 -1.0399
  171SOPE  H13S19344   3.670   4.646   8.137  0.7956 -0.3587 -0.5431
  171SOPE  C21419345   3.848   4.596   8.253  0.0435 -0.2627  0.3972
  171SOPE  H14R19346   3.894   4.691   8.217 -0.8895  0.5554  1.3007
  171SOPE  H14S19347   3.922   4.514   8.241 -0.3419 -0.8128  1.6409
  171SOPE  C21519348   3.782   4.602   8.381  0.7302  0.2901  0.6564
  171SOPE  H15R19349   3.717   4.513   8.393  0.0816  0.7953  0.8875
  171SOPE  H15S19350   3.710   4.686   8.378  0.9566  0.4762  0.4736
  171SOPE  C21619351   3.883   4.618   8.494 -0.7188  0.2124  0.3540
  171SOPE  H16R19352   3.954   4.533   8.489  0.1040  0.9956 -1.4644
  171SOPE  H16S19353   3.819   4.602   8.584 -2.2355  1.9671 -0.3651
  171SOPE  C21719354   3.955   4.752   8.500  0.5572  0.1470  0.7726
  171SOPE  H17R19355   3.875   4.828   8.495 -0.7296 -1.1917  0.7394
  171SOPE  H17S19356   4.013   4.756   8.405 -2.4118  0.7271 -1.0734
  171SOPE  C21819357   4.048   4.794   8.614 -0.3165 -0.5886 -0.2236
  171SOPE  H18R19358   4.097   4.891   8.592 -0.6559 -0.3696 -0.0034
  171SOPE  H18S19359   4.116   4.711   8.643  0.5758 -0.6097 -2.2745
  171SOPE  H18T19360   3.999   4.808   8.712  0.2925  0.8622 -0.1197
  171SOPE   C3319361   4.432   4.275   7.471  0.6014  0.7534  0.3399
  171SOPE   H3X19362   4.473   4.378   7.457 -0.2153  1.1800  1.0076
  171SOPE   H3Y19363   4.521   4.210   7.462  0.8504  1.1860 -0.3498
  171SOPE   C3419364   4.355   4.265   7.598 -0.3477 -0.8727 -0.6205
  171SOPE   H4X19365   4.282   4.182   7.606 -1.3307  0.0422 -0.1046
  171SOPE   H4Y19366   4.292   4.356   7.588 -2.3276 -2.4032 -2.5568
  171SOPE   C3519367   4.439   4.268   7.728 -0.2428  0.0551  0.5684
  171SOPE   H5X19368   4.531   4.326   7.706 -0.8305  0.0437 -2.0847
  171SOPE   H5Y19369   4.477   4.165   7.745 -0.0614  0.2841  1.5947
  171SOPE   C3619370   4.373   4.303   7.856 -0.0762  0.0909  0.5978
  171SOPE   H6X19371   4.279   4.247   7.874 -0.7112  0.3562 -1.7003
  171SOPE   H6Y19372   4.345   4.411   7.853 -2.1485 -0.2816  4.0133
  171SOPE   C3719373   4.459   4.286   7.985  0.5973  0.2586 -0.2546
  171SOPE   H7X19374   4.549   4.350   7.969  0.9178 -0.2606 -0.5439
  171SOPE   H7Y19375   4.499   4.182   7.986  1.4132  0.5757  1.0766
  171SOPE   C3819376   4.389   4.315   8.123  0.5306 -0.4104  0.1606
  171SOPE   H8X19377   4.470   4.325   8.198 -0.6162  0.8816  1.2660
  171SOPE   H8Y19378   4.321   4.234   8.157  0.8659 -1.0477 -0.6761
  171SOPE   C3919379   4.318   4.450   8.110  0.4609  0.2040  0.5015
  171SOPE   H9X19380   4.242   4.456   8.030  0.8427  0.4237  0.1541
  171SOPE   H9Y19381   4.393   4.524   8.075  0.0859  2.1190  3.5717
  171SOPE  C31019382   4.255   4.506   8.243 -0.1925  0.2185 -0.3145
  171SOPE  H10X19383   4.277   4.434   8.325  1.9316  0.2950 -0.7732
  171SOPE  H10Y19384   4.145   4.502   8.229 -0.2372  2.1677 -0.6867
  171SOPE  C31119385   4.311   4.648   8.290 -0.6385 -0.0711 -0.0152
  171SOPE  H11X19386   4.260   4.687   8.381 -0.1258 -0.8551  0.6118
  171SOPE  H11Y19387   4.282   4.700   8.196 -0.1787 -3.1670 -1.9609
  171SOPE  C31219388   4.458   4.663   8.308  0.2846  0.5079 -0.3105
  171SOPE  H12X19389   4.499   4.727   8.226 -1.5736  1.0206 -0.8676
  171SOPE  H12Y19390   4.504   4.565   8.283 -1.3288 -0.5617  0.8420
  171SOPE  C31319391   4.515   4.715   8.440 -0.0317  0.5253 -0.8292
  171SOPE  H13X19392   4.469   4.660   8.525  1.2828  1.5038  0.5312
  171SOPE  H13Y19393   4.497   4.824   8.431  0.4896  0.3668 -4.6569
  171SOPE  C31419394   4.666   4.689   8.451 -0.1614  0.0161  0.3692
  171SOPE  H14X19395   4.722   4.729   8.364  1.2223 -0.8833  0.8299
  171SOPE  H14Y19396   4.691   4.580   8.455  0.6028  0.1849  0.1736
  171SOPE  C31519397   4.725   4.738   8.579  0.9393  0.3442 -0.0916
  171SOPE  H15X19398   4.822   4.691   8.606 -1.0682 -2.9316  1.8709
  171SOPE  H15Y19399   4.656   4.717   8.664 -1.2965 -1.9834 -2.4051
  171SOPE  C31619400   4.742   4.888   8.583  0.5831 -0.0069  0.1394
  171SOPE  H16X19401   4.644   4.938   8.604  0.8271 -0.1212  1.5930
  171SOPE  H16Y19402   4.784   4.927   8.487  1.1593 -1.7236 -0.3166
  171SOPE  C31719403   4.841   4.941   8.694  0.0757 -0.3534 -0.2527
  171SOPE  H17X19404   4.945   4.905   8.682 -0.0338 -0.4774 -0.8290
  171SOPE  H17Y19405   4.798   4.900   8.788 -0.9782  0.3470 -0.4157
  171SOPE  C31819406   4.842   5.090   8.710  0.0168 -0.1104 -0.0245
  171SOPE  H18X19407   4.911   5.142   8.641 -0.5916  1.5379  0.5952
  171SOPE  H18Y19408   4.888   5.112   8.808 -0.9723  0.2498  0.3689
  171SOPE  H18Z19409   4.740   5.135   8.705  0.0984 -0.1409 -3.5450
  172SOPE     N19410   4.667   5.622   6.475  0.0542 -0.5100 -0.3623
  172SOPE   HN119411   4.712   5.665   6.558 -1.3657  1.5573 -0.6450
  172SOPE   HN219412   4.570   5.655   6.461  0.5071 -0.1031 -2.7038
  172SOPE   HN319413   4.652   5.521   6.497  0.5857 -0.0093  2.4029
  172SOPE   C1219414   4.757   5.645   6.347  0.9908 -0.3513  0.3239
  172SOPE  H12A19415   4.745   5.558   6.279  0.2046 -1.3475  1.7170
  172SOPE  H12B19416   4.861   5.651   6.385  0.5207  0.8974  1.4579
  172SOPE   C1119417   4.735   5.781   6.273  0.2227  0.0142 -0.3387
  172SOPE  H11A19418   4.628   5.791   6.245 -0.6949  1.2285  3.4197
  172SOPE  H11B19419   4.797   5.791   6.181  2.8161  2.0722  1.5535
  172SOPE     P19420   4.908   5.951   6.392  0.3324  0.0861 -0.2618
  172SOPE   O1319421   4.900   6.088   6.443  0.0658 -0.5943  0.0601
  172SOPE   O1419422   4.990   5.942   6.269  0.1945  0.3168  0.2719
  172SOPE   O1219423   4.762   5.886   6.367 -0.1101  0.3484  0.1696
  172SOPE   O1119424   4.965   5.852   6.507 -0.2185  0.4271  0.2364
  172SOPE    C119425   5.105   5.832   6.526  1.1757 -0.0466 -0.8136
  172SOPE    HA19426   5.171   5.866   6.445  0.5068  2.5500 -0.3211
  172SOPE    HB19427   5.125   5.723   6.539 -0.8726 -0.1681  1.9280
  172SOPE    C219428   5.146   5.902   6.661  0.2103  0.4319  0.3103
  172SOPE    HS19429   5.245   5.858   6.686 -0.2659 -0.6409  0.3195
  172SOPE   O2119430   5.053   5.875   6.766 -0.1062  0.4111  0.3226
  172SOPE   C2119431   5.093   5.779   6.854  0.4664 -0.3331 -0.0343
  172SOPE   O2219432   5.202   5.722   6.853  0.3472 -0.4501  0.0610
  172SOPE   C2219433   4.988   5.769   6.967 -0.7332  0.2896 -0.6503
  172SOPE   H2R19434   4.901   5.711   6.927 -0.7814  0.5325 -0.8982
  172SOPE   H2S19435   4.948   5.870   6.990 -2.1785 -0.7193  1.3755
  172SOPE    C319436   5.157   6.057   6.632 -0.0986  0.0567  0.6335
  172SOPE    HX19437   5.057   6.106   6.626 -0.4208 -0.8287 -1.8238
  172SOPE    HY19438   5.197   6.074   6.530  0.9028  0.6426  1.1126
  172SOPE   O3119439   5.248   6.115   6.731  0.5708 -1.0270 -0.0723
  172SOPE   C3119440   5.289   6.239   6.702 -1.0028 -0.4691 -0.4467
  172SOPE   O3219441   5.242   6.312   6.616 -0.0377  0.1554 -0.4335
  172SOPE   C3219442   5.389   6.285   6.802  0.1205  0.1896  0.0718
  172SOPE   H2X19443   5.444   6.365   6.747  1.5113 -0.4565  0.5126
  172SOPE   H2Y19444   5.454   6.200   6.830 -2.2434 -1.8011 -0.2669
  172SOPE   C2319445   5.053   5.697   7.090 -0.0303 -0.3961 -1.3344
  172SOPE   H3R19446   5.120   5.615   7.057  0.7909 -1.1589  1.9705
  172SOPE   H3S19447   4.973   5.643   7.145  0.6593 -0.0363  0.0493
  172SOPE   C2419448   5.131   5.795   7.182  0.6816 -0.4474  0.4160
  172SOPE   H4R19449   5.199   5.746   7.255  0.8304 -1.1486 -0.1867
  172SOPE   H4S19450   5.197   5.855   7.116  0.2187  0.4997  0.7969
  172SOPE   C2519451   5.035   5.893   7.258 -0.5330  0.6325  0.2566
  172SOPE   H5R19452   5.105   5.966   7.305  1.6826 -1.3231  0.0960
  172SOPE   H5S19453   4.976   5.943   7.178  2.0693 -1.0640 -2.8355
  172SOPE   C2619454   4.953   5.831   7.376  0.5603 -0.1176 -0.0407
  172SOPE   H6R19455   4.863   5.780   7.337  0.5525  0.1986 -0.4502
  172SOPE   H6S19456   5.019   5.748   7.408  0.5245  0.4238  1.4558
  172SOPE   C2719457   4.933   5.932   7.492  0.3956  0.6531  0.4067
  172SOPE   H7R19458   5.029   5.937   7.548  0.0256  1.8934  0.9468
  172SOPE   H7S19459   4.910   6.030   7.444  0.6050 -0.2290 -1.5492
  172SOPE   C2819460   4.817   5.889   7.582  0.2190 -0.1693  0.7418
  172SOPE   H8R19461   4.732   5.862   7.516 -0.4519 -0.6620  1.7991
  172SOPE   H8S19462   4.859   5.791   7.614 -2.7465 -1.2372  1.5696
  172SOPE   C2919463   4.759   5.960   7.701 -0.7018 -0.1001  0.1820
  172SOPE   H9119464   4.667   5.913   7.738  0.8967 -0.5997  3.8403
  172SOPE  C21019465   4.805   6.059   7.780 -0.5209 -0.6791 -0.3099
  172SOPE  H10119466   4.737   6.103   7.854 -1.4709  1.7222 -2.5470
  172SOPE  C21119467   4.939   6.133   7.766 -0.4592  0.1996 -0.1425
  172SOPE  H11R19468   4.931   6.194   7.673  0.8788  0.8760  0.1772
  172SOPE  H11S19469   5.026   6.065   7.756 -1.5869 -1.1109 -1.2358
  172SOPE  C21219470   4.986   6.224   7.879 -1.1863 -0.2237 -0.0891
  172SOPE  H12R19471   4.904   6.296   7.902  0.5132  1.3411  1.2666
  172SOPE  H12S19472   5.079   6.275   7.846 -0.2053 -1.5494  0.5997
  172SOPE  C21319473   5.017   6.152   8.016  0.1921 -0.2311  0.0673
  172SOPE  H13R19474   5.093   6.071   8.004  1.8941  1.4611 -0.7055
  172SOPE  H13S19475   4.923   6.113   8.061 -0.6289  3.3421  1.6171
  172SOPE  C21419476   5.067   6.266   8.109  0.4048 -0.0610 -0.5582
  172SOPE  H14R19477   4.993   6.348   8.122 -0.6610 -0.9027 -1.2278
  172SOPE  H14S19478   5.147   6.320   8.053  0.2969 -0.6438 -1.2786
  172SOPE  C21519479   5.107   6.225   8.249 -0.1061 -0.1373 -0.7614
  172SOPE  H15R19480   5.198   6.163   8.235 -0.5039 -0.8166 -0.3509
  172SOPE  H15S19481   5.031   6.152   8.284  0.3726 -0.3632 -0.1787
  172SOPE  C21619482   5.124   6.350   8.339 -1.0601  0.1317 -0.1934
  172SOPE  H16R19483   5.025   6.401   8.341 -0.8256  0.5726  0.2939
  172SOPE  H16S19484   5.189   6.423   8.287  0.5444 -0.7346  0.5273
  172SOPE  C21719485   5.150   6.324   8.487  0.6267  0.0166 -0.7627
  172SOPE  H17R19486   5.225   6.244   8.500  1.0647  0.6638  0.9601
  172SOPE  H17S19487   5.060   6.290   8.543  0.7262 -0.7235 -1.0591
  172SOPE  C21819488   5.193   6.452   8.556 -0.4938  0.6115  0.7891
  172SOPE  H18R19489   5.199   6.433   8.665 -0.2513 -1.8424  0.3779
  172SOPE  H18S19490   5.120   6.529   8.523 -1.2541 -1.1119 -1.6789
  172SOPE  H18T19491   5.296   6.474   8.522 -0.5590  0.1948  0.3175
  172SOPE   C3319492   5.321   6.363   6.920  0.2349 -1.2232 -0.2205
  172SOPE   H3X19493   5.246   6.434   6.878 -1.1604 -2.3084  0.3785
  172SOPE   H3Y19494   5.402   6.418   6.973 -2.1472 -0.0357  2.3571
  172SOPE   C3419495   5.250   6.273   7.030  0.1967  0.2180  0.3573
  172SOPE   H4X19496   5.340   6.243   7.088 -0.1130 -1.6803 -0.1025
  172SOPE   H4Y19497   5.195   6.183   6.994 -0.5745  0.7138  0.2902
  172SOPE   C3519498   5.155   6.342   7.127 -0.3114 -0.6884 -0.7229
  172SOPE   H5X19499   5.087   6.401   7.062  1.0491 -0.0853 -1.6265
  172SOPE   H5Y19500   5.219   6.415   7.181 -1.3524  2.1782 -3.1744
  172SOPE   C3619501   5.073   6.254   7.220  0.3665  0.4422  0.0276
  172SOPE   H6X19502   5.140   6.172   7.253  1.8827  1.1592 -1.2187
  172SOPE   H6Y19503   4.992   6.201   7.166 -0.1988  2.2387 -0.9141
  172SOPE   C3719504   5.000   6.329   7.335 -0.1192  0.1886  0.0113
  172SOPE   H7X19505   4.913   6.274   7.379  0.7570 -0.2718  1.1986
  172SOPE   H7Y19506   4.966   6.422   7.284  0.9856  0.5670 -0.0311
  172SOPE   C3819507   5.078   6.374   7.466  0.0836 -0.4195  0.2161
  172SOPE   H8X19508   5.131   6.284   7.503  0.4649  0.3156  1.4720
  172SOPE   H8Y19509   4.998   6.408   7.535  0.7230 -1.2892  1.3885
  172SOPE   C3919510   5.177   6.489   7.443 -0.7550 -0.5289  0.8274
  172SOPE   H9X19511   5.146   6.563   7.366 -1.1095 -0.1497  1.3270
  172SOPE   H9Y19512   5.272   6.453   7.399  1.0097  4.9690 -0.2518
  172SOPE  C31019513   5.198   6.565   7.575  0.4784  0.6301  0.2341
  172SOPE  H10X19514   5.104   6.621   7.594  0.3564  0.4588  0.1410
  172SOPE  H10Y19515   5.282   6.633   7.554  0.0907  1.0227 -0.0464
  172SOPE  C31119516   5.253   6.468   7.678  0.2317  0.0569  0.2624
  172SOPE  H11X19517   5.345   6.418   7.642 -0.1498  1.0718 -2.2323
  172SOPE  H11Y19518   5.174   6.391   7.694  0.3986  0.1594  1.6459
  172SOPE  C31219519   5.289   6.536   7.813  0.3569 -0.0358  0.7776
  172SOPE  H12X19520   5.372   6.609   7.797 -0.7545  0.5798 -2.4193
  172SOPE  H12Y19521   5.320   6.456   7.884  1.4058  1.5200  2.1210
  172SOPE  C31319522   5.163   6.599   7.870  0.0199 -0.0668 -0.0035
  172SOPE  H13X19523   5.072   6.536   7.860 -0.3863  0.4407  0.4208
  172SOPE  H13Y19524   5.128   6.685   7.809 -0.3449  0.0556  0.3725
  172SOPE  C31419525   5.187   6.647   8.010  0.1901  0.4143 -0.2263
  172SOPE  H14X19526   5.224   6.752   8.006  1.3388  0.0196 -0.1260
  172SOPE  H14Y19527   5.266   6.587   8.061 -2.1949 -2.0197  0.6775
  172SOPE  C31519528   5.071   6.647   8.107  0.3417  0.5032 -0.5641
  172SOPE  H15X19529   5.062   6.539   8.128  0.2920  0.5160 -0.5211
  172SOPE  H15Y19530   4.986   6.688   8.048 -0.6095 -0.5654  0.0505
  172SOPE  C31619531   5.088   6.727   8.235 -0.7465 -0.7705  0.0364
  172SOPE  H16X19532   5.183   6.714   8.292 -0.7787 -0.8317  0.0753
  172SOPE  H16Y19533   5.004   6.694   8.300 -1.7836  1.0461 -0.3298
  172SOPE  C31719534   5.069   6.879   8.225 -0.0489 -0.7023 -0.4965
  172SOPE  H17X19535   4.966   6.916   8.207  0.5765 -0.2249 -3.2813
  172SOPE  H17Y19536   5.130   6.923   8.144  1.8152 -2.8388 -0.3170
  172SOPE  C31819537   5.103   6.936   8.365 -0.0756  0.5689 -0.8851
  172SOPE  H18X19538   5.104   7.047   8.369 -0.3068  0.5400 -0.0240
  172SOPE  H18Y19539   5.208   6.911   8.392  0.4167  0.8322 -2.4954
  172SOPE  H18Z19540   5.043   6.899   8.450  2.2062  0.3053  0.6552
  173SAPI   C1219541   0.331   4.233  11.163 -0.1646 -0.4900  0.0670
  173SAPI    H219542   0.250   4.308  11.146 -1.1126 -1.8809 -1.6828
  173SAPI    O219543   0.457   4.290  11.120  0.2043 -0.0186 -0.5266
  173SAPI   HO219544   0.438   4.330  11.035 -1.4258  0.1978 -0.0768
  173SAPI   C1319545   0.325   4.197  11.309 -1.1386  0.5967  0.2083
  173SAPI    H319546   0.227   4.156  11.341 -1.2672  1.3860  0.8304
  173SAPI    O319547   0.352   4.310  11.394 -0.2473  0.7897  0.2900
  173SAPI   HO319548   0.440   4.341  11.370 -0.1563  1.7935  1.8523
  173SAPI   C1419549   0.422   4.084  11.334 -0.5395 -0.8316  0.5399
  173SAPI    H419550   0.522   4.123  11.307  0.0876 -2.3667  0.5978
  173SAPI    O419551   0.419   4.042  11.473 -0.3728 -0.8266  0.0425
  173SAPI   HO419552   0.502   4.074  11.510 -1.0661 -0.2163  1.0963
  173SAPI   C1519553   0.396   3.962  11.245 -0.6217 -0.3239 -0.3757
  173SAPI    H519554   0.299   3.915  11.273 -0.4202 -1.0110 -0.8293
  173SAPI    O519555   0.489   3.862  11.276 -0.1940 -0.3253 -0.1468
  173SAPI   HO519556   0.457   3.775  11.252  0.1369 -1.6553  3.8483
  173SAPI   C1619557   0.400   4.005  11.101 -0.6537 -0.4521 -0.3458
  173SAPI    H619558   0.498   4.043  11.066 -2.0757  1.7877 -1.9796
  173SAPI    O619559   0.369   3.890  11.021 -0.3918 -0.7815 -0.5497
  173SAPI   HO619560   0.387   3.901  10.927 -1.4628  0.7645 -0.6016
  173SAPI   C1119561   0.296   4.110  11.080 -0.7320 -0.5546  0.6520
  173SAPI    H119562   0.197   4.068  11.104 -0.5663 -1.3795 -0.0938
  173SAPI     P19563   0.159   4.177  10.859  0.4093  0.2028 -0.1930
  173SAPI   O1319564   0.172   4.297  10.776  0.2250  0.6118 -0.7232
  173SAPI   O1419565   0.040   4.159  10.939 -0.2132  0.4404  0.1612
  173SAPI   O1219566   0.296   4.150  10.941  0.0381  0.0903 -0.4013
  173SAPI   O1119567   0.167   4.065  10.754 -0.1630  0.5709  0.2311
  173SAPI    C119568   0.063   4.014  10.674 -0.6037  0.1635  0.2124
  173SAPI    HA19569   0.070   3.904  10.690  2.3612 -0.0113 -1.7428
  173SAPI    HB19570  -0.040   4.047  10.698 -0.2046  2.4369 -1.0810
  173SAPI    C219571   0.085   4.042  10.521 -0.0811  0.2275  0.6300
  173SAPI    HS19572   0.194   4.028  10.505 -0.0702  0.1196  0.7896
  173SAPI   O2119573   0.056   4.174  10.488  0.4932 -0.9067 -0.3875
  173SAPI   C2119574   0.147   4.242  10.419  0.3231 -0.7503  0.1465
  173SAPI   O2219575   0.226   4.195  10.336 -0.9216  0.1063  0.1044
  173SAPI   C2219576   0.117   4.388  10.446  0.0803  0.2042 -0.0756
  173SAPI   H2R19577   0.126   4.415  10.553 -0.9970 -1.9519  0.6124
  173SAPI   H2S19578   0.189   4.448  10.388  1.0161 -1.5690 -0.7692
  173SAPI    C319579   0.010   3.943  10.431 -0.5494 -0.0136 -0.3524
  173SAPI    HX19580  -0.092   3.981  10.451 -0.1713 -0.2673  2.3412
  173SAPI    HY19581   0.028   3.840  10.469  0.3917 -0.4951 -2.0408
  173SAPI   O3119582   0.045   3.953  10.295 -0.1431 -0.3316  0.1176
  173SAPI   C3119583   0.159   3.892  10.257  0.2521 -0.4812 -0.4673
  173SAPI   O3219584   0.229   3.822  10.329  0.1474  0.2899  0.6396
  173SAPI   C3219585   0.208   3.940  10.112 -0.1946 -0.0580  0.5708
  173SAPI   H2X19586   0.314   3.908  10.115  0.1154  0.7831 -0.8580
  173SAPI   H2Y19587   0.192   4.050  10.110  0.6694  0.0439 -1.9017
  173SAPI   C2319588  -0.022   4.420  10.388 -0.2676  1.0981 -0.1034
  173SAPI   H3R19589  -0.093   4.373  10.460  1.4280 -2.1205 -0.4479
  173SAPI   H3S19590  -0.032   4.378  10.286 -1.4999 -0.0923  0.4815
  173SAPI   C2419591  -0.061   4.570  10.397  0.0561 -0.1771  1.3067
  173SAPI   H4R19592  -0.077   4.603  10.502  1.3299 -2.2919  2.2151
  173SAPI   H4S19593  -0.156   4.591  10.343 -0.0829  0.4517  1.7958
  173SAPI   C2519594   0.043   4.660  10.328  0.0215 -0.5440  0.6598
  173SAPI   H5R19595   0.137   4.677  10.383  1.4107  0.3585 -1.8670
  173SAPI   C2619596   0.039   4.704  10.201  0.0819  0.5786 -0.3364
  173SAPI   H6R19597   0.125   4.754  10.153  0.5413  0.0443 -0.0804
  173SAPI   C2719598  -0.070   4.684  10.102 -0.2993 -0.1012 -0.3788
  173SAPI   H7R19599  -0.105   4.581  10.123 -0.1178 -0.1698 -0.4156
  173SAPI   H7S19600  -0.036   4.688   9.997  2.0733 -2.1136  0.2755
  173SAPI   C2819601  -0.191   4.772  10.136  0.7204  0.2195  1.1754
  173SAPI   H8R19602  -0.210   4.799  10.241  1.0206  1.1573  0.9900
  173SAPI   C2919603  -0.274   4.818  10.040  0.1450  1.1047  0.2849
  173SAPI   H9R19604  -0.364   4.870  10.076 -0.4236 -0.5309  1.2562
  173SAPI  C21019605  -0.259   4.786   9.894 -0.2639  0.0935  0.2743
  173SAPI  H10R19606  -0.360   4.786   9.848  0.2647  2.5079 -0.9918
  173SAPI  H10S19607  -0.232   4.681   9.870 -0.2519 -0.2887  1.9534
  173SAPI  C21119608  -0.179   4.892   9.821 -0.1412 -0.3843  0.3772
  173SAPI  H11R19609  -0.196   4.996   9.855  3.4747  0.5397 -0.3863
  173SAPI  C21219610  -0.090   4.873   9.721 -0.1985  0.2474 -0.1472
  173SAPI  H12R19611  -0.043   4.962   9.677 -0.5923  1.2500  1.4133
  173SAPI  C21319612  -0.050   4.733   9.681 -0.3201 -0.2638 -0.0318
  173SAPI  H13R19613  -0.030   4.662   9.764  1.0323 -0.1484 -0.2340
  173SAPI  H13S19614   0.050   4.731   9.632 -0.1977  0.9196  0.1446
  173SAPI  C21419615  -0.148   4.656   9.592 -0.6251 -0.4798  0.0294
  173SAPI  H14R19616  -0.243   4.648   9.646 -0.5504 -1.0296  0.0778
  173SAPI  C21519617  -0.124   4.603   9.470  0.1037  0.3407  0.1623
  173SAPI  H15R19618  -0.203   4.555   9.410 -0.0003  0.2154  0.3984
  173SAPI  C21619619   0.006   4.607   9.397 -0.7044  0.6238 -0.7359
  173SAPI  H16R19620   0.063   4.515   9.420  1.5451  2.4626  1.2655
  173SAPI  H16S19621   0.071   4.687   9.438 -0.0251  0.6094 -1.7740
  173SAPI  C21719622  -0.018   4.619   9.243 -0.6424 -0.2234  0.0185
  173SAPI  H17R19623   0.078   4.644   9.193 -0.6073  0.6459  0.5196
  173SAPI  H17S19624  -0.091   4.701   9.227 -0.0903  0.4984  1.1431
  173SAPI  C21819625  -0.083   4.493   9.181  0.2317  0.2125  0.2247
  173SAPI  H18R19626  -0.180   4.461   9.225 -1.0437  2.4972 -0.8035
  173SAPI  H18S19627  -0.023   4.401   9.193  2.7392  1.6500 -1.0366
  173SAPI  C21919628  -0.107   4.518   9.028  0.0782  0.6821  0.3215
  173SAPI  H19R19629  -0.006   4.547   8.993  0.8295  3.2799  4.2657
  173SAPI  H19S19630  -0.163   4.612   9.012  1.7638  1.4281 -1.3746
  173SAPI  C22019631  -0.169   4.399   8.952 -0.3079  0.8095  0.5014
  173SAPI  H20R19632  -0.156   4.395   8.842 -1.1115  0.0457  0.4251
  173SAPI  H20S19633  -0.274   4.406   8.989  0.5139  1.0622  2.9261
  173SAPI  H20T19634  -0.122   4.305   8.989  0.4570  0.3583 -1.5533
  173SAPI   C3319635   0.114   3.880  10.002 -0.1055 -0.0441 -0.8513
  173SAPI   H3X19636   0.143   3.935   9.910  0.4653  0.5674 -0.3113
  173SAPI   H3Y19637   0.007   3.907  10.016  0.7151  2.8827  0.1884
  173SAPI   C3419638   0.136   3.728   9.996  0.5809  0.4308  0.6597
  173SAPI   H4X19639   0.093   3.683  10.088  0.3388  1.5055  1.0886
  173SAPI   H4Y19640   0.245   3.705   9.985  0.2005 -1.6230  0.9990
  173SAPI   C3519641   0.063   3.657   9.878  0.0007  1.0253 -0.4395
  173SAPI   H5X19642  -0.048   3.661   9.888  0.0505  0.1539  0.6210
  173SAPI   H5Y19643   0.093   3.551   9.898  2.9422  1.7841 -0.6060
  173SAPI   C3619644   0.117   3.698   9.741  0.2045 -0.3705 -0.1262
  173SAPI   H6X19645   0.224   3.669   9.749  0.5742  1.3204  1.4021
  173SAPI   H6Y19646   0.115   3.807   9.721  0.6380 -0.3534 -0.0835
  173SAPI   C3719647   0.038   3.619   9.631  0.5496  0.0876  0.7803
  173SAPI   H7X19648   0.078   3.651   9.532  0.3625 -0.8475  0.4005
  173SAPI   H7Y19649  -0.067   3.656   9.633  0.1536 -1.0346  0.7336
  173SAPI   C3819650   0.040   3.466   9.643 -0.2306  0.2779 -0.4872
  173SAPI   H8X19651  -0.017   3.443   9.735 -0.5440  0.1793 -0.7028
  173SAPI   H8Y19652   0.144   3.431   9.657 -0.8916 -1.4996  0.0933
  173SAPI   C3919653  -0.035   3.404   9.520  0.3041  0.2927 -0.0484
  173SAPI   H9X19654  -0.132   3.456   9.504  0.2435  0.7456  1.7404
  173SAPI   H9Y19655  -0.046   3.295   9.538  1.2645  0.3400  0.8581
  173SAPI  C31019656   0.049   3.397   9.389  0.3285  1.0240 -0.2305
  173SAPI  H10X19657   0.156   3.370   9.404  0.1127  1.1112  1.6227
  173SAPI  H10Y19658   0.058   3.503   9.356  0.0691  1.8121  2.1309
  173SAPI  C31119659  -0.003   3.308   9.278 -0.8506 -0.5702  0.0077
  173SAPI  H11X19660  -0.108   3.337   9.258 -1.3723 -1.0983  1.8986
  173SAPI  H11Y19661  -0.012   3.200   9.301 -1.7234 -0.5161 -0.0801
  173SAPI  C31219662   0.090   3.321   9.156  0.5342 -0.1985  0.7526
  173SAPI  H12X19663   0.192   3.347   9.191  1.1841  3.7731 -3.5906
  173SAPI  H12Y19664   0.053   3.410   9.102  1.0550  0.1000  0.8795
  173SAPI  C31319665   0.076   3.193   9.080  0.9112  0.8262  0.3442
  173SAPI  H13X19666  -0.026   3.185   9.035  1.8508  0.7741 -1.8563
  173SAPI  H13Y19667   0.096   3.103   9.142  1.7899  0.0455 -1.0340
  173SAPI  C31419668   0.171   3.180   8.961  0.5699  0.6702 -0.4211
  173SAPI  H14X19669   0.272   3.186   9.008  0.3185 -1.1571  0.4111
  173SAPI  H14Y19670   0.152   3.265   8.893 -2.3320  1.1106  0.8707
  173SAPI  C31519671   0.170   3.045   8.888 -1.1654 -0.0026  0.5106
  173SAPI  H15X19672   0.070   3.022   8.844 -0.4023 -0.1967 -1.1539
  173SAPI  H15Y19673   0.205   2.965   8.957  0.4681  0.0266 -0.2660
  173SAPI  C31619674   0.273   3.048   8.776  0.1117  0.4766  0.3178
  173SAPI  H16X19675   0.350   3.119   8.810 -0.9633  1.8702 -0.1065
  173SAPI  H16Y19676   0.238   3.105   8.687 -0.5314  0.6750  0.6989
  173SAPI  C31719677   0.315   2.913   8.730 -0.4191 -0.1790 -0.5411
  173SAPI  H17X19678   0.240   2.886   8.653 -1.5383 -0.5630  0.6591
  173SAPI  H17Y19679   0.309   2.835   8.809  0.2870  0.9722  0.6722
  173SAPI  C31819680   0.459   2.911   8.674 -0.1629  0.4195 -0.4773
  173SAPI  H18X19681   0.456   2.973   8.582 -2.5356  0.4794 -0.3878
  173SAPI  H18Y19682   0.481   2.809   8.637 -0.3860  0.1834  0.0277
  173SAPI  H18Z19683   0.535   2.934   8.752 -1.1112  0.4894  0.4411
  174SAPI   C1219684   3.746   5.084  10.918 -0.3926 -0.6403 -0.2129
  174SAPI    H219685   3.712   5.131  10.824  1.6564 -1.3700 -1.3516
  174SAPI    O219686   3.653   5.117  11.018  0.6883 -0.1859 -0.2388
  174SAPI   HO219687   3.614   5.204  11.008 -1.3620 -1.1770 -1.4273
  174SAPI   C1319688   3.761   4.935  10.892 -0.3885  0.9981  0.0172
  174SAPI    H319689   3.841   4.930  10.815 -0.8819  0.7250 -0.4817
  174SAPI    O319690   3.638   4.876  10.842  0.1129  0.3078  0.4892
  174SAPI   HO319691   3.663   4.846  10.755  0.1698  2.7438 -0.3660
  174SAPI   C1419692   3.809   4.864  11.016  0.0704  0.0343  0.8304
  174SAPI    H419693   3.722   4.866  11.085 -0.0887  0.2653  0.6242
  174SAPI    O419694   3.832   4.726  10.982 -0.1998 -0.3434 -0.0945
  174SAPI   HO419695   3.818   4.679  11.065 -0.1728  2.1565  1.3891
  174SAPI   C1519696   3.936   4.927  11.078 -0.0507 -0.2331  0.1395
  174SAPI    H519697   4.018   4.901  11.008  0.4563 -1.7248  1.2470
  174SAPI    O519698   3.968   4.868  11.204 -0.1574  0.5930  0.1763
  174SAPI   HO519699   3.998   4.779  11.185  0.3972  0.5956  1.0092
  174SAPI   C1619700   3.915   5.077  11.104 -0.3814  1.1572  0.1356
  174SAPI    H619701   3.830   5.090  11.175  0.7733 -3.3697  2.5275
  174SAPI    O619702   4.031   5.139  11.161 -0.4299  0.1464  0.8066
  174SAPI   HO619703   4.098   5.135  11.092 -1.7168 -1.1249 -0.3843
  174SAPI   C1119704   3.878   5.145  10.964  0.2147 -0.0212 -0.1456
  174SAPI    H119705   3.961   5.113  10.898 -1.5221 -1.4041 -1.7041
  174SAPI     P19706   3.896   5.367  10.831 -0.2411 -0.5826  0.2493
  174SAPI   O1319707   3.964   5.276  10.733  0.0074  0.2640  0.7184
  174SAPI   O1419708   3.972   5.489  10.865 -0.0836 -0.1316 -0.1950
  174SAPI   O1219709   3.866   5.292  10.970 -0.1533  0.5899 -0.0829
  174SAPI   O1119710   3.752   5.407  10.776  0.3959 -0.2129 -0.3631
  174SAPI    C119711   3.739   5.498  10.669 -0.0461  0.2336 -0.2516
  174SAPI    HA19712   3.684   5.589  10.703 -0.6715  0.1864 -1.1311
  174SAPI    HB19713   3.839   5.534  10.639  0.2022  0.8003  1.1855
  174SAPI    C219714   3.680   5.434  10.542  0.0287  0.8904  0.6122
  174SAPI    HS19715   3.583   5.382  10.559  0.8404 -0.5907  0.7560
  174SAPI   O2119716   3.772   5.344  10.485  0.0488 -0.5999  0.3951
  174SAPI   C2119717   3.742   5.213  10.492  0.2335 -0.3348  0.4247
  174SAPI   O2219718   3.655   5.155  10.553  0.6849 -0.3024  0.6643
  174SAPI   C2219719   3.825   5.140  10.386  0.8659 -0.1596  0.5557
  174SAPI   H2R19720   3.838   5.213  10.303  0.0670 -0.7546 -0.0986
  174SAPI   H2S19721   3.927   5.109  10.418  0.6023 -1.4068  0.2003
  174SAPI    C319722   3.645   5.550  10.429 -0.5380 -0.1999  0.1131
  174SAPI    HX19723   3.737   5.613  10.428 -0.0250 -0.9063 -2.5247
  174SAPI    HY19724   3.554   5.597  10.471 -0.5759 -0.0164 -0.1672
  174SAPI   O3119725   3.638   5.484  10.306  0.5078  0.3929  0.2578
  174SAPI   C3119726   3.514   5.492  10.240  0.8845 -0.0881  0.1784
  174SAPI   O3219727   3.412   5.537  10.289 -0.1285  0.6324  0.7772
  174SAPI   C3219728   3.522   5.439  10.101 -0.3311 -0.1434  0.3988
  174SAPI   H2X19729   3.537   5.524  10.031  1.8132 -1.6994 -1.0995
  174SAPI   H2Y19730   3.427   5.390  10.072 -1.2860  1.9447 -0.1147
  174SAPI   C2319731   3.751   5.022  10.316 -0.0997  0.2944  0.5122
  174SAPI   H3R19732   3.653   5.061  10.282  0.8520  2.5018  0.1974
  174SAPI   H3S19733   3.738   4.939  10.388  2.9624 -1.0521 -0.3939
  174SAPI   C2419734   3.830   4.962  10.199  0.0102 -0.0970 -0.8338
  174SAPI   H4R19735   3.931   4.937  10.238 -0.4952 -0.9255 -0.0321
  174SAPI   H4S19736   3.848   5.028  10.111 -1.3804 -0.4447 -1.3936
  174SAPI   C2519737   3.765   4.831  10.156  0.0989  0.0542  0.2454
  174SAPI   H5R19738   3.714   4.775  10.235 -0.4986 -0.4889 -0.5182
  174SAPI   C2619739   3.763   4.790  10.023 -0.2228  0.1894 -0.3007
  174SAPI   H6R19740   3.715   4.697   9.989  0.9601  0.1633 -1.9758
  174SAPI   C2719741   3.831   4.866   9.908 -0.6141  0.7845 -0.7676
  174SAPI   H7R19742   3.909   4.932   9.951 -0.6108 -0.2822  0.9030
  174SAPI   H7S19743   3.750   4.928   9.863  0.5665  0.1136 -3.9424
  174SAPI   C2819744   3.893   4.779   9.801 -0.5143  0.4616 -1.1372
  174SAPI   H8R19745   3.986   4.736   9.839 -1.5690 -1.0683 -0.2124
  174SAPI   C2919746   3.841   4.745   9.679 -0.7698  0.4668  0.0068
  174SAPI   H9R19747   3.906   4.677   9.623 -3.6214 -1.6154 -0.8810
  174SAPI  C21019748   3.711   4.790   9.617  0.1262  0.8847 -0.7114
  174SAPI  H10R19749   3.728   4.885   9.563  2.8518  0.5599 -0.4877
  174SAPI  H10S19750   3.637   4.801   9.699 -0.0494 -0.2715 -0.6955
  174SAPI  C21119751   3.660   4.693   9.512  0.4110 -0.5183  0.3605
  174SAPI  H11R19752   3.616   4.600   9.551  2.1754 -2.4710 -2.1465
  174SAPI  C21219753   3.683   4.696   9.377  0.0631  1.0478 -0.1826
  174SAPI  H12R19754   3.647   4.612   9.316  0.0064  2.3466 -1.9833
  174SAPI  C21319755   3.765   4.801   9.306 -0.3899  0.2301 -0.0629
  174SAPI  H13R19756   3.727   4.898   9.344  0.2839  0.4041  0.1842
  174SAPI  H13S19757   3.736   4.787   9.200  2.5495 -2.5316 -0.5880
  174SAPI  C21419758   3.916   4.798   9.317  0.7865  0.5210 -0.4088
  174SAPI  H14R19759   3.961   4.810   9.416  1.0736 -0.2597 -0.4407
  174SAPI  C21519760   4.008   4.776   9.220 -0.4569 -0.1543  0.5678
  174SAPI  H15R19761   4.110   4.755   9.257 -0.0368  0.3776 -0.2879
  174SAPI  C21619762   3.983   4.745   9.074  0.0351  0.3461  0.0111
  174SAPI  H16R19763   3.946   4.839   9.030 -0.4975 -0.4813 -1.3412
  174SAPI  H16S19764   3.902   4.671   9.091 -0.9458  1.4124  0.0249
  174SAPI  C21719765   4.100   4.680   9.003  0.4249 -0.4151  0.3754
  174SAPI  H17R19766   4.069   4.632   8.908  1.8681  0.9824 -0.8485
  174SAPI  H17S19767   4.123   4.590   9.063 -0.9084 -1.4331 -0.6250
  174SAPI  C21819768   4.231   4.767   8.980  0.6319  0.0574 -0.3346
  174SAPI  H18R19769   4.254   4.825   9.072  1.1420 -1.2745  0.4049
  174SAPI  H18S19770   4.211   4.838   8.897 -1.5993 -0.9276 -0.6931
  174SAPI  C21919771   4.356   4.689   8.943  0.1201 -0.0480 -0.0068
  174SAPI  H19R19772   4.338   4.609   8.868  2.1063 -0.6720  0.1415
  174SAPI  H19S19773   4.393   4.638   9.035  0.2933  0.6635  0.3262
  174SAPI  C22019774   4.459   4.787   8.892  0.8028  0.2541  0.3012
  174SAPI  H20R19775   4.441   4.817   8.786  1.0738  1.5427  0.6149
  174SAPI  H20S19776   4.557   4.734   8.887  0.1084 -0.9380 -1.2131
  174SAPI  H20T19777   4.457   4.879   8.953  0.1487 -0.5597  1.5192
  174SAPI   C3319778   3.635   5.336  10.074 -0.5262  0.0546  0.4578
  174SAPI   H3X19779   3.671   5.274  10.158  2.9821  1.4299  0.0721
  174SAPI   H3Y19780   3.723   5.400  10.051 -0.7886 -0.0057 -0.7594
  174SAPI   C3419781   3.622   5.239   9.958 -0.3982 -0.6923  0.1240
  174SAPI   H4X19782   3.553   5.156   9.984  0.7586 -1.5372  0.5756
  174SAPI   H4Y19783   3.725   5.199   9.953 -0.2477 -0.2574 -0.2365
  174SAPI   C3519784   3.574   5.315   9.826  0.0304  0.5128 -0.3162
  174SAPI   H5X19785   3.622   5.414   9.810  0.2378  0.4317 -0.2058
  174SAPI   H5Y19786   3.464   5.328   9.826  0.0446  0.7283  1.0206
  174SAPI   C3619787   3.591   5.233   9.701 -0.5870  0.4713  0.0312
  174SAPI   H6X19788   3.518   5.150   9.715  2.0644 -2.2583 -1.5905
  174SAPI   H6Y19789   3.691   5.185   9.695 -1.0753 -0.7716  1.4138
  174SAPI   C3719790   3.535   5.306   9.574 -0.0080 -0.5014 -0.6215
  174SAPI   H7X19791   3.601   5.394   9.558 -1.0236  0.1384 -1.3244
  174SAPI   H7Y19792   3.431   5.339   9.597 -0.4960 -1.0580 -2.0079
  174SAPI   C3819793   3.530   5.226   9.445  0.3622 -0.1270 -0.0911
  174SAPI   H8X19794   3.484   5.126   9.462  2.8183 -1.2293  0.4411
  174SAPI   H8Y19795   3.633   5.203   9.410  1.3824  1.1136  2.0543
  174SAPI   C3919796   3.455   5.306   9.341 -0.1906 -0.6272  0.4215
  174SAPI   H9X19797   3.461   5.411   9.377 -0.3871 -0.4866  0.0560
  174SAPI   H9Y19798   3.348   5.278   9.339 -0.4514  0.3876 -0.2708
  174SAPI  C31019799   3.523   5.296   9.197  0.0189  0.5656 -0.3006
  174SAPI  H10X19800   3.631   5.323   9.198  0.2110 -0.0962 -1.9551
  174SAPI  H10Y19801   3.470   5.369   9.131 -1.1608 -0.1973 -0.2094
  174SAPI  C31119802   3.507   5.156   9.126 -0.0104  0.1374 -0.2370
  174SAPI  H11X19803   3.403   5.159   9.087 -0.8032  0.7173  1.9107
  174SAPI  H11Y19804   3.516   5.072   9.198  0.2563 -1.2361 -1.8144
  174SAPI  C31219805   3.598   5.123   9.014  0.3244 -0.7303  0.0914
  174SAPI  H12X19806   3.702   5.115   9.051 -0.8025  1.0859  3.8859
  174SAPI  H12Y19807   3.594   5.202   8.936  1.2215 -0.3194  0.4618
  174SAPI  C31319808   3.563   4.986   8.953  0.4072  0.1465  0.4531
  174SAPI  H13X19809   3.462   4.988   8.907  0.8580  1.6482 -0.5073
  174SAPI  H13Y19810   3.561   4.905   9.029  1.1108 -1.6538 -1.3938
  174SAPI  C31419811   3.664   4.931   8.841  0.2718 -0.6441  0.0920
  174SAPI  H14X19812   3.759   4.940   8.898 -0.0104 -1.4280  0.7091
  174SAPI  H14Y19813   3.659   5.002   8.757 -1.1416 -0.4624  0.3179
  174SAPI  C31519814   3.645   4.784   8.795  0.1994  0.2933  1.0503
  174SAPI  H15X19815   3.604   4.738   8.887 -0.9153 -4.0512 -1.4749
  174SAPI  H15Y19816   3.741   4.737   8.768 -0.5485 -1.1794  0.9144
  174SAPI  C31619817   3.537   4.785   8.686  0.0340 -0.0899  0.2942
  174SAPI  H16X19818   3.577   4.844   8.601  0.3045 -0.1099  0.4082
  174SAPI  H16Y19819   3.438   4.821   8.722  0.3035  0.3195  0.6321
  174SAPI  C31719820   3.520   4.643   8.640  0.5041  0.0779  0.3283
  174SAPI  H17X19821   3.624   4.605   8.642 -0.2803 -2.1036  2.1363
  174SAPI  H17Y19822   3.467   4.629   8.544  1.0222  0.6346 -0.0370
  174SAPI  C31819823   3.437   4.562   8.741  1.1595  0.0687  0.2128
  174SAPI  H18X19824   3.332   4.598   8.740  1.1196  0.5237  5.0459
  174SAPI  H18Y19825   3.468   4.574   8.848 -1.1641  1.0744  0.7981
  174SAPI  H18Z19826   3.441   4.454   8.713  0.1339 -0.0148  0.3638
  175SAPI   C1219827   4.657   3.780   6.218 -0.4300 -0.2832 -0.4020
  175SAPI    H219828   4.616   3.677   6.226 -1.0765 -0.0299 -0.3615
  175SAPI    O219829   4.722   3.801   6.093 -0.2538  0.2871  0.5464
  175SAPI   HO219830   4.703   3.733   6.029  1.1180 -0.7445  1.2038
  175SAPI   C1319831   4.543   3.875   6.240 -0.4144 -0.3735 -0.2973
  175SAPI    H319832   4.495   3.854   6.338 -1.8465  1.2258 -0.6302
  175SAPI    O319833   4.447   3.856   6.133 -0.5248  0.2052 -0.8998
  175SAPI   HO319834   4.495   3.842   6.052  0.1340 -2.8655 -0.0171
  175SAPI   C1419835   4.592   4.019   6.246 -0.7712 -0.8156 -0.0063
  175SAPI    H419836   4.650   4.037   6.153 -0.7553 -1.0809 -0.0497
  175SAPI    O419837   4.484   4.111   6.255 -0.2782  0.0409  0.2350
  175SAPI   HO419838   4.433   4.098   6.335 -3.6152  3.6183 -1.1754
  175SAPI   C1519839   4.700   4.028   6.357  0.1620  0.0626 -0.7713
  175SAPI    H519840   4.647   4.004   6.452  0.1834 -1.9521 -1.2552
  175SAPI    O519841   4.739   4.160   6.379 -0.0265 -0.3771  0.7917
  175SAPI   HO519842   4.765   4.174   6.470  0.3472  2.1211  0.3428
  175SAPI   C1619843   4.819   3.939   6.344 -0.1270 -0.1844 -0.5481
  175SAPI    H619844   4.879   3.957   6.252 -1.9426 -0.8283 -1.8966
  175SAPI    O619845   4.896   3.939   6.459 -0.5493  0.3191 -0.5436
  175SAPI   HO619846   4.960   3.869   6.446 -1.2813 -0.5340  0.3661
  175SAPI   C1119847   4.766   3.798   6.323 -0.2861  1.1332  0.2134
  175SAPI    H119848   4.710   3.772   6.416  1.2655 -0.6038  0.6897
  175SAPI     P19849   4.853   3.552   6.354 -0.1615  0.4122  0.0422
  175SAPI   O1319850   4.787   3.480   6.241  0.1050 -0.3323  0.6358
  175SAPI   O1419851   4.791   3.544   6.488  0.0589 -0.1660 -0.0557
  175SAPI   O1219852   4.882   3.708   6.314  0.0116  0.1477 -0.2784
  175SAPI   O1119853   5.001   3.495   6.366  0.1558  0.2552  0.2253
  175SAPI    C119854   5.104   3.565   6.445  0.2012  0.0874 -0.1643
  175SAPI    HA19855   5.156   3.637   6.378 -1.1106  1.3510  0.1347
  175SAPI    HB19856   5.068   3.616   6.537  1.5396 -1.3711  1.2208
  175SAPI    C219857   5.215   3.463   6.484 -0.7139 -0.8780 -0.9463
  175SAPI    HS19858   5.247   3.409   6.392 -1.9924 -3.5331  0.1074
  175SAPI   O2119859   5.159   3.366   6.575  0.1391  0.5803 -0.1813
  175SAPI   C2119860   5.231   3.259   6.604 -0.0432 -0.3737 -0.2390
  175SAPI   O2219861   5.338   3.238   6.557 -0.7900  0.3010 -0.1210
  175SAPI   C2219862   5.155   3.179   6.709 -0.9918  0.2114  0.2557
  175SAPI   H2R19863   5.045   3.173   6.694 -0.8907  1.2041 -1.0176
  175SAPI   H2S19864   5.187   3.073   6.705  1.6084  0.9007  1.3858
  175SAPI    C319865   5.340   3.537   6.545 -0.0793 -0.4597  0.6171
  175SAPI    HX19866   5.376   3.611   6.470  1.8727 -1.9270  0.0847
  175SAPI    HY19867   5.413   3.457   6.570  2.1681  0.7699 -1.8036
  175SAPI   O3119868   5.303   3.604   6.666 -0.3222  0.2145 -0.5998
  175SAPI   C3119869   5.402   3.658   6.726 -0.2201 -0.8930 -0.7431
  175SAPI   O3219870   5.523   3.653   6.695  0.6599  0.1600  0.5270
  175SAPI   C3219871   5.350   3.738   6.852 -1.0101  0.2803 -0.5298
  175SAPI   H2X19872   5.240   3.722   6.851 -0.7178 -1.8987 -2.9276
  175SAPI   H2Y19873   5.369   3.845   6.827  0.0939  0.3453  0.5553
  175SAPI   C2319874   5.161   3.236   6.858 -1.1128 -1.3559  0.1318
  175SAPI   H3R19875   5.125   3.167   6.937  2.8718 -1.7851  1.6594
  175SAPI   H3S19876   5.095   3.326   6.859  1.9347  0.9361  1.3887
  175SAPI   C2419877   5.295   3.303   6.888 -0.2428  0.2459 -0.4097
  175SAPI   H4R19878   5.286   3.338   6.993  0.4230  0.3383 -0.3815
  175SAPI   H4S19879   5.327   3.382   6.817  0.4062 -1.3273 -1.9035
  175SAPI   C2519880   5.399   3.190   6.884 -0.2382 -0.1419  0.2854
  175SAPI   H5R19881   5.430   3.147   6.787  2.6967  1.5540  0.4047
  175SAPI   C2619882   5.465   3.137   6.989  0.1056 -0.0192 -0.6951
  175SAPI   H6R19883   5.528   3.048   6.974  1.6076  1.0910 -1.0923
  175SAPI   C2719884   5.452   3.173   7.136  0.0001 -0.3829 -0.4767
  175SAPI   H7R19885   5.434   3.283   7.135 -0.9320 -0.5245 -1.8405
  175SAPI   H7S19886   5.549   3.151   7.185  0.2193  0.2793 -0.6150
  175SAPI   C2819887   5.334   3.091   7.203 -0.1803 -0.6809  1.1368
  175SAPI   H8R19888   5.254   3.048   7.141  0.3150 -0.2526  0.1842
  175SAPI   C2919889   5.336   3.049   7.329 -0.3549 -0.1143  0.5944
  175SAPI   H9R19890   5.250   2.985   7.352 -1.6739  0.9648 -1.1885
  175SAPI  C21019891   5.430   3.064   7.450  0.1714  0.1172 -0.1141
  175SAPI  H10R19892   5.503   3.147   7.441 -0.7835  1.5376  4.0518
  175SAPI  H10S19893   5.486   2.969   7.460  1.0195  0.4887 -1.2185
  175SAPI  C21119894   5.341   3.096   7.566  0.6276 -0.1228 -0.7178
  175SAPI  H11R19895   5.323   3.205   7.565  1.5484  0.0328 -1.1274
  175SAPI  C21219896   5.292   3.008   7.658 -0.7573  0.0307 -0.0549
  175SAPI  H12R19897   5.226   3.035   7.741 -0.3990 -0.7081  0.4772
  175SAPI  C21319898   5.329   2.864   7.646  0.0154  0.6428  0.4605
  175SAPI  H13R19899   5.431   2.846   7.606 -0.9007 -1.3384 -1.0276
  175SAPI  H13S19900   5.265   2.834   7.561 -1.4842  1.4994  1.2625
  175SAPI  C21419901   5.306   2.776   7.762  0.3152  0.1701  0.3980
  175SAPI  H14R19902   5.209   2.726   7.757  0.7442 -0.5395 -1.0811
  175SAPI  C21519903   5.378   2.760   7.873  0.4866  0.2051 -0.6849
  175SAPI  H15R19904   5.349   2.684   7.947  1.9315 -1.4404 -1.7675
  175SAPI  C21619905   5.513   2.814   7.914 -0.4692 -1.1912  1.0053
  175SAPI  H16R19906   5.491   2.910   7.965  0.0490  0.4090 -1.6643
  175SAPI  H16S19907   5.581   2.852   7.834 -1.2005  0.0006  0.9400
  175SAPI  C21719908   5.589   2.738   8.023  0.2311  0.1487  0.0222
  175SAPI  H17R19909   5.626   2.641   7.984 -0.6400  0.6353 -2.0806
  175SAPI  H17S19910   5.521   2.711   8.106 -0.3411 -1.0085 -0.8062
  175SAPI  C21819911   5.713   2.813   8.077 -0.0817  0.1483  0.3968
  175SAPI  H18R19912   5.689   2.902   8.138  1.0446  1.1190 -0.5586
  175SAPI  H18S19913   5.779   2.849   7.996 -0.1112 -0.6248  0.0237
  175SAPI  C21919914   5.785   2.713   8.167 -0.2366 -0.7461  0.1157
  175SAPI  H19R19915   5.825   2.632   8.102 -0.9261 -0.1677 -1.0471
  175SAPI  H19S19916   5.707   2.668   8.232 -0.6743 -2.3444 -1.4599
  175SAPI  C22019917   5.898   2.776   8.259 -0.6501  0.2347  0.0614
  175SAPI  H20R19918   5.925   2.712   8.345  1.6479 -0.3843 -1.0952
  175SAPI  H20S19919   5.866   2.874   8.301 -0.6378 -1.5108  4.3329
  175SAPI  H20T19920   5.994   2.784   8.203  0.5128 -1.1379  1.8426
  175SAPI   C3319921   5.428   3.709   6.986  0.7214 -0.7090 -0.0997
  175SAPI   H3X19922   5.528   3.754   6.969  0.5692 -0.8884 -1.5186
  175SAPI   H3Y19923   5.430   3.599   7.001 -2.3868 -0.4621  2.5777
  175SAPI   C3419924   5.367   3.772   7.110  0.2440 -0.0033 -0.2769
  175SAPI   H4X19925   5.293   3.852   7.088  0.2596 -0.2570 -1.2464
  175SAPI   H4Y19926   5.450   3.807   7.175 -1.2744 -0.0785  1.7938
  175SAPI   C3519927   5.285   3.668   7.197  0.1453  0.1067  0.1570
  175SAPI   H5X19928   5.212   3.609   7.138  1.2259 -2.8797  1.7108
  175SAPI   H5Y19929   5.235   3.719   7.283  3.5085  2.9955  0.4892
  175SAPI   C3619930   5.383   3.576   7.267  0.1675  0.0533 -0.1180
  175SAPI   H6X19931   5.459   3.542   7.194  0.5351 -1.7442  1.0549
  175SAPI   H6Y19932   5.325   3.485   7.294  1.6642 -0.1982  2.3546
  175SAPI   C3719933   5.452   3.638   7.392  0.0117 -0.5313  0.7460
  175SAPI   H7X19934   5.385   3.703   7.452  0.0869 -1.0097  1.3553
  175SAPI   H7Y19935   5.537   3.696   7.351  0.5401 -1.5613  0.3522
  175SAPI   C3819936   5.503   3.542   7.503  0.2520  0.4055 -0.0645
  175SAPI   H8X19937   5.575   3.605   7.559 -0.9820  0.8584  1.0256
  175SAPI   H8Y19938   5.557   3.459   7.452 -1.0572 -1.0785  0.9570
  175SAPI   C3919939   5.394   3.487   7.594 -0.3946  0.0803  0.5326
  175SAPI   H9X19940   5.329   3.420   7.534 -1.0088  0.1549  1.1198
  175SAPI   H9Y19941   5.348   3.575   7.642 -2.6987  0.2869 -1.9480
  175SAPI  C31019942   5.460   3.420   7.712 -0.3729 -0.1198 -0.2284
  175SAPI  H10X19943   5.535   3.488   7.758  0.5136 -0.8503 -0.5782
  175SAPI  H10Y19944   5.513   3.331   7.674 -2.4384 -1.5151  0.0733
  175SAPI  C31119945   5.370   3.381   7.827  0.1368  0.7275 -0.1307
  175SAPI  H11X19946   5.292   3.312   7.788  0.9584  1.0096 -2.3705
  175SAPI  H11Y19947   5.330   3.474   7.873  0.1633  0.4653  0.4264
  175SAPI  C31219948   5.459   3.312   7.938  0.0292  0.2070  0.4425
  175SAPI  H12X19949   5.545   3.381   7.955 -1.9630  2.6152  1.0489
  175SAPI  H12Y19950   5.497   3.217   7.894  1.1994 -0.5776  3.0091
  175SAPI  C31319951   5.384   3.273   8.071 -0.2490 -0.6075 -0.3420
  175SAPI  H13X19952   5.282   3.240   8.040 -0.8254  0.3456  0.4769
  175SAPI  H13Y19953   5.372   3.372   8.122 -0.0869 -1.2855  1.0470
  175SAPI  C31419954   5.457   3.173   8.164 -0.2741 -0.0444 -0.0687
  175SAPI  H14X19955   5.495   3.227   8.253  0.2223 -3.3201  1.7867
  175SAPI  H14Y19956   5.536   3.112   8.113  1.4266  1.8565  0.2093
  175SAPI  C31519957   5.348   3.077   8.218 -0.4779 -0.0632 -0.7721
  175SAPI  H15X19958   5.301   3.003   8.149 -0.2400 -1.6706  0.7563
  175SAPI  H15Y19959   5.268   3.132   8.272  0.7831 -0.4823  1.5781
  175SAPI  C31619960   5.413   2.988   8.323 -0.7027  0.4555  0.5439
  175SAPI  H16X19961   5.471   3.044   8.399 -0.4174  0.1336  0.5626
  175SAPI  H16Y19962   5.475   2.910   8.274 -1.0655  1.0277 -0.8387
  175SAPI  C31719963   5.305   2.903   8.398  0.4537 -0.3151 -0.9103
  175SAPI  H17X19964   5.246   2.847   8.322 -0.5415  1.7501 -1.7045
  175SAPI  H17Y19965   5.237   2.969   8.457 -2.0060 -1.9291 -1.8578
  175SAPI  C31819966   5.364   2.797   8.498  0.3260  0.6538 -0.1979
  175SAPI  H18X19967   5.285   2.753   8.561 -0.1420 -0.2135 -1.3752
  175SAPI  H18Y19968   5.431   2.834   8.579  3.4244 -3.0706 -0.9315
  175SAPI  H18Z19969   5.432   2.722   8.453 -2.6519 -1.1543 -1.8383
  176SAPI   C1219970   4.964   1.320   6.380 -0.1024 -0.0191  0.2483
  176SAPI    H219971   4.897   1.409   6.375 -1.2917 -0.7712  2.1755
  176SAPI    O219972   4.877   1.206   6.418  0.7033 -0.1451  0.0841
  176SAPI   HO219973   4.858   1.233   6.508 -1.3146  1.6109 -0.8322
  176SAPI   C1319974   5.040   1.292   6.245  0.3552 -0.5582 -0.1444
  176SAPI    H319975   5.109   1.377   6.225 -0.5562 -0.1634 -1.7156
  176SAPI    O319976   4.955   1.279   6.130 -0.4448  0.1230  0.1119
  176SAPI   HO319977   4.863   1.282   6.155 -0.3276 -0.6551  0.6413
  176SAPI   C1419978   5.140   1.173   6.268 -0.3604  0.1735 -0.2067
  176SAPI    H419979   5.076   1.084   6.286  2.0518 -2.0816 -2.5614
  176SAPI    O419980   5.210   1.137   6.153 -0.5037  0.2800 -0.1185
  176SAPI   HO419981   5.265   1.210   6.126  0.9878 -0.6945  0.2093
  176SAPI   C1519982   5.230   1.200   6.385 -0.0602  0.5438 -0.2228
  176SAPI    H519983   5.306   1.279   6.370  1.6377 -0.5630  2.2059
  176SAPI    O519984   5.309   1.089   6.416  0.1301  0.4143 -0.0728
  176SAPI   HO519985   5.396   1.109   6.380 -0.0578  1.2491 -0.0604
  176SAPI   C1619986   5.155   1.235   6.511  0.4203 -0.1801  0.1547
  176SAPI    H619987   5.097   1.147   6.545 -0.0797 -0.3254 -1.0651
  176SAPI    O619988   5.241   1.271   6.617 -0.3364  0.2240  0.4070
  176SAPI   HO619989   5.202   1.342   6.668  0.5643  0.6988  0.4541
  176SAPI   C1119990   5.063   1.353   6.491 -0.7042  0.2207 -0.0405
  176SAPI    H119991   5.119   1.440   6.449 -0.1262  0.7694  1.7933
  176SAPI     P19992   4.989   1.505   6.700 -0.3164  0.7355 -0.0123
  176SAPI   O1319993   4.876   1.509   6.788 -0.0676  0.3270 -0.2183
  176SAPI   O1419994   5.023   1.623   6.616 -0.0604  0.3529  0.3123
  176SAPI   O1219995   4.975   1.378   6.602  0.1705 -0.1640 -0.2482
  176SAPI   O1119996   5.127   1.475   6.769 -0.0437  0.5945 -0.3051
  176SAPI    C119997   5.155   1.515   6.903  0.2708 -1.0155 -0.0121
  176SAPI    HA19998   5.153   1.626   6.913  0.8374 -1.2300  3.0019
  176SAPI    HB19999   5.078   1.467   6.968 -0.0847 -3.0891 -1.9246
  176SAPI    C220000   5.284   1.464   6.956  0.0683  0.5916  0.9867
  176SAPI    HS20001   5.361   1.500   6.885  0.0310 -4.1502 -1.6561
  176SAPI   O2120002   5.276   1.315   6.944  0.2726 -0.1731  0.6727
  176SAPI   C2120003   5.395   1.256   6.937 -0.0051 -0.5672  0.2003
  176SAPI   O2220004   5.498   1.316   6.933  0.6463  0.2062  0.1800
  176SAPI   C2220005   5.382   1.103   6.935 -0.1150 -0.1725  0.0236
  176SAPI   H2R20006   5.283   1.089   6.886 -0.2538 -2.3659  0.8812
  176SAPI   H2S20007   5.456   1.051   6.871 -0.6049 -0.0810 -0.6294
  176SAPI    C320008   5.316   1.493   7.104 -0.2868 -0.1365  0.3071
  176SAPI    HX20009   5.415   1.455   7.135  0.6794  2.8862  1.0588
  176SAPI    HY20010   5.232   1.435   7.148 -1.0464 -0.5557 -1.5946
  176SAPI   O3120011   5.310   1.639   7.122  0.4119 -0.0947 -0.2179
  176SAPI   C3120012   5.413   1.709   7.087 -0.4313  0.5257 -0.5896
  176SAPI   O3220013   5.514   1.681   7.031 -0.9409  0.3152 -0.5605
  176SAPI   C3220014   5.399   1.849   7.127 -0.4974 -0.5882  0.7465
  176SAPI   H2X20015   5.297   1.887   7.104 -0.7591 -0.2699  2.3728
  176SAPI   H2Y20016   5.455   1.914   7.056  1.4857 -3.0672 -0.0475
  176SAPI   C2320017   5.385   1.043   7.076 -0.2138  0.0819  0.0740
  176SAPI   H3R20018   5.477   1.088   7.121  0.5941  0.3287 -1.7617
  176SAPI   H3S20019   5.411   0.937   7.060 -2.3198 -0.4588  0.1369
  176SAPI   C2420020   5.256   1.056   7.153  0.0516 -0.0803  0.8107
  176SAPI   H4R20021   5.183   0.982   7.113  0.8949 -0.8003  0.5936
  176SAPI   H4S20022   5.217   1.159   7.136 -0.6353 -0.7067 -1.6020
  176SAPI   C2520023   5.272   1.023   7.297  0.0996  0.3055  0.2191
  176SAPI   H5R20024   5.231   0.926   7.329  1.9916 -0.4030  0.5813
  176SAPI   C2620025   5.324   1.094   7.396  0.1363 -0.4121  0.4474
  176SAPI   H6R20026   5.333   1.042   7.492 -3.4941 -3.2157 -0.6217
  176SAPI   C2720027   5.381   1.232   7.394 -0.1534  0.6096 -0.2582
  176SAPI   H7R20028   5.348   1.288   7.484  0.1208 -0.5293  0.5592
  176SAPI   H7S20029   5.350   1.272   7.295  2.4516  0.5305 -1.1494
  176SAPI   C2820030   5.532   1.237   7.386 -0.2004 -0.3435 -0.1488
  176SAPI   H8R20031   5.580   1.149   7.341  0.9489  0.0388  0.3041
  176SAPI   C2920032   5.614   1.340   7.417 -0.7198 -0.2685  0.2243
  176SAPI   H9R20033   5.722   1.333   7.397 -0.6087  0.4363  0.5873
  176SAPI  C21020034   5.560   1.464   7.497 -0.3771 -0.1905 -0.0233
  176SAPI  H10R20035   5.453   1.448   7.521 -0.4552 -3.8635 -2.2861
  176SAPI  H10S20036   5.552   1.554   7.432  1.7423  1.5500  2.0265
  176SAPI  C21120037   5.637   1.504   7.621 -0.1439  0.0329  0.0389
  176SAPI  H11R20038   5.732   1.449   7.632  0.9857  2.0335  0.4535
  176SAPI  C21220039   5.614   1.603   7.706 -0.2459 -0.0406  0.2050
  176SAPI  H12R20040   5.690   1.608   7.786  0.3270 -0.3908 -0.3144
  176SAPI  C21320041   5.495   1.698   7.718 -0.1759  0.0456  0.4683
  176SAPI  H13R20042   5.413   1.680   7.645  1.5892  0.8423 -1.7663
  176SAPI  H13S20043   5.520   1.802   7.688 -0.3058 -0.3886 -1.2038
  176SAPI  C21420044   5.429   1.696   7.855 -0.2199  0.2409  0.1833
  176SAPI  H14R20045   5.354   1.618   7.874 -0.8786  0.7697 -0.2346
  176SAPI  C21520046   5.453   1.772   7.962  0.0065 -0.3380  0.6214
  176SAPI  H15R20047   5.396   1.763   8.055 -2.3238 -1.6063 -0.8755
  176SAPI  C21620048   5.551   1.887   7.960 -0.1925  0.1679  0.5728
  176SAPI  H16R20049   5.496   1.984   7.960 -1.0804 -0.3178 -1.2120
  176SAPI  H16S20050   5.603   1.888   7.862 -0.3933  0.5001  0.4668
  176SAPI  C21720051   5.655   1.898   8.074  0.2766 -0.1391  0.3004
  176SAPI  H17R20052   5.708   1.995   8.063  2.1910 -1.4332 -2.6143
  176SAPI  H17S20053   5.724   1.811   8.068 -1.3576 -1.3798 -1.0704
  176SAPI  C21820054   5.594   1.888   8.215  0.7960  0.4434 -0.4876
  176SAPI  H18R20055   5.563   1.783   8.234 -2.1325  1.1916 -0.8706
  176SAPI  H18S20056   5.507   1.957   8.213 -2.5447 -3.6026 -1.5538
  176SAPI  C21920057   5.688   1.919   8.329 -0.1137 -0.3933 -0.6361
  176SAPI  H19R20058   5.790   1.897   8.292 -0.0013 -0.3949 -0.3284
  176SAPI  H19S20059   5.667   1.849   8.413  2.5309 -0.5253 -0.0448
  176SAPI  C22020060   5.686   2.066   8.369 -0.7653 -0.2976 -0.4731
  176SAPI  H20R20061   5.604   2.082   8.441 -0.0611 -0.7106  0.4300
  176SAPI  H20S20062   5.672   2.138   8.285  1.2949 -1.4793 -1.8849
  176SAPI  H20T20063   5.785   2.103   8.405 -1.4153  1.6220 -0.5793
  176SAPI   C3320064   5.436   1.864   7.273  0.0613  0.7158 -0.1792
  176SAPI   H3X20065   5.404   1.777   7.334 -1.3452  0.5880 -1.0765
  176SAPI   H3Y20066   5.394   1.955   7.322  2.9042  1.7323  0.5181
  176SAPI   C3420067   5.578   1.888   7.302 -0.5604  0.6168 -0.3914
  176SAPI   H4X20068   5.607   1.984   7.254 -0.7274  0.7816 -0.1619
  176SAPI   H4Y20069   5.647   1.812   7.260 -2.3917 -1.0435 -0.4419
  176SAPI   C3520070   5.604   1.903   7.449 -0.1801  0.2028 -0.3908
  176SAPI   H5X20071   5.591   1.809   7.506 -3.0330  0.0674 -1.2090
  176SAPI   H5Y20072   5.531   1.973   7.495  0.6556  0.1418  1.0439
  176SAPI   C3620073   5.746   1.956   7.466  0.3122 -0.4270  0.2810
  176SAPI   H6X20074   5.772   2.041   7.399 -0.0261  0.4465  1.2587
  176SAPI   H6Y20075   5.821   1.876   7.445  1.0384  0.5678 -1.0123
  176SAPI   C3720076   5.769   1.996   7.614 -0.3324  1.3410 -0.5166
  176SAPI   H7X20077   5.732   1.920   7.686  1.5218 -1.6323 -2.5507
  176SAPI   H7Y20078   5.708   2.086   7.637 -0.6934  0.8111  0.6566
  176SAPI   C3820079   5.920   2.029   7.654  0.0378  0.1665  0.0086
  176SAPI   H8X20080   5.955   2.101   7.577  0.2719  3.2221  2.8839
  176SAPI   H8Y20081   5.976   1.933   7.652 -0.4887 -0.1382 -0.2021
  176SAPI   C3920082   5.935   2.091   7.797  0.0631  0.4715  0.6124
  176SAPI   H9X20083   5.880   2.020   7.862 -0.0539 -0.0547 -0.0652
  176SAPI   H9Y20084   5.873   2.183   7.798  1.1394  1.2040  2.3604
  176SAPI  C31020085   6.072   2.122   7.852 -0.2882 -0.3762 -0.1150
  176SAPI  H10X20086   6.119   2.202   7.792  1.3056 -0.9933  0.2914
  176SAPI  H10Y20087   6.137   2.031   7.848 -0.4459 -0.5430  0.9400
  176SAPI  C31120088   6.076   2.185   7.993  0.1456 -0.0008 -0.4816
  176SAPI  H11X20089   6.037   2.289   7.993 -1.2561 -0.5062  0.5845
  176SAPI  H11Y20090   6.184   2.181   8.019 -0.0738  2.4095  0.9559
  176SAPI  C31220091   6.005   2.093   8.094 -0.5483 -0.6299 -0.0559
  176SAPI  H12X20092   6.028   1.985   8.089 -0.6599 -0.6325 -0.5620
  176SAPI  H12Y20093   5.897   2.095   8.071 -0.2098 -1.1074 -1.7138
  176SAPI  C31320094   6.037   2.140   8.231  0.2985  0.2817  0.6474
  176SAPI  H13X20095   6.146   2.160   8.236  0.2336  0.6371  0.6432
  176SAPI  H13Y20096   6.004   2.059   8.300  2.2972 -1.0966  0.0256
  176SAPI  C31420097   5.974   2.272   8.257 -0.3221 -0.0558  0.0694
  176SAPI  H14X20098   5.867   2.259   8.233 -0.3204 -1.7999  0.9340
  176SAPI  H14Y20099   6.011   2.350   8.186 -2.4550  0.2291 -0.7638
  176SAPI  C31520100   5.998   2.318   8.400  0.4508  0.1416 -0.6244
  176SAPI  H15X20101   6.108   2.305   8.415  0.1233 -1.0340  0.8571
  176SAPI  H15Y20102   5.947   2.244   8.464  1.0056 -0.1046 -0.4607
  176SAPI  C31620103   5.953   2.462   8.425 -0.9458 -0.3418  0.4190
  176SAPI  H16X20104   5.885   2.493   8.343 -1.7512 -2.5181  0.2463
  176SAPI  H16Y20105   6.047   2.520   8.411 -2.0019  1.2126 -0.3978
  176SAPI  C31720106   5.904   2.478   8.566  0.4291 -0.1271  0.1575
  176SAPI  H17X20107   5.999   2.459   8.621  0.9483 -0.7544 -0.9430
  176SAPI  H17Y20108   5.839   2.389   8.579  0.4935 -0.2682 -0.5027
  176SAPI  C31820109   5.844   2.619   8.594  0.0294  0.8798 -0.8008
  176SAPI  H18X20110   5.780   2.658   8.512 -1.3584  0.6867  0.1693
  176SAPI  H18Y20111   5.933   2.684   8.609  0.6621 -0.7980  3.3794
  176SAPI  H18Z20112   5.788   2.608   8.689 -0.6668  0.3507 -1.2644
  177SLPC     N20113   4.814   6.093  10.997 -0.3468  0.3398  0.0978
  177SLPC   C1320114   4.684   6.064  11.062  0.3499 -0.1662  0.4143
  177SLPC  H13A20115   4.676   6.114  11.157 -0.7309 -0.1287  0.3085
  177SLPC  H13B20116   4.604   6.094  10.996  0.3047 -0.6219  0.2644
  177SLPC  H13C20117   4.671   5.961  11.092  1.7441 -1.1196 -2.0896
  177SLPC   C1420118   4.925   6.051  11.090  0.1070  0.0594 -0.6958
  177SLPC  H14A20119   5.018   6.064  11.036 -0.2777  3.1177 -0.7169
  177SLPC  H14B20120   4.924   6.118  11.174 -0.5767 -1.1321  0.2476
  177SLPC  H14C20121   4.900   5.952  11.125 -1.3224  0.5164 -0.4120
  177SLPC   C1520122   4.825   6.240  10.974  0.6764  0.2449 -0.2648
  177SLPC  H15A20123   4.819   6.291  11.069 -0.9363  0.7239 -0.6039
  177SLPC  H15B20124   4.925   6.266  10.944  0.9746 -1.6389 -1.0043
  177SLPC  H15C20125   4.750   6.266  10.901  0.3618 -0.3852 -0.1724
  177SLPC   C1220126   4.825   6.020  10.865  0.4424 -0.0096 -0.4433
  177SLPC  H12A20127   4.922   6.043  10.823 -0.5709  1.2541 -2.1508
  177SLPC  H12B20128   4.768   6.076  10.792 -1.9922 -1.3406  0.4229
  177SLPC   C1120129   4.797   5.862  10.866  0.6391 -0.4618  0.6017
  177SLPC  H11A20130   4.803   5.822  10.763  1.4014  0.4077  0.3024
  177SLPC  H11B20131   4.692   5.854  10.904  0.4998  0.7062  0.4614
  177SLPC     P20132   5.031   5.752  10.907 -0.1981  0.7238  0.4672
  177SLPC   O1320133   5.137   5.816  10.991  0.6846  0.3689  0.0342
  177SLPC   O1420134   5.031   5.608  10.891  0.0752  0.2289  0.0083
  177SLPC   O1220135   4.887   5.791  10.957 -0.1224  0.2298  0.0571
  177SLPC   O1120136   5.039   5.827  10.768  0.0061 -0.1197 -0.0130
  177SLPC    C120137   5.142   5.821  10.672 -0.3876  0.1665  0.2503
  177SLPC    HA20138   5.162   5.921  10.628 -0.1274  0.3566  0.7975
  177SLPC    HB20139   5.242   5.798  10.714  0.5540 -1.6090 -2.8270
  177SLPC    C220140   5.099   5.730  10.555  0.4426  0.4012  1.0768
  177SLPC    HS20141   5.138   5.626  10.565 -0.9281 -0.4952 -2.1342
  177SLPC   O2120142   5.156   5.782  10.436 -0.3848 -0.1270  0.0736
  177SLPC   C2120143   5.284   5.739  10.410  0.6331 -0.4845  0.0395
  177SLPC   O2220144   5.358   5.677  10.478 -0.0773  0.4317  0.3392
  177SLPC   C2220145   5.313   5.796  10.269  0.1473 -0.1937 -0.3137
  177SLPC   H2R20146   5.381   5.734  10.208  1.2311 -0.7081  1.4078
  177SLPC   H2S20147   5.227   5.791  10.198 -0.4881 -0.2846  0.4495
  177SLPC    C320148   4.950   5.724  10.529  0.1822  0.7160  0.2423
  177SLPC    HX20149   4.915   5.830  10.539 -1.2164  0.4518 -1.4930
  177SLPC    HY20150   4.892   5.665  10.603 -0.4128  2.2090  0.9857
  177SLPC   O3120151   4.938   5.665  10.396  0.5857  0.4913  0.0726
  177SLPC   C3120152   4.858   5.734  10.313  0.2863  0.0924  0.8950
  177SLPC   O3220153   4.793   5.830  10.345  0.6354  0.7252 -0.0168
  177SLPC   C3220154   4.862   5.673  10.168 -1.1361 -0.3520 -0.2282
  177SLPC   H2X20155   4.823   5.569  10.173 -0.3648 -0.8394 -3.5135
  177SLPC   H2Y20156   4.967   5.652  10.142 -1.2334  2.8324 -3.5512
  177SLPC   C2320157   5.383   5.938  10.274 -0.5440  0.2280 -0.0842
  177SLPC   H3R20158   5.472   5.928  10.340 -1.1296 -1.5827  0.4545
  177SLPC   H3S20159   5.304   6.005  10.313 -0.8481 -0.2067  0.0508
  177SLPC   C2420160   5.430   5.981  10.133  0.1098 -0.7119  0.3157
  177SLPC   H4R20161   5.334   5.978  10.077  1.6514  1.0310 -2.5472
  177SLPC   H4S20162   5.509   5.908  10.107  0.0919 -0.7427  0.3473
  177SLPC   C2520163   5.494   6.119  10.132  0.2822  0.2046  0.4573
  177SLPC   H5R20164   5.565   6.127  10.217 -0.2760  0.4974  0.9050
  177SLPC   H5S20165   5.418   6.198  10.153 -0.0986  0.0831 -0.4312
  177SLPC   C2620166   5.541   6.161   9.992  0.5771 -0.0431  0.2139
  177SLPC   H6R20167   5.585   6.263   9.997  0.8403 -0.0935 -0.9289
  177SLPC   H6S20168   5.463   6.170   9.913 -0.4625  1.2449  1.3506
  177SLPC   C2720169   5.659   6.074   9.944  0.2518  0.1295 -0.6890
  177SLPC   H7R20170   5.625   5.984   9.888  1.3319 -0.3376 -0.6130
  177SLPC   H7S20171   5.712   6.041  10.036 -1.3477  0.8595  0.5245
  177SLPC   C2820172   5.754   6.149   9.844 -0.8778  0.1754 -0.0400
  177SLPC   H8R20173   5.826   6.071   9.812 -1.7003 -1.2749  1.5703
  177SLPC   H8S20174   5.815   6.218   9.905 -2.3810  3.4130 -2.0634
  177SLPC   C2920175   5.678   6.221   9.728  0.4632  0.2622 -0.3773
  177SLPC   H9R20176   5.637   6.321   9.747 -1.3219 -0.4773 -0.1854
  177SLPC  C21020177   5.665   6.172   9.600 -0.2369  0.6936 -0.2908
  177SLPC  H10R20178   5.598   6.234   9.538 -1.8166 -0.2773  0.3900
  177SLPC  C21120179   5.706   6.031   9.550  0.2347 -0.1841 -0.1519
  177SLPC  H11R20180   5.711   5.952   9.628 -1.1878 -0.1623 -0.0329
  177SLPC  H11S20181   5.631   6.001   9.475 -3.4750  3.4477  1.8978
  177SLPC  C21220182   5.842   6.030   9.479  0.4751 -0.7524 -0.2346
  177SLPC  H12R20183   5.924   6.003   9.548  2.5707 -0.0479 -2.3508
  177SLPC  C21320184   5.881   6.082   9.363  0.3781  0.1096 -0.7436
  177SLPC  H13R20185   5.986   6.068   9.332  0.9230  1.4814  0.4486
  177SLPC  C21420186   5.791   6.150   9.266 -0.2492  0.0716  0.1994
  177SLPC  H14R20187   5.772   6.251   9.308 -0.9478 -0.4362  1.1407
  177SLPC  H14S20188   5.695   6.093   9.263 -0.0369 -0.3452  1.0330
  177SLPC  C21520189   5.848   6.164   9.119  0.6329 -0.4091 -0.7350
  177SLPC  H15R20190   5.931   6.238   9.127  1.0076 -0.8092 -0.8443
  177SLPC  H15S20191   5.759   6.200   9.064  0.1859  0.0504  0.2796
  177SLPC  C21620192   5.894   6.041   9.047 -0.6610 -0.2409  0.6986
  177SLPC  H16R20193   5.815   5.969   9.077 -1.3989  0.3655  0.2137
  177SLPC  H16S20194   5.997   6.008   9.076 -0.1867 -0.6001 -1.3018
  177SLPC  C21720195   5.908   6.050   8.889  0.3517  0.1966 -0.4555
  177SLPC  H17R20196   5.978   6.131   8.861  2.0125 -0.1753  2.3739
  177SLPC  H17S20197   5.810   6.074   8.843  0.9118 -0.0308 -1.7897
  177SLPC  C21820198   5.977   5.927   8.833 -0.6449 -0.1103 -0.3189
  177SLPC  H18R20199   5.917   5.835   8.847 -1.2047 -0.1281 -2.6422
  177SLPC  H18S20200   6.076   5.911   8.880 -1.1174 -0.2516  0.6520
  177SLPC  H18T20201   5.988   5.915   8.724  0.0838  0.6514 -0.3295
  177SLPC   C3320202   4.792   5.758  10.065 -0.3814 -0.5718 -0.1283
  177SLPC   H3X20203   4.796   5.867  10.087  2.3539 -0.0577 -2.8494
  177SLPC   H3Y20204   4.684   5.735  10.057 -1.4826  3.6145  1.1899
  177SLPC   C3420205   4.859   5.743   9.929  0.1498  0.1243 -0.7453
  177SLPC   H4X20206   4.853   5.636   9.902  0.1088  0.6492 -2.9426
  177SLPC   H4Y20207   4.962   5.780   9.948 -0.0182  0.0545  0.3302
  177SLPC   C3520208   4.791   5.829   9.813  0.0044  0.3580  0.7037
  177SLPC   H5X20209   4.760   5.927   9.854  0.4405 -0.0547  2.0678
  177SLPC   H5Y20210   4.701   5.766   9.794  1.1064 -1.3143  0.9065
  177SLPC   C3620211   4.877   5.834   9.683 -0.3929 -0.0962 -0.6747
  177SLPC   H6X20212   4.968   5.897   9.697 -0.8007  0.7188 -1.5820
  177SLPC   H6Y20213   4.822   5.877   9.597  0.3021  2.4243  0.0960
  177SLPC   C3720214   4.920   5.688   9.631  0.4277  0.4921  0.3316
  177SLPC   H7X20215   4.841   5.610   9.629  0.8920  0.0236  0.3501
  177SLPC   H7Y20216   4.998   5.649   9.700  1.5832  0.4750 -0.9871
  177SLPC   C3820217   4.978   5.681   9.490 -0.0741 -1.3721  0.1904
  177SLPC   H8X20218   5.069   5.744   9.482 -0.8696 -0.0688  1.2306
  177SLPC   H8Y20219   4.902   5.716   9.417 -0.0118  0.6881  1.0886
  177SLPC   C3920220   5.030   5.541   9.454  0.4622 -1.0069 -0.2105
  177SLPC   H9X20221   4.953   5.465   9.478 -1.9331  1.5778  0.5120
  177SLPC   H9Y20222   5.122   5.524   9.514  0.1703 -1.6493  0.0531
  177SLPC  C31020223   5.063   5.529   9.301  0.5502 -0.0571 -0.0339
  177SLPC  H10X20224   5.141   5.606   9.282  0.0528  0.3883 -0.2778
  177SLPC  H10Y20225   4.972   5.563   9.248  0.3053 -0.9580 -0.1937
  177SLPC  C31120226   5.124   5.397   9.250 -0.6170  0.4936  0.1003
  177SLPC  H11X20227   5.074   5.311   9.300 -0.3966 -0.6139 -1.5624
  177SLPC  H11Y20228   5.231   5.396   9.280 -0.7813 -0.9906  0.6652
  177SLPC  C31220229   5.105   5.378   9.100  0.3265  0.2465 -0.2698
  177SLPC  H12X20230   4.998   5.403   9.078 -0.2333 -1.9369 -0.0741
  177SLPC  H12Y20231   5.121   5.274   9.067 -0.5975 -0.3957  1.2250
  177SLPC  C31320232   5.180   5.479   9.013 -0.1019 -0.0789 -0.2657
  177SLPC  H13X20233   5.284   5.466   9.050  0.0320  0.0999 -0.5794
  177SLPC  H13Y20234   5.150   5.585   9.031 -3.4544 -0.1761 -4.3979
  177SLPC  C31420235   5.178   5.454   8.863 -0.1764 -0.0516 -0.3196
  177SLPC  H14X20236   5.200   5.351   8.829 -0.0985  1.0075 -3.6746
  177SLPC  H14Y20237   5.258   5.522   8.827  0.1611 -0.2331  0.0925
  177SLPC  C31520238   5.046   5.503   8.794 -0.3758  0.3058 -0.0420
  177SLPC  H15X20239   5.061   5.611   8.770 -1.2350  0.8545  1.7468
  177SLPC  H15Y20240   4.955   5.489   8.856 -1.6104 -0.9205 -2.0878
  177SLPC  C31620241   5.021   5.425   8.665 -0.3504  0.7355  0.2718
  177SLPC  H16X20242   5.005   5.320   8.699 -0.6615  0.4542 -0.7220
  177SLPC  H16Y20243   5.115   5.425   8.607 -0.1802 -0.1893  0.5310
  177SLPC  C31720244   4.896   5.478   8.588  0.3372 -0.3216 -0.6275
  177SLPC  H17X20245   4.901   5.587   8.567  0.3432  0.1619  1.7650
  177SLPC  H17Y20246   4.808   5.469   8.655 -0.2501  1.7024 -1.1048
  177SLPC  C31820247   4.865   5.402   8.460 -0.0530  1.2093  0.3699
  177SLPC  H18X20248   4.777   5.439   8.403  0.9682  2.1667 -0.6249
  177SLPC  H18Y20249   4.859   5.294   8.485  0.7075  1.8609  3.5410
  177SLPC  H18Z20250   4.959   5.399   8.401  0.3391  2.3173  0.9104
  178SLPC     N20251   6.699   1.239  10.961  0.7762 -0.3986  0.0510
  178SLPC   C1320252   6.613   1.146  11.045 -0.0810  0.5451 -0.3099
  178SLPC  H13A20253   6.514   1.129  11.005  0.0306  1.8170 -1.1342
  178SLPC  H13B20254   6.659   1.050  11.061  1.5792  1.6440  1.9127
  178SLPC  H13C20255   6.597   1.191  11.143  0.1475 -0.9786  0.4421
  178SLPC   C1420256   6.824   1.276  11.029  0.0425 -0.0688  0.3295
  178SLPC  H14A20257   6.902   1.203  11.016  1.3206  1.1595  0.9595
  178SLPC  H14B20258   6.854   1.373  10.990  0.6681  0.1069  1.2194
  178SLPC  H14C20259   6.808   1.292  11.135 -0.7738 -0.3816  0.2585
  178SLPC   C1520260   6.612   1.371  10.958 -0.0739  0.0715  0.4180
  178SLPC  H15A20261   6.685   1.450  10.945  0.2707 -0.3230 -0.0919
  178SLPC  H15B20262   6.531   1.377  10.887 -0.1685  4.1395  0.7946
  178SLPC  H15C20263   6.565   1.387  11.054 -0.1701 -0.6624  0.4960
  178SLPC   C1220264   6.721   1.203  10.820  0.3121  0.3229 -0.1046
  178SLPC  H12A20265   6.766   1.288  10.771  1.3054  1.8329  3.2781
  178SLPC  H12B20266   6.628   1.211  10.764  1.9949  1.6209 -2.8222
  178SLPC   C1120267   6.786   1.065  10.793 -0.2316  1.0122  0.1723
  178SLPC  H11A20268   6.784   1.038  10.685 -2.9749  0.0972  0.4202
  178SLPC  H11B20269   6.716   0.992  10.840  1.3680  0.1996  1.3454
  178SLPC     P20270   7.052   1.094  10.791 -0.0318  0.0134  0.3999
  178SLPC   O1320271   7.093   1.226  10.851  0.0675 -1.1163 -0.1330
  178SLPC   O1420272   7.148   0.977  10.801  0.2782 -1.0480 -0.1438
  178SLPC   O1220273   6.919   1.049  10.860  0.3242  0.1631 -0.4762
  178SLPC   O1120274   7.019   1.109  10.640 -0.5891  0.2584 -0.0867
  178SLPC    C120275   7.013   1.233  10.558  0.7422 -0.0316 -0.5090
  178SLPC    HA20276   6.915   1.247  10.509 -1.2043  3.3005  3.9830
  178SLPC    HB20277   7.032   1.321  10.624 -2.1604  0.3930 -0.1979
  178SLPC    C220278   7.134   1.232  10.467  0.5103  0.6735  0.1818
  178SLPC    HS20279   7.219   1.196  10.528  0.9775  2.5689  0.7024
  178SLPC   O2120280   7.163   1.370  10.424 -0.1454 -0.0029  0.3080
  178SLPC   C2120281   7.289   1.388  10.393  0.7067  0.2437 -0.1418
  178SLPC   O2220282   7.379   1.326  10.444  0.4369 -0.3337  0.6394
  178SLPC   C2220283   7.309   1.515  10.311 -0.2640 -0.3990  0.6617
  178SLPC   H2R20284   7.231   1.589  10.343  0.7116 -0.1194  2.4963
  178SLPC   H2S20285   7.400   1.565  10.350 -1.4547  2.9952 -0.6745
  178SLPC    C320286   7.110   1.132  10.344 -0.6287 -0.2612  0.0125
  178SLPC    HX20287   7.012   1.163  10.301  0.2020  1.0099 -1.0218
  178SLPC    HY20288   7.110   1.026  10.376  0.2275 -0.9239 -2.1392
  178SLPC   O3120289   7.204   1.145  10.239 -0.1750  0.0238 -0.3386
  178SLPC   C3120290   7.310   1.055  10.233 -0.3186  0.5105 -1.3151
  178SLPC   O3220291   7.337   0.975  10.323  0.1287  0.2964  0.0299
  178SLPC   C3220292   7.399   1.099  10.120  0.7127  0.3241 -1.2931
  178SLPC   H2X20293   7.501   1.114  10.161 -0.1890  2.6583  0.2374
  178SLPC   H2Y20294   7.355   1.193  10.081 -0.6262  0.3353  0.1403
  178SLPC   C2320295   7.328   1.489  10.158 -0.0302 -0.0710 -0.0003
  178SLPC   H3R20296   7.393   1.399  10.146  0.5639  0.5368 -1.5227
  178SLPC   H3S20297   7.378   1.579  10.117 -0.1264 -0.3606 -0.7787
  178SLPC   C2420298   7.202   1.446  10.083  0.5569  0.0296 -0.2158
  178SLPC   H4R20299   7.128   1.529  10.079  1.3472  0.7159 -0.6222
  178SLPC   H4S20300   7.152   1.362  10.135  1.7318 -1.2312 -1.0943
  178SLPC   C2520301   7.240   1.433   9.937  0.1050 -0.6965 -0.4017
  178SLPC   H5R20302   7.316   1.352   9.930  0.1689 -0.4873 -2.5321
  178SLPC   H5S20303   7.284   1.531   9.908 -1.6302  0.0781 -0.4330
  178SLPC   C2620304   7.130   1.407   9.834  0.3738  0.5478 -0.3717
  178SLPC   H6R20305   7.047   1.480   9.838  3.2527  3.8559  2.4657
  178SLPC   H6S20306   7.086   1.306   9.843  0.1098  0.7707  0.9469
  178SLPC   C2720307   7.181   1.424   9.693  0.6277 -0.0129  0.7637
  178SLPC   H7R20308   7.267   1.356   9.674  1.3988  0.9903  0.6144
  178SLPC   H7S20309   7.219   1.527   9.672 -1.4077  0.7962  0.9382
  178SLPC   C2820310   7.077   1.400   9.579  0.8048  0.2532  0.2239
  178SLPC   H8R20311   6.987   1.456   9.612  1.6026 -0.3120  3.5080
  178SLPC   H8S20312   7.059   1.292   9.595  4.0035 -0.0210  2.4011
  178SLPC   C2920313   7.126   1.435   9.441  0.3450 -0.0334  0.3929
  178SLPC   H9R20314   7.191   1.524   9.437  1.2698 -0.7320 -0.4198
  178SLPC  C21020315   7.122   1.354   9.328  0.0871 -0.2096  0.4278
  178SLPC  H10R20316   7.164   1.395   9.235  0.4995 -1.5749 -0.0057
  178SLPC  C21120317   7.054   1.214   9.317  0.9842 -0.4445 -0.0819
  178SLPC  H11R20318   6.965   1.196   9.381  1.2884 -1.7303 -0.0100
  178SLPC  H11S20319   7.132   1.141   9.350  1.5460  0.1942  0.0143
  178SLPC  C21220320   7.022   1.170   9.170  0.6588 -0.5900 -0.1470
  178SLPC  H12R20321   6.913   1.175   9.153  0.4856 -0.2483  1.0176
  178SLPC  C21320322   7.107   1.143   9.066  0.2509  0.0897  0.1189
  178SLPC  H13R20323   7.070   1.119   8.965  0.6384  0.9800 -0.2416
  178SLPC  C21420324   7.256   1.138   9.067 -0.4852  0.1557 -0.1047
  178SLPC  H14R20325   7.290   1.041   9.026 -1.8156  0.1315 -1.1893
  178SLPC  H14S20326   7.301   1.149   9.168 -0.4787 -0.2658 -0.0629
  178SLPC  C21520327   7.309   1.241   8.964 -0.5902 -0.0909  0.2943
  178SLPC  H15R20328   7.253   1.225   8.870  1.3894 -2.8797 -0.4794
  178SLPC  H15S20329   7.418   1.229   8.942  0.0378  1.7085  2.2192
  178SLPC  C21620330   7.289   1.385   9.003  0.7058  0.0433 -0.1052
  178SLPC  H16R20331   7.352   1.403   9.092  1.8150 -2.8277 -0.2579
  178SLPC  H16S20332   7.189   1.424   9.028 -0.2429 -3.4279  1.7623
  178SLPC  C21720333   7.344   1.473   8.888  0.1389 -0.1726 -0.3015
  178SLPC  H17R20334   7.280   1.461   8.797 -1.5580  0.0396  0.8308
  178SLPC  H17S20335   7.445   1.441   8.855  0.5440 -1.7383  2.3285
  178SLPC  C21820336   7.346   1.623   8.932 -0.5352 -0.2830 -0.0812
  178SLPC  H18R20337   7.401   1.634   9.028  1.7814 -1.2658 -1.2864
  178SLPC  H18S20338   7.250   1.668   8.968 -0.4932  0.3736 -0.7712
  178SLPC  H18T20339   7.384   1.688   8.851 -2.2666  0.4678 -0.3192
  178SLPC   C3320340   7.412   1.005  10.000 -0.7745  1.2405 -0.2924
  178SLPC   H3X20341   7.451   0.902  10.018 -3.5725  0.2665  0.4585
  178SLPC   H3Y20342   7.500   1.048   9.949  1.0001 -1.3109  0.5120
  178SLPC   C3420343   7.301   1.007   9.889  0.0285  0.7922  0.3888
  178SLPC   H4X20344   7.334   0.987   9.785  0.1535 -1.1664  0.7706
  178SLPC   H4Y20345   7.270   1.113   9.885 -3.5919 -0.2223 -1.0138
  178SLPC   C3520346   7.174   0.924   9.932 -0.1568  0.1851  0.2460
  178SLPC   H5X20347   7.152   0.939  10.040 -0.3921  0.1069  0.2078
  178SLPC   H5Y20348   7.194   0.816   9.913 -0.6895  0.0620  0.3726
  178SLPC   C3620349   7.048   0.955   9.846 -0.6213 -0.1686 -0.7310
  178SLPC   H6X20350   7.033   1.065   9.839 -3.5766 -0.4305  0.7898
  178SLPC   H6Y20351   6.970   0.897   9.900 -1.4047 -1.9138 -3.6396
  178SLPC   C3720352   7.058   0.904   9.701  0.1703 -0.3998  1.0445
  178SLPC   H7X20353   7.115   0.809   9.713 -0.3050 -0.8309 -0.0067
  178SLPC   H7Y20354   7.127   0.971   9.646 -1.6541  0.1526 -0.6453
  178SLPC   C3820355   6.926   0.875   9.637 -0.1329 -0.0171  0.1781
  178SLPC   H8X20356   6.862   0.966   9.639  2.2148  1.7645 -2.1402
  178SLPC   H8Y20357   6.870   0.804   9.702 -0.8609  1.0990  0.7907
  178SLPC   C3920358   6.938   0.818   9.491 -0.0742 -0.2458  0.0390
  178SLPC   H9X20359   7.013   0.740   9.467  1.4420  0.4706  2.3038
  178SLPC   H9Y20360   6.967   0.906   9.430  0.2012 -0.4030 -0.0572
  178SLPC  C31020361   6.799   0.769   9.440 -0.7026 -0.1987  0.2663
  178SLPC  H10X20362   6.730   0.857   9.435  0.5313  0.6333 -2.9670
  178SLPC  H10Y20363   6.743   0.703   9.510  1.7284  0.0741  2.5664
  178SLPC  C31120364   6.798   0.693   9.308  0.2007  0.1051  1.4933
  178SLPC  H11X20365   6.691   0.666   9.297  0.3312 -0.3066  1.2168
  178SLPC  H11Y20366   6.855   0.598   9.317 -0.1149 -0.4465 -1.6831
  178SLPC  C31220367   6.855   0.763   9.182  0.5244 -0.6469 -0.5494
  178SLPC  H12X20368   6.965   0.761   9.193  0.5207 -1.3894 -0.5851
  178SLPC  H12Y20369   6.819   0.867   9.193  2.0624 -0.1406 -0.2369
  178SLPC  C31320370   6.808   0.698   9.048  0.6324  0.9788 -0.1084
  178SLPC  H13X20371   6.827   0.760   8.958  0.6868 -0.1147 -0.8577
  178SLPC  H13Y20372   6.698   0.698   9.060  0.5462  0.1139 -0.8732
  178SLPC  C31420373   6.850   0.551   9.014 -0.5793  0.3752  0.4870
  178SLPC  H14X20374   6.821   0.478   9.093 -0.6958  0.3869  0.4560
  178SLPC  H14Y20375   6.961   0.549   9.015 -0.5366  1.1214 -1.5158
  178SLPC  C31520376   6.809   0.489   8.884  0.0174  0.4602  0.5939
  178SLPC  H15X20377   6.701   0.462   8.890  0.6203 -2.7741 -1.6623
  178SLPC  H15Y20378   6.818   0.561   8.800 -0.7236 -1.5592 -1.2686
  178SLPC  C31620379   6.865   0.343   8.866 -0.5709 -0.8578  0.0401
  178SLPC  H16X20380   6.836   0.277   8.950  0.7685  0.8999  1.9283
  178SLPC  H16Y20381   6.974   0.364   8.870 -0.7671 -0.0492  1.4887
  178SLPC  C31720382   6.818   0.302   8.716 -0.2651 -0.5024  0.3993
  178SLPC  H17X20383   6.858   0.380   8.647 -0.6712  0.8658  1.6956
  178SLPC  H17Y20384   6.709   0.303   8.696 -0.1203  0.3082 -0.3389
  178SLPC  C31820385   6.878   0.162   8.682  0.2367  0.4731 -0.1812
  178SLPC  H18X20386   6.852   0.131   8.578 -0.4305  2.2524 -0.5583
  178SLPC  H18Y20387   6.839   0.083   8.749  1.8977 -0.1111  0.1109
  178SLPC  H18Z20388   6.988   0.152   8.694  0.2936  0.8771 -0.3666
  179SLPC     N20389   1.994   4.062  10.206 -0.4268 -0.3839 -0.0694
  179SLPC   C1320390   2.123   3.987  10.252  0.0760 -0.2634  0.1915
  179SLPC  H13A20391   2.171   4.036  10.336  0.7011 -0.6960  0.0868
  179SLPC  H13B20392   2.090   3.887  10.277 -1.8198  0.7889  2.1419
  179SLPC  H13C20393   2.176   3.963  10.161  1.1699 -0.3473  0.8527
  179SLPC   C1420394   1.911   4.095  10.326  0.2778 -0.1465 -0.0029
  179SLPC  H14A20395   1.976   4.117  10.409  1.2789 -1.2698 -0.4860
  179SLPC  H14B20396   1.838   4.174  10.312  1.7387  1.3306  0.5659
  179SLPC  H14C20397   1.856   4.006  10.353  2.2581 -1.2341  0.5247
  179SLPC   C1520398   1.926   3.975  10.099 -0.8268 -0.1809  0.0435
  179SLPC  H15A20399   1.908   3.876  10.139  0.5133 -0.5813 -0.3331
  179SLPC  H15B20400   1.837   4.030  10.070 -2.4361 -3.2583 -1.1858
  179SLPC  H15C20401   1.995   3.957  10.018 -1.6174 -3.2570 -0.0197
  179SLPC   C1220402   2.037   4.182  10.131  0.8777  0.5239 -0.0192
  179SLPC  H12A20403   1.947   4.242  10.119  0.2437  0.3426  3.4405
  179SLPC  H12B20404   2.074   4.150  10.035 -1.5670 -2.0445 -0.1954
  179SLPC   C1120405   2.148   4.276  10.186  0.5828 -0.2228 -1.0723
  179SLPC  H11A20406   2.172   4.361  10.117  0.0844 -0.1535 -1.1640
  179SLPC  H11B20407   2.241   4.224  10.214 -0.4517 -1.3984  0.2045
  179SLPC     P20408   2.021   4.461  10.342 -0.0593  0.0455 -0.2390
  179SLPC   O1320409   1.876   4.416  10.354 -0.1721 -0.5418 -0.4139
  179SLPC   O1420410   2.080   4.531  10.457  0.4988  0.1777 -0.1378
  179SLPC   O1220411   2.109   4.332  10.318  0.2913  0.2484 -0.1319
  179SLPC   O1120412   2.051   4.537  10.209 -0.3271 -0.0540 -0.5149
  179SLPC    C120413   1.960   4.651  10.181  0.5013  0.0105 -0.0936
  179SLPC    HA20414   1.854   4.625  10.202  0.6548  0.5777  1.5186
  179SLPC    HB20415   1.989   4.738  10.244 -1.3586  2.0863 -2.0118
  179SLPC    C220416   1.967   4.689  10.029 -0.1592 -0.5439 -0.1977
  179SLPC    HS20417   2.073   4.717  10.012 -0.6857  2.0142  0.6005
  179SLPC   O2120418   1.866   4.782   9.999 -0.1806 -0.5819 -0.0821
  179SLPC   C2120419   1.869   4.900  10.058  0.7372 -0.9304 -0.3021
  179SLPC   O2220420   1.947   4.941  10.141  0.1993 -0.6950  0.8710
  179SLPC   C2220421   1.750   4.985  10.004 -0.1729 -0.0680 -0.1414
  179SLPC   H2R20422   1.657   4.930  10.030 -1.4132  2.3913  0.7146
  179SLPC   H2S20423   1.746   5.068  10.077  1.1408 -1.5305  1.6396
  179SLPC    C320424   1.946   4.565   9.940 -0.1713 -0.2914 -0.2512
  179SLPC    HX20425   1.838   4.539   9.950  0.0819 -0.4725  2.6353
  179SLPC    HY20426   2.011   4.480   9.970 -0.6156 -0.4982  0.1456
  179SLPC   O3120427   1.981   4.615   9.805  0.1828 -0.0571  0.2903
  179SLPC   C3120428   1.967   4.515   9.714  0.3611  0.6757 -0.1953
  179SLPC   O3220429   1.927   4.402   9.731 -0.0271  0.3941 -0.4745
  179SLPC   C3220430   1.988   4.585   9.574 -0.3628 -0.3771 -0.2361
  179SLPC   H2X20431   2.084   4.640   9.577  0.6076 -2.1277  1.8183
  179SLPC   H2Y20432   1.915   4.669   9.573  0.8489  0.6896  0.3037
  179SLPC   C2320433   1.770   5.039   9.860 -0.7380  0.0173  0.2431
  179SLPC   H3R20434   1.866   5.094   9.856 -0.3104 -0.4898  2.7679
  179SLPC   H3S20435   1.683   5.106   9.844 -0.2778  0.6626  0.4058
  179SLPC   C2420436   1.774   4.934   9.745 -0.5145  0.2927  0.7065
  179SLPC   H4R20437   1.707   4.848   9.766  1.8736 -1.7041  0.4525
  179SLPC   H4S20438   1.878   4.896   9.731 -0.7548 -0.5068  1.0464
  179SLPC   C2520439   1.725   4.992   9.615 -0.1190  0.1993  0.1461
  179SLPC   H5R20440   1.622   5.030   9.634 -1.2774 -3.6809  2.2670
  179SLPC   H5S20441   1.708   4.922   9.530 -0.9111  0.0489  0.4258
  179SLPC   C2620442   1.802   5.109   9.553  0.3165 -0.0016 -0.4841
  179SLPC   H6R20443   1.829   5.181   9.634 -0.1567 -0.7718  0.3736
  179SLPC   H6S20444   1.726   5.147   9.482 -0.3634 -4.2567 -2.1957
  179SLPC   C2720445   1.930   5.079   9.465 -0.9451 -0.0012  0.8079
  179SLPC   H7R20446   2.007   5.052   9.540 -0.3066  1.7441  0.8158
  179SLPC   H7S20447   1.956   5.173   9.411  0.6138 -0.5764  0.5467
  179SLPC   C2820448   1.912   4.961   9.359 -0.3586  0.3809 -0.3847
  179SLPC   H8R20449   1.876   4.863   9.397 -2.2590  1.2916  0.2135
  179SLPC   H8S20450   2.015   4.937   9.324 -0.6772 -0.5988 -0.6771
  179SLPC   C2920451   1.839   5.005   9.236 -0.5429 -0.0588 -0.1183
  179SLPC   H9R20452   1.732   5.026   9.252 -0.7429  1.4508 -3.0824
  179SLPC  C21020453   1.890   5.024   9.108 -0.3842 -0.7734  0.0528
  179SLPC  H10R20454   1.813   5.049   9.034 -0.1176  1.0024  0.3390
  179SLPC  C21120455   2.032   4.998   9.060 -0.2980  1.1815 -0.0176
  179SLPC  H11R20456   2.085   4.916   9.113 -2.7246  1.1996  2.5341
  179SLPC  H11S20457   2.092   5.088   9.088  0.7146  0.6904 -0.5817
  179SLPC  C21220458   2.044   4.975   8.908 -0.8197  0.3940 -0.0552
  179SLPC  H12R20459   2.041   4.869   8.877 -1.5589  0.1619  0.8012
  179SLPC  C21320460   2.094   5.055   8.812  0.7096 -0.0139 -0.1365
  179SLPC  H13R20461   2.098   5.017   8.709  0.6775 -0.5064  0.0467
  179SLPC  C21420462   2.139   5.187   8.842  0.0599 -1.5021 -0.8039
  179SLPC  H14R20463   2.243   5.186   8.882 -0.3389  0.5457  0.3362
  179SLPC  H14S20464   2.080   5.240   8.919  2.1722 -2.6305  1.6828
  179SLPC  C21520465   2.147   5.284   8.719  0.0998  0.3880 -0.2101
  179SLPC  H15R20466   2.167   5.382   8.767  0.1667 -0.2746  1.1687
  179SLPC  H15S20467   2.045   5.281   8.675  0.5225  0.0347 -1.1720
  179SLPC  C21620468   2.251   5.253   8.611 -0.1796  0.2171  0.0609
  179SLPC  H16R20469   2.233   5.151   8.569  0.9060 -0.0584  0.2560
  179SLPC  H16S20470   2.351   5.234   8.656 -0.9227 -2.2992  0.7408
  179SLPC  C21720471   2.276   5.359   8.507  0.2025 -0.3937 -0.1407
  179SLPC  H17R20472   2.379   5.364   8.464 -0.4331  1.3248 -1.4827
  179SLPC  H17S20473   2.249   5.456   8.552 -0.0666 -1.5556  2.3174
  179SLPC  C21820474   2.182   5.356   8.383  0.1332  0.0919  0.0524
  179SLPC  H18R20475   2.179   5.256   8.335 -0.3595 -0.6314  1.5601
  179SLPC  H18S20476   2.221   5.429   8.307 -0.4837 -0.9536 -1.2871
  179SLPC  H18T20477   2.081   5.388   8.415  0.7931  1.8976  0.3874
  179SLPC   C3320478   1.987   4.488   9.454  0.5673 -0.5834  0.3489
  179SLPC   H3X20479   1.895   4.426   9.457 -0.1122  0.4421  0.8464
  179SLPC   H3Y20480   2.074   4.419   9.453 -0.3539 -1.7592 -0.0826
  179SLPC   C3420481   1.975   4.572   9.324  0.3819 -0.0008 -0.5593
  179SLPC   H4X20482   2.039   4.661   9.341  0.6160 -0.4251  0.8589
  179SLPC   H4Y20483   1.874   4.613   9.305 -0.6900 -2.0032  0.6804
  179SLPC   C3520484   2.005   4.481   9.206  0.5940 -0.2994  0.2192
  179SLPC   H5X20485   1.969   4.379   9.231 -1.6891  0.6504  0.9351
  179SLPC   H5Y20486   2.116   4.477   9.208  0.6704  1.0717 -0.8509
  179SLPC   C3620487   1.946   4.538   9.076 -0.0491 -0.9426  0.6420
  179SLPC   H6X20488   1.965   4.644   9.051 -1.7166  0.3850  4.6393
  179SLPC   H6Y20489   1.836   4.546   9.087  0.0771  0.8779  0.7251
  179SLPC   C3720490   1.996   4.451   8.955  0.2189  0.2027  0.1262
  179SLPC   H7X20491   1.971   4.345   8.975 -0.4915  0.2984 -0.2395
  179SLPC   H7Y20492   2.105   4.471   8.942  0.0177  0.3383 -1.4217
  179SLPC   C3820493   1.923   4.485   8.820  0.1352 -0.5014 -0.7258
  179SLPC   H8X20494   1.944   4.591   8.796 -1.4057  0.1481  0.7224
  179SLPC   H8Y20495   1.812   4.481   8.823  0.1691 -2.0206 -1.0623
  179SLPC   C3920496   1.966   4.385   8.708  0.1826  0.1288 -0.4400
  179SLPC   H9X20497   1.916   4.287   8.723 -3.4362  1.8235 -0.7937
  179SLPC   H9Y20498   2.076   4.367   8.712  0.9546  4.2823 -0.8079
  179SLPC  C31020499   1.915   4.422   8.568 -0.0979 -0.6747 -0.2597
  179SLPC  H10X20500   1.809   4.455   8.565  0.1918  0.1379 -2.0973
  179SLPC  H10Y20501   1.926   4.322   8.522 -3.4259 -1.6698  1.0023
  179SLPC  C31120502   2.002   4.517   8.499 -0.2119  0.4605 -0.7183
  179SLPC  H11X20503   2.108   4.503   8.530 -0.2684  1.0292 -0.2723
  179SLPC  H11Y20504   1.969   4.620   8.523 -2.9965  0.1499 -2.9883
  179SLPC  C31220505   1.995   4.495   8.345 -0.0315 -0.2613 -0.5017
  179SLPC  H12X20506   1.888   4.474   8.323 -0.9944  2.7050  1.1308
  179SLPC  H12Y20507   2.038   4.398   8.311 -0.1321 -0.8495  0.9914
  179SLPC  C31320508   2.052   4.606   8.255  0.5289  0.5958  1.1573
  179SLPC  H13X20509   2.043   4.562   8.153  1.4536 -0.2732  1.4389
  179SLPC  H13Y20510   2.162   4.607   8.271  0.6651  1.9020  0.2489
  179SLPC  C31420511   1.971   4.730   8.259 -0.2805  0.0020 -0.3043
  179SLPC  H14X20512   1.912   4.737   8.353 -3.0874  1.0433 -2.0490
  179SLPC  H14Y20513   1.913   4.724   8.164  0.5864  0.4324 -0.8614
  179SLPC  C31520514   2.070   4.848   8.251 -0.3012  0.3215 -0.0950
  179SLPC  H15X20515   2.110   4.845   8.148 -1.5309  0.7228 -0.5913
  179SLPC  H15Y20516   2.152   4.838   8.325 -0.1723  3.0472  0.1903
  179SLPC  C31620517   2.001   4.982   8.280  0.8495  0.4004 -0.6478
  179SLPC  H16X20518   1.922   5.004   8.206  0.4055 -0.3864 -0.4128
  179SLPC  H16Y20519   2.082   5.058   8.273  2.1360 -0.8643  0.0708
  179SLPC  C31720520   1.942   5.000   8.424  0.1550  0.2251 -0.1854
  179SLPC  H17X20521   2.026   4.966   8.488  0.1557  1.8572  0.7220
  179SLPC  H17Y20522   1.851   4.941   8.448  0.5286 -0.7032 -1.0312
  179SLPC  C31820523   1.901   5.139   8.457  0.2742 -0.0295  0.1019
  179SLPC  H18X20524   1.975   5.206   8.409 -0.0022  1.1904  1.3184
  179SLPC  H18Y20525   1.909   5.151   8.567  1.9343 -0.3532  0.0162
  179SLPC  H18Z20526   1.798   5.166   8.425  1.2338  1.1429 -2.0667
  180SLPC     N20527   2.323   2.338  10.816 -0.5212 -0.5322  0.1413
  180SLPC   C1320528   2.241   2.231  10.871  0.8082 -0.2863  0.1379
  180SLPC  H13A20529   2.289   2.162  10.939 -0.6100  0.4625  1.9465
  180SLPC  H13B20530   2.153   2.274  10.916 -1.6297 -5.2327  0.3578
  180SLPC  H13C20531   2.198   2.179  10.787  0.8417 -0.2551  0.1024
  180SLPC   C1420532   2.385   2.418  10.916 -0.6711 -0.6169  0.1295
  180SLPC  H14A20533   2.451   2.498  10.886 -2.7179  1.2798  0.5082
  180SLPC  H14B20534   2.305   2.465  10.972  0.5758  0.9586  0.6310
  180SLPC  H14C20535   2.453   2.365  10.981  1.0857  1.5439  0.1293
  180SLPC   C1520536   2.242   2.429  10.731  0.0350 -0.3317  0.8294
  180SLPC  H15A20537   2.208   2.376  10.643  1.1776 -0.0231  0.1906
  180SLPC  H15B20538   2.161   2.476  10.785 -1.3489 -1.3374 -0.2972
  180SLPC  H15C20539   2.310   2.501  10.688 -0.9167  0.9638  1.4782
  180SLPC   C1220540   2.436   2.271  10.736  0.6967  0.1211  0.2986
  180SLPC  H12A20541   2.406   2.172  10.704 -0.3770  1.2692 -2.3869
  180SLPC  H12B20542   2.522   2.257  10.801  2.4005 -0.5188 -2.0102
  180SLPC   C1120543   2.493   2.352  10.617 -0.4265  0.6666 -0.2161
  180SLPC  H11A20544   2.414   2.380  10.544  0.3705  2.2523 -0.5006
  180SLPC  H11B20545   2.555   2.283  10.556  1.7448  3.1405 -0.9375
  180SLPC     P20546   2.710   2.450  10.708 -0.1446  0.1549 -0.0951
  180SLPC   O1320547   2.756   2.579  10.758  0.2142  0.9899 -0.3308
  180SLPC   O1420548   2.713   2.337  10.809  0.9743  0.2607  0.1905
  180SLPC   O1220549   2.568   2.470  10.643  0.1350 -0.1189 -0.5901
  180SLPC   O1120550   2.783   2.402  10.579 -0.1646 -0.3046 -0.2169
  180SLPC    C120551   2.858   2.499  10.503 -0.0792 -0.1569 -0.3186
  180SLPC    HA20552   2.932   2.556  10.564  0.0294 -0.7363  0.0992
  180SLPC    HB20553   2.932   2.436  10.449 -0.9200 -1.0658 -0.4086
  180SLPC    C220554   2.792   2.578  10.383  0.9345  0.6088  0.3773
  180SLPC    HS20555   2.760   2.670  10.436  1.8289  1.3704 -0.3903
  180SLPC   O2120556   2.679   2.507  10.339 -0.0521  0.7154 -0.2238
  180SLPC   C2120557   2.596   2.577  10.270  1.4294  0.0295  0.8705
  180SLPC   O2220558   2.589   2.698  10.270  0.0132 -0.6219 -0.2432
  180SLPC   C2220559   2.506   2.479  10.198  0.3252 -0.0505 -0.0269
  180SLPC   H2R20560   2.564   2.442  10.111  0.9632 -0.1720  0.4512
  180SLPC   H2S20561   2.484   2.386  10.256 -1.5314 -0.0462 -0.6684
  180SLPC    C320562   2.891   2.613  10.262 -0.1652  0.0944 -0.4669
  180SLPC    HX20563   2.980   2.664  10.307 -0.1573 -0.4240  0.1218
  180SLPC    HY20564   2.834   2.687  10.202  2.1664  1.6283 -0.8658
  180SLPC   O3120565   2.934   2.492  10.200  0.2197 -0.4799 -0.4387
  180SLPC   C3120566   2.886   2.468  10.075  0.1575  0.1279 -0.2592
  180SLPC   O3220567   2.809   2.535  10.016  0.2803  0.0136 -0.5445
  180SLPC   C3220568   2.941   2.332  10.027  0.3101 -1.0079  0.2699
  180SLPC   H2X20569   2.879   2.264  10.090 -2.1798 -1.1440 -2.2661
  180SLPC   H2Y20570   3.044   2.311  10.064  1.4764  2.5931 -0.7809
  180SLPC   C2320571   2.369   2.536  10.161 -0.4886 -0.0047  0.5990
  180SLPC   H3R20572   2.372   2.631  10.103  0.2013 -0.0965  0.4818
  180SLPC   H3S20573   2.311   2.562  10.251 -1.9678 -2.8926  0.5381
  180SLPC   C2420574   2.292   2.425  10.088  0.8598 -0.3323  0.2623
  180SLPC   H4R20575   2.297   2.326  10.138  2.0367 -0.0136  0.7792
  180SLPC   H4S20576   2.350   2.402   9.996  1.0238 -2.1838  0.8005
  180SLPC   C2520577   2.140   2.461  10.064 -0.6956  0.3514 -0.3569
  180SLPC   H5R20578   2.095   2.412   9.974  1.7769  1.6448 -2.3761
  180SLPC   H5S20579   2.137   2.568  10.031 -0.4920 -0.1248 -1.9986
  180SLPC   C2620580   2.057   2.435  10.192 -0.5183 -0.1957  0.3099
  180SLPC   H6R20581   2.106   2.489  10.275  2.4804 -0.9553 -0.9074
  180SLPC   H6S20582   2.049   2.324  10.196  1.4448 -0.2787  2.1900
  180SLPC   C2720583   1.911   2.483  10.181  0.1105 -0.1107 -0.2920
  180SLPC   H7R20584   1.857   2.438  10.267  0.7288  0.8386  0.5918
  180SLPC   H7S20585   1.856   2.432  10.098 -0.8919  0.1781  0.1821
  180SLPC   C2820586   1.904   2.632  10.191 -0.0274  0.9069  0.1527
  180SLPC   H8R20587   1.951   2.673  10.099  2.1677 -0.2149  0.7532
  180SLPC   H8S20588   1.981   2.659  10.265  0.1345 -1.0540  0.7472
  180SLPC   C2920589   1.764   2.678  10.223 -0.3811  0.9835  0.1252
  180SLPC   H9R20590   1.720   2.634  10.314  0.8328 -0.8380 -0.1277
  180SLPC  C21020591   1.675   2.753  10.153 -0.3647 -0.0781 -0.7897
  180SLPC  H10R20592   1.575   2.770  10.196  0.0978  0.8201 -0.0649
  180SLPC  C21120593   1.683   2.815  10.015 -0.1501  0.7890 -0.1190
  180SLPC  H11R20594   1.791   2.836  10.000  0.3116 -1.3028  0.1037
  180SLPC  H11S20595   1.639   2.917  10.012 -1.5623  0.3360  3.1953
  180SLPC  C21220596   1.620   2.740   9.908  0.3329 -0.7381 -0.2890
  180SLPC  H12R20597   1.526   2.690   9.933 -0.5391  0.7112 -0.6602
  180SLPC  C21320598   1.675   2.699   9.793 -0.7148 -0.5380 -0.3240
  180SLPC  H13R20599   1.615   2.660   9.710  0.1161  0.3708 -1.3589
  180SLPC  C21420600   1.816   2.735   9.747 -0.1216  0.0257  0.2147
  180SLPC  H14R20601   1.863   2.793   9.829  2.1142 -1.2859 -0.1029
  180SLPC  H14S20602   1.813   2.804   9.661  0.3674 -0.7313 -0.4130
  180SLPC  C21520603   1.897   2.610   9.713 -0.3016  0.2660 -0.1288
  180SLPC  H15R20604   1.860   2.567   9.618  1.5251 -1.5284 -0.0546
  180SLPC  H15S20605   1.892   2.532   9.792  4.7909 -1.1017 -0.9928
  180SLPC  C21620606   2.047   2.624   9.688  0.4068 -0.1579 -0.3266
  180SLPC  H16R20607   2.093   2.536   9.639  0.2651 -0.4901  0.1352
  180SLPC  H16S20608   2.092   2.640   9.789  0.6326  1.3963 -0.6695
  180SLPC  C21720609   2.070   2.741   9.596  0.2335 -0.6227  0.5591
  180SLPC  H17R20610   2.050   2.842   9.636 -0.4300  0.2097 -1.8111
  180SLPC  H17S20611   1.994   2.730   9.516 -1.3707  1.1626  1.7898
  180SLPC  C21820612   2.210   2.719   9.534 -0.3147 -0.4376  0.6261
  180SLPC  H18R20613   2.255   2.804   9.478 -1.4435 -0.7527 -0.7723
  180SLPC  H18S20614   2.210   2.632   9.465 -0.7999  0.4371 -0.5057
  180SLPC  H18T20615   2.277   2.705   9.622  0.1650 -1.5598  0.0865
  180SLPC   C3320616   2.931   2.302   9.879  0.6607 -0.1180 -0.1420
  180SLPC   H3X20617   2.941   2.401   9.830  0.5186  1.2852  2.6302
  180SLPC   H3Y20618   2.828   2.262   9.865  2.1003 -4.5148  1.0721
  180SLPC   C3420619   3.029   2.194   9.824 -0.4365  0.2141  1.2326
  180SLPC   H4X20620   3.019   2.103   9.887 -1.0625 -0.5996 -0.0391
  180SLPC   H4Y20621   3.133   2.234   9.824 -0.9127  1.4987  1.7534
  180SLPC   C3520622   2.994   2.153   9.677  0.3734 -0.4183  0.2229
  180SLPC   H5X20623   3.086   2.100   9.645  0.7041  0.1419  0.2406
  180SLPC   H5Y20624   2.988   2.242   9.611  0.0163  1.0395  2.1781
  180SLPC   C3620625   2.870   2.072   9.650  0.2402  0.5585  0.8206
  180SLPC   H6X20626   2.782   2.140   9.651 -0.7737 -0.7242  0.3220
  180SLPC   H6Y20627   2.859   1.985   9.718 -1.7844  1.7458  2.0672
  180SLPC   C3720628   2.895   2.022   9.501 -0.5178 -0.2346 -0.4932
  180SLPC   H7X20629   2.996   1.978   9.507 -0.2973 -0.2465 -3.3229
  180SLPC   H7Y20630   2.902   2.110   9.433  0.0419 -0.1922 -0.3774
  180SLPC   C3820631   2.797   1.922   9.445  0.0063 -1.2246  0.0544
  180SLPC   H8X20632   2.716   1.980   9.397  0.3810  0.5105  1.4439
  180SLPC   H8Y20633   2.745   1.877   9.532 -0.6186 -0.9783 -0.1892
  180SLPC   C3920634   2.845   1.814   9.348  0.4683  0.7402 -0.4773
  180SLPC   H9X20635   2.755   1.756   9.317  0.7029 -0.6795  1.4276
  180SLPC   H9Y20636   2.903   1.727   9.384 -0.5574 -0.0586 -0.7321
  180SLPC  C31020637   2.921   1.879   9.230  0.1150  0.3310 -0.3603
  180SLPC  H10X20638   3.025   1.895   9.265 -0.0857  0.2400  0.2815
  180SLPC  H10Y20639   2.877   1.973   9.189  0.4951 -0.4353 -2.5720
  180SLPC  C31120640   2.944   1.784   9.115  0.3336 -0.6068 -0.2417
  180SLPC  H11X20641   3.012   1.702   9.146  1.3954 -1.2590 -4.0958
  180SLPC  H11Y20642   2.996   1.848   9.041 -0.4404 -0.4310 -0.6343
  180SLPC  C31220643   2.813   1.728   9.054 -0.3707 -0.1261 -0.4554
  180SLPC  H12X20644   2.732   1.799   9.080 -1.9008 -0.9038 -2.8447
  180SLPC  H12Y20645   2.793   1.635   9.110 -0.7207  0.0225 -0.3274
  180SLPC  C31320646   2.798   1.711   8.906 -0.0376 -0.2630 -0.2964
  180SLPC  H13X20647   2.848   1.614   8.887  0.2184 -0.8779  3.1616
  180SLPC  H13Y20648   2.851   1.783   8.839  1.2147 -0.5366  0.3824
  180SLPC  C31420649   2.651   1.716   8.868  0.4198 -0.0535  0.2515
  180SLPC  H14X20650   2.598   1.812   8.885 -1.3179 -0.5189 -2.2444
  180SLPC  H14Y20651   2.603   1.644   8.937  1.6774  0.2795  1.5106
  180SLPC  C31520652   2.625   1.657   8.734  0.5317  0.6190  0.2659
  180SLPC  H15X20653   2.674   1.558   8.724 -3.3495 -1.2776 -1.1295
  180SLPC  H15Y20654   2.679   1.719   8.659 -0.2740  1.5505  0.4334
  180SLPC  C31620655   2.475   1.652   8.707  0.7299  0.1337  0.4118
  180SLPC  H16X20656   2.444   1.755   8.682  1.4978 -0.3864 -2.9393
  180SLPC  H16Y20657   2.423   1.614   8.797  0.4051 -1.3801 -0.3842
  180SLPC  C31720658   2.444   1.554   8.594 -0.8246  0.2524  0.5226
  180SLPC  H17X20659   2.451   1.450   8.634 -0.9558  0.3984  0.9256
  180SLPC  H17Y20660   2.513   1.569   8.508 -0.8472 -1.8139  0.1217
  180SLPC  C31820661   2.303   1.579   8.529 -0.0260 -0.1573  0.2710
  180SLPC  H18X20662   2.227   1.535   8.598 -1.3949  2.3071  0.3969
  180SLPC  H18Y20663   2.290   1.524   8.433  0.8895 -1.7969  1.0607
  180SLPC  H18Z20664   2.273   1.684   8.513 -0.5652 -0.2677  0.5139
  181SLPC     N20665   6.379   5.407  11.104  0.0029 -0.2955  0.0024
  181SLPC   C1320666   6.394   5.309  11.218  0.3507 -0.6782  0.2606
  181SLPC  H13A20667   6.299   5.301  11.268  0.3092  0.0388  0.3026
  181SLPC  H13B20668   6.412   5.210  11.180  0.1797  0.2989 -2.5264
  181SLPC  H13C20669   6.472   5.327  11.290 -0.5906  0.5321  0.9977
  181SLPC   C1420670   6.266   5.358  11.017  0.1856 -0.1269  0.1965
  181SLPC  H14A20671   6.286   5.263  10.970  0.5944 -1.6054  3.2222
  181SLPC  H14B20672   6.179   5.333  11.075  1.4172  0.8411  2.5378
  181SLPC  H14C20673   6.246   5.441  10.951  0.9166 -0.0629  0.0512
  181SLPC   C1520674   6.510   5.421  11.034  0.0150 -0.8882  0.3112
  181SLPC  H15A20675   6.549   5.333  10.985  1.3024 -0.6583  0.9079
  181SLPC  H15B20676   6.494   5.492  10.955  0.7080 -1.3215 -0.2263
  181SLPC  H15C20677   6.579   5.465  11.104  0.3057  1.3598 -1.3449
  181SLPC   C1220678   6.350   5.548  11.158 -0.0632  0.9435 -0.7718
  181SLPC  H12A20679   6.427   5.566  11.231  1.4048  0.0698 -2.0860
  181SLPC  H12B20680   6.258   5.559  11.214  0.2284  0.9136 -0.2845
  181SLPC   C1120681   6.335   5.666  11.056  0.9036 -0.5823 -0.1144
  181SLPC  H11A20682   6.408   5.664  10.973 -0.4603  2.3852 -1.4567
  181SLPC  H11B20683   6.357   5.762  11.108  1.5749  0.6403 -2.5696
  181SLPC     P20684   6.080   5.718  11.064 -0.0063  0.2639  0.2306
  181SLPC   O1320685   5.967   5.626  11.041 -0.1315  0.4873 -0.7013
  181SLPC   O1420686   6.100   5.750  11.206 -0.0887  0.1957 -0.6037
  181SLPC   O1220687   6.207   5.664  10.990  0.7588 -0.3398  0.4435
  181SLPC   O1120688   6.050   5.860  11.002 -0.1512  0.3030 -0.4790
  181SLPC    C120689   6.137   5.903  10.895  0.2205  0.1588  0.1390
  181SLPC    HA20690   6.244   5.910  10.924  0.2310 -1.8557  0.6707
  181SLPC    HB20691   6.122   5.838  10.806 -1.3051  0.8889 -0.1558
  181SLPC    C220692   6.105   6.046  10.843 -0.1246  0.1280  0.2367
  181SLPC    HS20693   6.130   6.114  10.927 -0.0238 -0.3174  0.5666
  181SLPC   O2120694   5.972   6.054  10.808 -0.0518  0.6870 -0.3201
  181SLPC   C2120695   5.911   6.166  10.831  0.1407 -0.0803 -0.7385
  181SLPC   O2220696   5.956   6.262  10.890  0.2182  0.1064  0.0249
  181SLPC   C2220697   5.763   6.165  10.772 -0.2084 -0.4752  0.8863
  181SLPC   H2R20698   5.715   6.104  10.851  1.3748 -1.6750  0.9555
  181SLPC   H2S20699   5.716   6.266  10.773  0.1861 -0.2942  1.1863
  181SLPC    C320700   6.197   6.093  10.728 -0.4135  0.2256  0.4264
  181SLPC    HX20701   6.298   6.058  10.759 -0.0917  1.9908  1.4817
  181SLPC    HY20702   6.210   6.203  10.725 -1.6194  0.3297 -2.8803
  181SLPC   O3120703   6.161   6.048  10.588 -0.6755  0.2269 -0.5567
  181SLPC   C3120704   6.220   6.105  10.485 -0.3768  0.9333  0.2863
  181SLPC   O3220705   6.292   6.202  10.487 -0.0564  0.1732  0.1834
  181SLPC   C3220706   6.185   6.020  10.365 -0.2022  0.0219  0.0959
  181SLPC   H2X20707   6.074   6.020  10.352 -0.2281  1.5648  0.2195
  181SLPC   H2Y20708   6.203   5.914  10.395 -0.0919  0.2664  0.9004
  181SLPC   C2320709   5.751   6.113  10.627  0.5248  0.1625 -0.1952
  181SLPC   H3R20710   5.644   6.088  10.615  0.1677 -0.3334  3.3881
  181SLPC   H3S20711   5.809   6.018  10.625 -1.0617 -0.8144 -0.1244
  181SLPC   C2420712   5.796   6.203  10.516  0.5482 -0.6324  0.0384
  181SLPC   H4R20713   5.820   6.157  10.418  4.3751 -0.4735  0.8398
  181SLPC   H4S20714   5.896   6.230  10.557  1.2048 -2.0859 -0.5561
  181SLPC   C2520715   5.716   6.327  10.492 -0.0499 -0.7165  0.2423
  181SLPC   H5R20716   5.720   6.391  10.583  1.3151  0.8216 -0.8710
  181SLPC   H5S20717   5.609   6.304  10.471 -0.6817  0.7158  1.7451
  181SLPC   C2620718   5.772   6.411  10.372 -0.0741 -0.5231 -0.3085
  181SLPC   H6R20719   5.882   6.397  10.370 -0.1996 -1.5601 -0.4371
  181SLPC   H6S20720   5.747   6.518  10.392 -0.5040 -1.1331  2.6890
  181SLPC   C2720721   5.729   6.372  10.228 -0.3094 -0.9545  0.0876
  181SLPC   H7R20722   5.625   6.384  10.193 -0.3055 -0.3255  0.2820
  181SLPC   H7S20723   5.757   6.265  10.219 -0.0070 -0.9803  1.2244
  181SLPC   C2820724   5.808   6.452  10.114  0.1462 -0.1551  0.9014
  181SLPC   H8R20725   5.812   6.407  10.012 -1.9169 -0.0926  0.7812
  181SLPC   H8S20726   5.913   6.458  10.151  0.6486  2.1533 -0.7644
  181SLPC   C2920727   5.744   6.585  10.094  0.2599 -0.5882 -0.2178
  181SLPC   H9R20728   5.699   6.632  10.183  2.3104  2.7503 -0.8728
  181SLPC  C21020729   5.732   6.658   9.987 -0.1196 -0.2263  0.9771
  181SLPC  H10R20730   5.681   6.755   9.997  0.2494  0.2850 -1.8669
  181SLPC  C21120731   5.770   6.621   9.846  1.1980 -0.0686 -0.5096
  181SLPC  H11R20732   5.686   6.569   9.795  1.0848  1.8254 -2.3366
  181SLPC  H11S20733   5.856   6.552   9.860  1.6190  0.4258 -0.6223
  181SLPC  C21220734   5.815   6.747   9.777 -0.2042 -0.3459 -0.3142
  181SLPC  H12R20735   5.799   6.842   9.830  0.8723  0.8797 -2.1398
  181SLPC  C21320736   5.871   6.757   9.653 -0.0875 -0.2143  0.0682
  181SLPC  H13R20737   5.888   6.858   9.612 -2.2821  0.4870  0.7813
  181SLPC  C21420738   5.902   6.638   9.563  0.0654 -0.1849  0.3015
  181SLPC  H14R20739   5.868   6.663   9.460  0.3615 -0.8522  0.0360
  181SLPC  H14S20740   5.861   6.541   9.599  1.6839 -1.0728 -0.2092
  181SLPC  C21520741   6.061   6.640   9.546  0.3715 -0.1201  0.3655
  181SLPC  H15R20742   6.100   6.636   9.650  0.8963 -0.1688  0.1659
  181SLPC  H15S20743   6.097   6.736   9.503  2.1772 -0.6160  0.7385
  181SLPC  C21620744   6.113   6.519   9.469 -0.0976 -0.2700  0.0646
  181SLPC  H16R20745   6.043   6.434   9.474 -1.4397  0.8477  0.4513
  181SLPC  H16S20746   6.214   6.492   9.508 -1.0241 -1.6600  1.5814
  181SLPC  C21720747   6.143   6.550   9.317 -0.3166 -0.2992  0.3887
  181SLPC  H17R20748   6.222   6.627   9.301  1.5878 -2.1834  0.4080
  181SLPC  H17S20749   6.043   6.584   9.284 -0.0103 -0.5279 -0.7848
  181SLPC  C21820750   6.200   6.426   9.255 -0.0775 -0.0192  0.8234
  181SLPC  H18R20751   6.298   6.395   9.298 -0.0466 -1.7088 -0.4261
  181SLPC  H18S20752   6.215   6.429   9.145  2.7861 -1.1642  1.1404
  181SLPC  H18T20753   6.136   6.338   9.278  1.9322 -1.9145 -0.5769
  181SLPC   C3320754   6.247   6.057  10.224 -0.3299  0.3684 -0.5989
  181SLPC   H3X20755   6.284   5.964  10.177 -0.4542  0.3724 -0.7042
  181SLPC   H3Y20756   6.335   6.125  10.231 -1.4378  1.6146  1.7864
  181SLPC   C3420757   6.159   6.137  10.116 -0.4902  0.0459  0.2746
  181SLPC   H4X20758   6.136   6.241  10.147 -1.4509 -0.0203 -0.2014
  181SLPC   H4Y20759   6.062   6.090  10.089 -0.7066 -0.5167  1.9674
  181SLPC   C3520760   6.233   6.156   9.977 -0.3205 -0.2608 -1.1202
  181SLPC   H5X20761   6.273   6.056   9.950  2.1775  0.1892  0.6563
  181SLPC   H5Y20762   6.325   6.213  10.000 -0.9179  0.1874  0.2557
  181SLPC   C3620763   6.147   6.213   9.869 -0.4080  0.3108 -0.6307
  181SLPC   H6X20764   6.115   6.314   9.903  2.9732  1.8066 -1.5843
  181SLPC   H6Y20765   6.056   6.150   9.859 -0.6414  0.6947 -0.9418
  181SLPC   C3720766   6.209   6.225   9.733 -0.7666 -0.5965  0.0957
  181SLPC   H7X20767   6.292   6.298   9.737 -0.5710 -0.8630  1.1641
  181SLPC   H7Y20768   6.139   6.270   9.660 -1.0229  0.1960  0.8264
  181SLPC   C3820769   6.264   6.091   9.672 -0.7191  0.7479 -0.0551
  181SLPC   H8X20770   6.193   6.009   9.698  0.3836 -0.0441  0.5283
  181SLPC   H8Y20771   6.360   6.073   9.726  0.9494  1.5860 -2.6636
  181SLPC   C3920772   6.290   6.099   9.527  0.1429 -0.8843 -0.1354
  181SLPC   H9X20773   6.363   6.183   9.526  0.4025 -1.1097 -0.1193
  181SLPC   H9Y20774   6.197   6.134   9.477  0.1002  1.2607  1.3614
  181SLPC  C31020775   6.332   5.961   9.469  0.0812 -0.2226 -0.0573
  181SLPC  H10X20776   6.256   5.894   9.513 -0.7886  1.3843  0.9296
  181SLPC  H10Y20777   6.434   5.929   9.500 -0.0236  0.5028  1.1001
  181SLPC  C31120778   6.313   5.963   9.318 -0.1466  0.2053 -0.1067
  181SLPC  H11X20779   6.371   6.047   9.274 -1.0752  0.8773 -0.0592
  181SLPC  H11Y20780   6.205   5.983   9.305  0.1341  2.6608  1.1449
  181SLPC  C31220781   6.346   5.833   9.252  0.4402  0.3002 -0.8748
  181SLPC  H12X20782   6.295   5.749   9.304  1.6070  0.1801  0.0901
  181SLPC  H12Y20783   6.448   5.792   9.263  1.5661  2.6120 -2.2669
  181SLPC  C31320784   6.299   5.845   9.108  0.8716 -0.0669  0.2270
  181SLPC  H13X20785   6.354   5.924   9.052  0.7800 -2.5593 -3.5378
  181SLPC  H13Y20786   6.189   5.864   9.111  0.9000  0.3764 -1.1280
  181SLPC  C31420787   6.332   5.714   9.032 -0.6379  0.2515 -0.1159
  181SLPC  H14X20788   6.280   5.627   9.077  1.0816 -0.2253  1.0048
  181SLPC  H14Y20789   6.441   5.693   9.039 -0.7070  0.7811  3.0892
  181SLPC  C31520790   6.299   5.721   8.879 -0.1779 -0.2795  0.2811
  181SLPC  H15X20791   6.333   5.813   8.826 -2.4684  0.9343  0.8672
  181SLPC  H15Y20792   6.190   5.704   8.881 -0.1220 -0.6939 -0.2680
  181SLPC  C31620793   6.361   5.610   8.795  0.3002  0.4527 -0.2956
  181SLPC  H16X20794   6.311   5.608   8.695 -0.7487 -0.7623  0.2324
  181SLPC  H16Y20795   6.333   5.520   8.854 -0.1059  0.8078  0.0611
  181SLPC  C31720796   6.511   5.601   8.769 -0.1450  0.3783 -0.6036
  181SLPC  H17X20797   6.527   5.501   8.724  0.3723  0.0338  0.3370
  181SLPC  H17Y20798   6.567   5.601   8.865 -1.4433 -2.6554  0.1988
  181SLPC  C31820799   6.568   5.721   8.691 -0.4016  0.2318 -0.0548
  181SLPC  H18X20800   6.526   5.722   8.588 -0.5263 -2.9516 -0.0774
  181SLPC  H18Y20801   6.678   5.714   8.681 -0.4189 -0.2737  0.1251
  181SLPC  H18Z20802   6.559   5.822   8.737 -0.3553  0.3966 -0.4054
  182SLPC     N20803   4.007   0.477  11.104 -0.1307  0.1229 -0.3817
  182SLPC   C1320804   4.029   0.598  11.185 -0.3869 -0.4194  0.5477
  182SLPC  H13A20805   4.049   0.682  11.121  0.9581  0.0092  1.5110
  182SLPC  H13B20806   3.946   0.640  11.240 -0.6383 -1.6500  1.1308
  182SLPC  H13C20807   4.110   0.594  11.256 -0.3506  0.7906  0.5901
  182SLPC   C1420808   3.890   0.506  11.016  0.4594  0.4376 -0.1615
  182SLPC  H14A20809   3.904   0.604  10.972 -2.7547  0.5248 -1.0908
  182SLPC  H14B20810   3.872   0.428  10.943 -0.3355  0.7209 -0.2693
  182SLPC  H14C20811   3.791   0.523  11.055  0.6037  1.2199 -0.1240
  182SLPC   C1520812   3.979   0.365  11.198  0.3777 -0.1017  0.3694
  182SLPC  H15A20813   4.054   0.360  11.276  1.2797  0.8402 -0.4192
  182SLPC  H15B20814   3.884   0.373  11.249 -0.5844 -0.9779 -1.2385
  182SLPC  H15C20815   3.973   0.274  11.141  1.9048  0.3144 -0.4940
  182SLPC   C1220816   4.132   0.440  11.022  0.3748 -0.7670  0.0985
  182SLPC  H12A20817   4.108   0.343  10.980  1.3264 -1.9627  2.2219
  182SLPC  H12B20818   4.217   0.415  11.084  1.2779  0.6749 -0.5122
  182SLPC   C1120819   4.183   0.544  10.924  0.0254  0.4535  0.3951
  182SLPC  H11A20820   4.100   0.580  10.859 -0.6108 -0.0900  0.9064
  182SLPC  H11B20821   4.250   0.497  10.848 -0.1918  0.9843 -0.1243
  182SLPC     P20822   4.385   0.646  11.032  0.4484 -0.0552 -0.0539
  182SLPC   O1320823   4.420   0.753  11.129  0.0386  0.3517  0.3541
  182SLPC   O1420824   4.415   0.511  11.085 -0.4731  0.0673 -0.2062
  182SLPC   O1220825   4.234   0.658  10.987 -0.9193  0.2171 -1.2072
  182SLPC   O1120826   4.467   0.672  10.900 -0.1935 -0.2600  0.2785
  182SLPC    C120827   4.492   0.807  10.849  0.1693 -0.4625  0.5288
  182SLPC    HA20828   4.531   0.869  10.932  0.4144  0.6368 -0.4030
  182SLPC    HB20829   4.585   0.794  10.789 -0.4854 -0.5825 -0.4770
  182SLPC    C220830   4.374   0.875  10.775  0.4155  0.3599  0.9514
  182SLPC    HS20831   4.291   0.898  10.845 -0.8159 -1.4870  0.1485
  182SLPC   O2120832   4.321   0.776  10.687  0.6697  0.1009 -0.7042
  182SLPC   C2120833   4.200   0.819  10.640 -0.6023  0.4615 -0.2898
  182SLPC   O2220834   4.141   0.918  10.678  0.0734  0.0825 -0.2655
  182SLPC   C2220835   4.144   0.719  10.540  0.3752  0.1152  0.1096
  182SLPC   H2R20836   4.182   0.617  10.565  2.8836  1.2251  0.9077
  182SLPC   H2S20837   4.034   0.718  10.553  0.0631  0.0226 -2.3305
  182SLPC    C320838   4.414   1.015  10.706 -0.2343 -0.0293  0.5434
  182SLPC    HX20839   4.429   1.079  10.796 -0.8865  1.0691 -0.1177
  182SLPC    HY20840   4.331   1.066  10.652  0.8604  2.4176  1.1211
  182SLPC   O3120841   4.538   0.997  10.633 -0.0835 -0.0213 -0.4560
  182SLPC   C3120842   4.529   1.006  10.506  0.2533 -0.3908  0.6739
  182SLPC   O3220843   4.427   1.023  10.437  0.1329  0.0529 -0.0343
  182SLPC   C3220844   4.670   0.990  10.447  0.2304  0.1564 -0.1831
  182SLPC   H2X20845   4.717   0.903  10.497  0.9207  0.4715 -0.2909
  182SLPC   H2Y20846   4.722   1.088  10.452 -1.8612  1.3650 -1.3749
  182SLPC   C2320847   4.201   0.755  10.407  0.1860 -0.0087  0.2409
  182SLPC   H3R20848   4.310   0.736  10.402 -0.0389 -0.7725 -2.0573
  182SLPC   H3S20849   4.180   0.858  10.371  2.6185 -0.2130 -1.8445
  182SLPC   C2420850   4.131   0.670  10.296  0.3998 -0.3317 -0.3046
  182SLPC   H4R20851   4.143   0.716  10.196 -1.7561 -0.3960 -0.6081
  182SLPC   H4S20852   4.023   0.653  10.316  0.8820 -0.1093  2.8304
  182SLPC   C2520853   4.200   0.530  10.278  0.1844  0.0992 -0.5610
  182SLPC   H5R20854   4.216   0.470  10.370 -3.8824 -1.7163 -0.9337
  182SLPC   H5S20855   4.300   0.554  10.237  1.3971 -0.2075  2.1359
  182SLPC   C2620856   4.137   0.432  10.180 -0.2087 -0.0279  0.2356
  182SLPC   H6R20857   4.137   0.479  10.079 -2.4281  1.1476  0.7370
  182SLPC   H6S20858   4.033   0.410  10.212 -0.4223 -0.1026 -0.4944
  182SLPC   C2720859   4.209   0.294  10.178 -0.4186  0.3861 -0.3720
  182SLPC   H7R20860   4.227   0.256  10.281  3.1092  0.4387 -0.8884
  182SLPC   H7S20861   4.312   0.309  10.140 -1.0464  0.1578 -2.1905
  182SLPC   C2820862   4.136   0.194  10.092  1.0741  0.0053 -0.8528
  182SLPC   H8R20863   4.142   0.228   9.987  1.2850 -1.1587 -1.2310
  182SLPC   H8S20864   4.030   0.201  10.123  1.5922 -0.2877  1.0973
  182SLPC   C2920865   4.184   0.054  10.115  0.0530  0.3079  0.5815
  182SLPC   H9R20866   4.165   0.006  10.212  1.3017  1.3573  1.3596
  182SLPC  C21020867   4.252  -0.025  10.025 -0.1385 -0.0634  0.3188
  182SLPC  H10R20868   4.296  -0.117  10.066  1.6936  1.0102  0.8144
  182SLPC  C21120869   4.290   0.015   9.886  0.1206  0.5023 -0.2170
  182SLPC  H11R20870   4.199   0.055   9.835 -0.0424 -0.3057 -0.5730
  182SLPC  H11S20871   4.305  -0.079   9.829 -1.3600 -0.8337  1.5575
  182SLPC  C21220872   4.408   0.110   9.876 -1.0346 -0.6472 -0.8992
  182SLPC  H12R20873   4.380   0.210   9.837  0.8774  0.2254 -0.0988
  182SLPC  C21320874   4.536   0.082   9.901 -0.2643 -0.6618 -0.4190
  182SLPC  H13R20875   4.609   0.164   9.896  0.4654 -1.0749  2.5793
  182SLPC  C21420876   4.593  -0.049   9.944 -0.4637  0.2706 -0.0741
  182SLPC  H14R20877   4.509  -0.114   9.976  0.2748 -0.4257  0.4563
  182SLPC  H14S20878   4.670  -0.034  10.023 -1.8110 -0.1575  1.3341
  182SLPC  C21520879   4.669  -0.141   9.835  0.0733 -0.6196  0.5637
  182SLPC  H15R20880   4.603  -0.152   9.746  1.3969 -0.1227 -0.4913
  182SLPC  H15S20881   4.679  -0.243   9.877 -2.5257 -1.4470 -0.6992
  182SLPC  C21620882   4.800  -0.079   9.795 -0.0078  0.2149 -0.5691
  182SLPC  H16R20883   4.803   0.030   9.817  2.1105  0.3646 -1.4913
  182SLPC  H16S20884   4.792  -0.091   9.685 -0.6462 -0.3482 -0.4692
  182SLPC  C21720885   4.925  -0.154   9.845  0.2222  0.3313  0.0039
  182SLPC  H17R20886   4.908  -0.166   9.954 -1.5831 -4.0786 -0.6825
  182SLPC  H17S20887   5.011  -0.084   9.831 -1.7498  2.4970 -1.6346
  182SLPC  C21820888   4.954  -0.293   9.778 -0.5827 -0.1351  0.4682
  182SLPC  H18R20889   5.059  -0.329   9.787 -1.0416 -1.2549  1.6375
  182SLPC  H18S20890   4.923  -0.290   9.671  1.2216 -1.3764 -0.1100
  182SLPC  H18T20891   4.888  -0.372   9.822 -0.0063 -0.3350  0.9787
  182SLPC   C3320892   4.662   0.952  10.296  0.3449  0.2651  0.6649
  182SLPC   H3X20893   4.615   1.033  10.237  0.2753 -0.2297  0.0330
  182SLPC   H3Y20894   4.591   0.869  10.275 -0.8702  1.7305 -1.1239
  182SLPC   C3420895   4.797   0.923  10.227 -0.8047 -0.1834  0.2504
  182SLPC   H4X20896   4.862   0.847  10.276 -0.0557 -2.0407 -3.4757
  182SLPC   H4Y20897   4.845   1.024  10.224  0.7711 -0.9100  0.4008
  182SLPC   C3520898   4.785   0.894  10.069 -0.3194 -0.4712 -0.4614
  182SLPC   H5X20899   4.737   0.794  10.056  0.9712 -1.2763  0.7534
  182SLPC   H5Y20900   4.884   0.880  10.020 -0.4264 -1.3311 -0.4382
  182SLPC   C3620901   4.710   1.003  10.001  0.0773  0.7337 -0.1152
  182SLPC   H6X20902   4.737   1.103  10.041 -0.1290  0.7231  0.0498
  182SLPC   H6Y20903   4.604   0.997  10.032 -0.3275  0.3739 -1.5262
  182SLPC   C3720904   4.737   1.005   9.849 -0.5188 -0.1017 -0.5247
  182SLPC   H7X20905   4.835   1.053   9.829  0.7333 -2.3862 -0.0455
  182SLPC   H7Y20906   4.658   1.066   9.800  0.1618  0.7025 -0.6280
  182SLPC   C3820907   4.730   0.867   9.779  0.2475 -0.2303 -0.5265
  182SLPC   H8X20908   4.637   0.813   9.806 -0.0138 -0.9645 -2.7842
  182SLPC   H8Y20909   4.803   0.790   9.810 -0.2362 -0.7195 -0.5931
  182SLPC   C3920910   4.754   0.886   9.628 -0.1543 -0.0194  0.3738
  182SLPC   H9X20911   4.846   0.947   9.615 -1.5153  1.7459 -1.2277
  182SLPC   H9Y20912   4.676   0.941   9.573  0.5175 -3.4854 -4.3958
  182SLPC  C31020913   4.752   0.748   9.560 -0.0732  0.0061  1.0021
  182SLPC  H10X20914   4.647   0.721   9.533  1.1613 -0.3006 -3.9543
  182SLPC  H10Y20915   4.797   0.671   9.626  1.0465 -1.2432 -1.1867
  182SLPC  C31120916   4.829   0.750   9.424 -0.8946 -0.7703 -0.4048
  182SLPC  H11X20917   4.787   0.836   9.368  0.8075 -0.3825 -1.1073
  182SLPC  H11Y20918   4.811   0.656   9.367 -1.7546 -0.8966  0.0701
  182SLPC  C31220919   4.990   0.752   9.437  0.3724  0.2906  0.0843
  182SLPC  H12X20920   5.029   0.697   9.526 -0.2823 -2.9536 -1.5732
  182SLPC  H12Y20921   5.019   0.859   9.448 -0.4617  0.4423  0.8771
  182SLPC  C31320922   5.060   0.679   9.321 -0.1363 -0.1065 -0.1892
  182SLPC  H13X20923   5.018   0.723   9.229 -2.4907  0.6222  1.1908
  182SLPC  H13Y20924   5.033   0.572   9.325  0.7802 -0.3994 -1.6847
  182SLPC  C31420925   5.215   0.689   9.331 -0.3239  0.7023 -0.3931
  182SLPC  H14X20926   5.255   0.598   9.380 -1.0111  0.0234 -1.0907
  182SLPC  H14Y20927   5.239   0.778   9.394 -2.3648  1.0471 -0.0570
  182SLPC  C31520928   5.271   0.711   9.197  0.1583  0.1427  0.0036
  182SLPC  H15X20929   5.239   0.812   9.165 -0.8985  0.0336  0.7022
  182SLPC  H15Y20930   5.224   0.640   9.125  1.8726 -0.3989 -0.6091
  182SLPC  C31620931   5.424   0.703   9.186  0.6418 -0.1171 -0.3374
  182SLPC  H16X20932   5.457   0.615   9.245 -1.5220  0.3963  1.7574
  182SLPC  H16Y20933   5.458   0.789   9.247  0.6370 -0.2800 -0.1049
  182SLPC  C31720934   5.474   0.702   9.042 -0.4431 -0.1821  0.4523
  182SLPC  H17X20935   5.456   0.608   8.986  0.8781 -0.8316  1.1000
  182SLPC  H17Y20936   5.583   0.712   9.056 -0.6961  3.3962  0.4320
  182SLPC  C31820937   5.425   0.830   8.974 -0.5453  0.4105 -0.0047
  182SLPC  H18X20938   5.469   0.838   8.872  0.4541 -2.2644  0.1738
  182SLPC  H18Y20939   5.455   0.919   9.034 -1.0773  1.6011 -1.4588
  182SLPC  H18Z20940   5.315   0.846   8.968 -0.9455 -2.1353  0.1497
  183SLPC     N20941   5.365   0.828  10.971  0.2896 -0.2580 -0.4924
  183SLPC   C1320942   5.394   0.777  11.108 -0.7655 -0.3114 -0.4747
  183SLPC  H13A20943   5.310   0.745  11.167 -1.0049  0.6524 -0.2971
  183SLPC  H13B20944   5.458   0.691  11.096  0.7327  0.5980  0.8075
  183SLPC  H13C20945   5.462   0.844  11.158 -0.2154 -0.9245 -0.3828
  183SLPC   C1420946   5.305   0.963  10.994  0.0419  0.5793 -0.5460
  183SLPC  H14A20947   5.287   1.011  10.899 -0.8986  0.4479 -0.4375
  183SLPC  H14B20948   5.209   0.958  11.042  0.4185  0.4527  0.2130
  183SLPC  H14C20949   5.370   1.021  11.059  0.3211 -1.8933  1.4337
  183SLPC   C1520950   5.272   0.738  10.897  0.1587  0.0412  0.2526
  183SLPC  H15A20951   5.231   0.788  10.811  2.1956  0.3763 -0.5628
  183SLPC  H15B20952   5.308   0.641  10.865 -1.2442  0.3290 -2.2540
  183SLPC  H15C20953   5.185   0.716  10.957  0.7247 -1.4420  0.5568
  183SLPC   C1220954   5.493   0.835  10.889 -0.2286  0.2992  0.2541
  183SLPC  H12A20955   5.536   0.736  10.884  0.2909  0.5923 -1.5546
  183SLPC  H12B20956   5.564   0.901  10.938 -1.3829  0.7468  1.3365
  183SLPC   C1120957   5.485   0.891  10.746 -0.1368  0.4562 -0.5791
  183SLPC  H11A20958   5.398   0.854  10.688 -0.2744 -0.6181  0.3215
  183SLPC  H11B20959   5.573   0.847  10.693 -0.3696 -1.8257  0.9084
  183SLPC     P20960   5.605   1.119  10.797 -0.0955 -0.0194  0.2831
  183SLPC   O1320961   5.533   1.244  10.849  0.2657  0.0855 -0.4538
  183SLPC   O1420962   5.684   1.050  10.900 -0.2520 -0.2607  0.2821
  183SLPC   O1220963   5.494   1.031  10.734 -0.4036  0.5943 -0.2728
  183SLPC   O1120964   5.707   1.149  10.679 -0.3410  0.1870  0.7259
  183SLPC    C120965   5.679   1.226  10.562  0.0456 -0.1920  0.0940
  183SLPC    HA20966   5.664   1.332  10.592  1.8235  0.2805 -0.6007
  183SLPC    HB20967   5.771   1.216  10.500 -1.0902 -2.3013 -1.3282
  183SLPC    C220968   5.568   1.168  10.466 -0.0191 -0.0892 -0.4776
  183SLPC    HS20969   5.462   1.161  10.500 -0.7234  0.9098 -2.3474
  183SLPC   O2120970   5.609   1.033  10.443  0.2597 -0.3138  0.1327
  183SLPC   C2120971   5.521   0.964  10.371  0.0540 -0.2027  0.0022
  183SLPC   O2220972   5.403   0.991  10.353 -0.2413 -0.3498  0.1792
  183SLPC   C2220973   5.589   0.839  10.322 -0.2602  0.7558 -0.4159
  183SLPC   H2R20974   5.699   0.846  10.337 -0.0042 -0.6850 -1.6165
  183SLPC   H2S20975   5.546   0.756  10.382  0.1311 -0.0724 -1.2865
  183SLPC    C320976   5.562   1.254  10.336  0.4357  0.0195 -0.0909
  183SLPC    HX20977   5.552   1.361  10.365  0.5697 -0.2780  1.0899
  183SLPC    HY20978   5.479   1.218  10.272  2.4322 -1.4845 -1.9224
  183SLPC   O3120979   5.683   1.234  10.258 -0.0791 -0.2510 -0.3908
  183SLPC   C3120980   5.683   1.313  10.141 -0.5523  0.8655 -0.2894
  183SLPC   O3220981   5.598   1.395  10.113 -0.3061  0.4596 -0.0089
  183SLPC   C3220982   5.798   1.268  10.060  0.0049 -0.4035 -0.2673
  183SLPC   H2X20983   5.801   1.159  10.078  1.4596 -0.4559 -0.7872
  183SLPC   H2Y20984   5.894   1.315  10.088 -0.8440  0.9545  0.4238
  183SLPC   C2320985   5.567   0.806  10.175 -0.1597  0.2227 -0.5534
  183SLPC   H3R20986   5.460   0.776  10.167  0.3278 -1.9367  0.6804
  183SLPC   H3S20987   5.634   0.722  10.145  0.6137  1.1937 -1.6222
  183SLPC   C2420988   5.603   0.920  10.076 -0.8659  0.1468 -0.5129
  183SLPC   H4R20989   5.697   0.966  10.114  0.2852 -1.6881 -1.0395
  183SLPC   H4S20990   5.528   1.001  10.074  1.5024  2.4374  0.1676
  183SLPC   C2520991   5.627   0.853   9.938 -0.0659  0.4878 -0.4560
  183SLPC   H5R20992   5.536   0.806   9.895 -0.9608  0.2435  1.6535
  183SLPC   H5S20993   5.697   0.767   9.953  0.3782  0.5526 -1.9914
  183SLPC   C2620994   5.679   0.947   9.835 -0.4136  0.1634 -0.2549
  183SLPC   H6R20995   5.781   0.983   9.858 -0.1821 -0.4421 -0.3264
  183SLPC   H6S20996   5.607   1.031   9.835  1.4728  1.8039  0.0992
  183SLPC   C2720997   5.697   0.893   9.693 -0.5771  0.1686  0.1942
  183SLPC   H7R20998   5.601   0.846   9.664 -1.3675 -0.0941  3.0648
  183SLPC   H7S20999   5.776   0.815   9.699 -1.9814 -1.3265 -0.3825
  183SLPC   C2821000   5.731   1.001   9.583 -0.0549  0.5031  0.4050
  183SLPC   H8R21001   5.841   1.011   9.572 -0.0505  0.0975  0.0574
  183SLPC   H8S21002   5.689   1.092   9.631  1.1548  0.7019  1.1136
  183SLPC   C2921003   5.666   0.945   9.453  0.5230  0.6657  0.2054
  183SLPC   H9R21004   5.619   0.846   9.453 -2.2119  1.9016 -0.0814
  183SLPC  C21021005   5.636   1.025   9.348  1.1106  0.3839  0.2792
  183SLPC  H10R21006   5.606   0.975   9.254  1.7564  1.3905 -0.4733
  183SLPC  C21121007   5.680   1.174   9.342 -0.2801 -0.3152  0.2196
  183SLPC  H11R21008   5.696   1.207   9.446 -0.9414 -0.2519  0.3062
  183SLPC  H11S21009   5.594   1.230   9.299 -0.0771 -1.1903 -1.3719
  183SLPC  C21221010   5.803   1.170   9.258 -0.3054  0.2450 -0.4297
  183SLPC  H12R21011   5.902   1.161   9.305 -0.7134  0.4620  0.4880
  183SLPC  C21321012   5.807   1.197   9.129  0.2785 -0.3705  0.2541
  183SLPC  H13R21013   5.904   1.191   9.076 -1.5937 -0.4386 -3.3365
  183SLPC  C21421014   5.692   1.232   9.041  0.3595 -0.2954 -0.1976
  183SLPC  H14R21015   5.667   1.341   9.037  1.9284  0.1088  0.5680
  183SLPC  H14S21016   5.601   1.185   9.083 -0.4856  1.4505  0.0054
  183SLPC  C21521017   5.722   1.172   8.908 -0.0505 -0.8025 -0.1515
  183SLPC  H15R21018   5.633   1.185   8.842  1.8942 -2.3957 -3.2238
  183SLPC  H15S21019   5.738   1.062   8.907 -0.4989 -0.9211  2.6011
  183SLPC  C21621020   5.851   1.244   8.842  0.3255  0.0303  0.2955
  183SLPC  H16R21021   5.942   1.200   8.888 -1.2055 -1.3733  2.0514
  183SLPC  H16S21022   5.845   1.351   8.871  0.1225  0.0231  0.2835
  183SLPC  C21721023   5.864   1.222   8.690  1.0618 -0.4129 -0.3405
  183SLPC  H17R21024   5.963   1.263   8.662  0.8329  0.2313 -0.2212
  183SLPC  H17S21025   5.785   1.288   8.648  0.1101 -0.3390  1.4884
  183SLPC  C21821026   5.863   1.072   8.650  0.7444 -0.3997 -0.1817
  183SLPC  H18R21027   5.887   1.063   8.542 -0.0425  1.6343 -0.5569
  183SLPC  H18S21028   5.763   1.027   8.667 -0.6587  1.8091 -2.2189
  183SLPC  H18T21029   5.938   1.022   8.714  1.4357  2.2151  1.1524
  183SLPC   C3321030   5.767   1.285   9.908 -0.0271  0.1477  0.1893
  183SLPC   H3X21031   5.659   1.268   9.889 -0.1336 -0.5526  1.3294
  183SLPC   H3Y21032   5.811   1.205   9.846 -1.3947 -0.0099 -0.5861
  183SLPC   C3421033   5.814   1.424   9.856 -0.0155  1.8101  0.7621
  183SLPC   H4X21034   5.919   1.430   9.892  1.1608 -0.1409 -2.1276
  183SLPC   H4Y21035   5.757   1.505   9.906 -0.1413  2.5517 -0.5497
  183SLPC   C3521036   5.807   1.428   9.701  0.3793 -0.1049 -0.1578
  183SLPC   H5X21037   5.812   1.329   9.651  0.1118 -0.5977  0.7759
  183SLPC   H5Y21038   5.889   1.495   9.667  0.5973  0.7274  1.8991
  183SLPC   C3621039   5.686   1.495   9.641  0.3298 -0.1665 -0.0096
  183SLPC   H6X21040   5.662   1.595   9.683 -1.2724 -0.7770  0.5654
  183SLPC   H6Y21041   5.598   1.433   9.668 -0.0382  0.8048  1.0755
  183SLPC   C3721042   5.708   1.515   9.494  0.2752 -0.0364  1.0715
  183SLPC   H7X21043   5.762   1.423   9.461 -0.8280 -0.6688  0.9911
  183SLPC   H7Y21044   5.779   1.597   9.472 -0.6502  0.5766  0.3401
  183SLPC   C3821045   5.581   1.523   9.413 -0.0616  0.1699  0.3363
  183SLPC   H8X21046   5.539   1.620   9.447 -1.0150  0.4680 -1.6346
  183SLPC   H8Y21047   5.509   1.446   9.449 -0.6918  0.6552  0.1183
  183SLPC   C3921048   5.592   1.516   9.260 -0.5769  0.3957  1.0806
  183SLPC   H9X21049   5.489   1.527   9.219 -0.4182  0.4793  0.7035
  183SLPC   H9Y21050   5.634   1.418   9.227  1.3937  1.6052 -0.1178
  183SLPC  C31021051   5.681   1.622   9.212  0.3384 -0.3493 -0.2916
  183SLPC  H10X21052   5.788   1.611   9.239  0.6038 -1.9400 -1.8284
  183SLPC  H10Y21053   5.637   1.717   9.249  2.0379  0.0355  0.7706
  183SLPC  C31121054   5.676   1.627   9.057 -0.5475 -0.3898 -0.0248
  183SLPC  H11X21055   5.731   1.544   9.008  0.6822 -0.6789  1.8337
  183SLPC  H11Y21056   5.731   1.722   9.036 -0.2686 -0.5440  0.0147
  183SLPC  C31221057   5.534   1.646   8.995  0.1356  0.0103  0.0619
  183SLPC  H12X21058   5.477   1.729   9.042 -2.3660 -2.9602  2.5266
  183SLPC  H12Y21059   5.473   1.556   9.021  1.3890 -1.7015 -2.7256
  183SLPC  C31321060   5.534   1.655   8.839 -0.1786  0.3360  0.3585
  183SLPC  H13X21061   5.631   1.629   8.792 -0.1489  0.0642  0.5697
  183SLPC  H13Y21062   5.537   1.764   8.817  0.6978  0.0618 -0.9637
  183SLPC  C31421063   5.414   1.583   8.776  0.5842 -0.3726 -0.0551
  183SLPC  H14X21064   5.327   1.616   8.835  0.2206 -0.5540 -0.4891
  183SLPC  H14Y21065   5.418   1.473   8.779  1.9027 -0.2902  2.0147
  183SLPC  C31521066   5.386   1.621   8.629  0.7710 -0.2875  0.6108
  183SLPC  H15X21067   5.306   1.564   8.577  1.9237  0.2070 -1.7592
  183SLPC  H15Y21068   5.482   1.596   8.577  0.9234  0.5893  0.4711
  183SLPC  C31621069   5.347   1.767   8.613 -0.9753 -0.3969 -0.2939
  183SLPC  H16X21070   5.446   1.817   8.612 -0.6774 -0.9637  0.3446
  183SLPC  H16Y21071   5.283   1.796   8.699  0.9016  2.0428  0.3069
  183SLPC  C31721072   5.268   1.810   8.493 -0.1838  0.4778 -0.6138
  183SLPC  H17X21073   5.165   1.789   8.528 -0.0420 -0.1603 -0.5731
  183SLPC  H17Y21074   5.297   1.751   8.403 -4.5290  0.3461 -2.0276
  183SLPC  C31821075   5.282   1.956   8.452  0.1706  0.9211 -0.3077
  183SLPC  H18X21076   5.198   1.981   8.384 -1.0103 -2.6933 -0.3022
  183SLPC  H18Y21077   5.380   1.969   8.401  0.4879  0.0711  0.0705
  183SLPC  H18Z21078   5.278   2.025   8.538 -0.2586  0.1743  0.2815
  184SLPC     N21079   2.121   5.631  10.862  0.4651 -0.3947  1.3279
  184SLPC   C1321080   2.215   5.587  10.756 -0.4894  0.3892  0.0367
  184SLPC  H13A21081   2.179   5.517  10.682  0.3853  0.1222 -0.1443
  184SLPC  H13B21082   2.262   5.668  10.703  0.6314  1.3423  2.3774
  184SLPC  H13C21083   2.290   5.524  10.802  0.4060 -0.4293 -2.5035
  184SLPC   C1421084   2.215   5.675  10.968  0.3213  0.2638  0.1916
  184SLPC  H14A21085   2.276   5.758  10.937  0.7901 -1.3984 -3.6408
  184SLPC  H14B21086   2.161   5.702  11.057 -2.2934  0.2520 -1.3308
  184SLPC  H14C21087   2.281   5.593  10.995 -2.3091 -1.5305  1.3701
  184SLPC   C1521088   2.045   5.515  10.918  0.2819 -0.2228  0.2604
  184SLPC  H15A21089   1.999   5.548  11.009 -0.5992  1.1274 -0.6562
  184SLPC  H15B21090   1.978   5.471  10.844 -1.9846  0.2375  1.9949
  184SLPC  H15C21091   2.116   5.437  10.942  0.9513 -0.1807 -1.4569
  184SLPC   C1221092   2.029   5.743  10.814 -1.1051 -0.2616  0.0979
  184SLPC  H12A21093   2.095   5.829  10.809 -0.6270 -0.7450 -3.0652
  184SLPC  H12B21094   1.950   5.765  10.885 -0.6063  1.2781  0.1927
  184SLPC   C1121095   1.961   5.720  10.681  0.3250  0.4316  0.2767
  184SLPC  H11A21096   2.035   5.699  10.602  2.5388  0.0042  2.3992
  184SLPC  H11B21097   1.917   5.817  10.649 -2.1362 -0.9767 -0.7639
  184SLPC     P21098   1.737   5.628  10.776  0.2157 -0.2927  0.4981
  184SLPC   O1321099   1.749   5.516  10.873  0.1475 -0.1825  0.3895
  184SLPC   O1421100   1.742   5.770  10.821 -0.0615 -0.3301 -0.1257
  184SLPC   O1221101   1.865   5.612  10.681  0.1139  0.5735 -0.9114
  184SLPC   O1121102   1.619   5.607  10.676  0.2021 -0.1687  0.1377
  184SLPC    C121103   1.634   5.679  10.548 -0.1561 -0.2853 -0.1924
  184SLPC    HA21104   1.619   5.790  10.545  0.5842 -0.1366  1.1719
  184SLPC    HB21105   1.735   5.669  10.502 -0.4921  2.9991 -1.8805
  184SLPC    C221106   1.543   5.614  10.440 -1.2880 -0.4145  0.5160
  184SLPC    HS21107   1.558   5.504  10.443  1.6872 -0.0732 -0.0159
  184SLPC   O2121108   1.578   5.672  10.315  0.7355  0.0482 -0.2645
  184SLPC   C2121109   1.555   5.591  10.211 -0.3290 -0.2865 -0.3771
  184SLPC   O2221110   1.549   5.467  10.218  0.1618  0.1284  0.1206
  184SLPC   C2221111   1.538   5.675  10.088 -0.0969  0.8048  0.3241
  184SLPC   H2R21112   1.430   5.701  10.084 -0.3189 -0.3335 -1.5261
  184SLPC   H2S21113   1.589   5.771  10.111 -0.0329  1.1918 -1.3188
  184SLPC    C321114   1.397   5.655  10.482  0.1483  0.0456 -0.3083
  184SLPC    HX21115   1.388   5.766  10.480 -2.7652 -0.1295  0.8798
  184SLPC    HY21116   1.382   5.619  10.586 -0.2688  1.4601  0.1340
  184SLPC   O3121117   1.302   5.608  10.384 -0.1311 -0.4765 -0.0762
  184SLPC   C3121118   1.184   5.580  10.429  0.1484  0.1025 -0.5843
  184SLPC   O3221119   1.140   5.604  10.540  0.0249 -0.0083  0.0408
  184SLPC   C3221120   1.110   5.521  10.309  0.5637 -0.0947  0.0535
  184SLPC   H2X21121   1.009   5.497  10.348  1.5836 -0.9768  2.2773
  184SLPC   H2Y21122   1.166   5.428  10.285  0.6962  0.0699 -0.2818
  184SLPC   C2321123   1.586   5.610   9.956 -0.4931  0.1737 -0.8512
  184SLPC   H3R21124   1.545   5.508   9.941 -0.6841  0.1503 -0.1792
  184SLPC   H3S21125   1.696   5.600   9.961 -0.7506 -2.6286 -0.2849
  184SLPC   C2421126   1.536   5.700   9.835  0.3727  0.5018 -0.2371
  184SLPC   H4R21127   1.518   5.807   9.860 -0.0336  0.0296  1.5592
  184SLPC   H4S21128   1.434   5.665   9.806  0.5114  1.3977 -1.8418
  184SLPC   C2521129   1.623   5.691   9.715  0.5799 -0.4687 -1.0092
  184SLPC   H5R21130   1.592   5.589   9.682 -1.2725 -0.9964  2.1109
  184SLPC   H5S21131   1.731   5.704   9.736  0.7753  1.6627 -3.1325
  184SLPC   C2621132   1.582   5.795   9.608  0.0744 -0.6080  0.0582
  184SLPC   H6R21133   1.611   5.898   9.639  0.6632 -0.5194 -0.7818
  184SLPC   H6S21134   1.471   5.802   9.601 -0.0240  0.7666  2.3764
  184SLPC   C2721135   1.633   5.768   9.469 -0.9244  0.2536  0.0613
  184SLPC   H7R21136   1.575   5.679   9.437 -0.5446 -1.5466  4.0837
  184SLPC   H7S21137   1.737   5.731   9.466 -1.3490 -0.9505  0.0158
  184SLPC   C2821138   1.616   5.884   9.370 -0.0484 -0.0012  0.3118
  184SLPC   H8R21139   1.684   5.964   9.405 -1.9655  1.1615  1.4600
  184SLPC   H8S21140   1.512   5.922   9.376 -0.7605 -1.7878 -0.4589
  184SLPC   C2921141   1.650   5.844   9.226 -0.0898  0.2418  0.5895
  184SLPC   H9R21142   1.756   5.860   9.202 -0.2622 -0.5574 -0.7486
  184SLPC  C21021143   1.567   5.806   9.124 -0.6228 -0.5390  0.1673
  184SLPC  H10R21144   1.602   5.782   9.023 -0.6850  0.9338 -0.2263
  184SLPC  C21121145   1.418   5.787   9.134 -0.0793 -0.9114 -0.1593
  184SLPC  H11R21146   1.366   5.821   9.042  2.4752  1.0160 -0.9613
  184SLPC  H11S21147   1.381   5.849   9.219  0.9415 -0.9858  0.3527
  184SLPC  C21221148   1.375   5.643   9.159 -0.2334  0.1772  0.9182
  184SLPC  H12R21149   1.416   5.600   9.251  2.0400  0.4638  0.0576
  184SLPC  C21321150   1.295   5.572   9.073  0.2507 -0.4699  0.0165
  184SLPC  H13R21151   1.267   5.472   9.109 -0.4951  0.1761  1.2936
  184SLPC  C21421152   1.226   5.607   8.942  0.3573 -0.7269  0.7915
  184SLPC  H14R21153   1.188   5.711   8.944  0.8794 -0.5460  1.7601
  184SLPC  H14S21154   1.150   5.531   8.914  2.1524 -2.4542  0.4649
  184SLPC  C21521155   1.329   5.600   8.827 -1.0486  0.0278 -0.0130
  184SLPC  H15R21156   1.357   5.494   8.840  3.2826  1.0562 -0.0850
  184SLPC  H15S21157   1.409   5.675   8.844 -1.4478  0.6576 -0.8814
  184SLPC  C21621158   1.272   5.628   8.690  0.6353 -0.2087 -0.3997
  184SLPC  H16R21159   1.222   5.726   8.702  1.4543  0.0170  1.4254
  184SLPC  H16S21160   1.195   5.551   8.667  0.0854 -0.1122  1.0711
  184SLPC  C21721161   1.374   5.616   8.577 -0.6525  0.2602 -0.7311
  184SLPC  H17R21162   1.411   5.511   8.573  1.3543  0.9398 -0.5574
  184SLPC  H17S21163   1.463   5.679   8.595  0.5356 -1.7493  0.5707
  184SLPC  C21821164   1.301   5.644   8.447  0.4599 -0.2268  0.0587
  184SLPC  H18R21165   1.239   5.736   8.453 -2.3338 -2.1425  1.0782
  184SLPC  H18S21166   1.236   5.559   8.418 -2.4812  2.3827 -1.2225
  184SLPC  H18T21167   1.380   5.643   8.368 -0.5715  1.1675 -1.0326
  184SLPC   C3321168   1.103   5.612  10.185 -0.8638 -0.2597  0.5748
  184SLPC   H3X21169   1.193   5.677  10.190  0.9110 -2.6698  1.0128
  184SLPC   H3Y21170   1.013   5.678  10.189 -1.3636 -0.9177  0.2872
  184SLPC   C3421171   1.120   5.537  10.049  0.3992 -0.3212 -0.1085
  184SLPC   H4X21172   1.046   5.455  10.044 -2.1281  1.7323  1.9879
  184SLPC   H4Y21173   1.221   5.489  10.051  0.6320  0.1338 -0.7774
  184SLPC   C3521174   1.115   5.608   9.913 -0.6266 -0.0171 -0.3498
  184SLPC   H5X21175   1.195   5.685   9.916 -1.2416  0.5873  1.6281
  184SLPC   H5Y21176   1.017   5.657   9.895 -2.1249 -1.9576  2.1598
  184SLPC   C3621177   1.135   5.509   9.796  0.2113  0.5336  0.0981
  184SLPC   H6X21178   1.053   5.436   9.781  2.8465 -2.3532 -0.7179
  184SLPC   H6Y21179   1.228   5.448   9.801 -0.6638 -0.6562  3.0081
  184SLPC   C3721180   1.139   5.586   9.663  0.1637 -0.1715  0.5997
  184SLPC   H7X21181   1.207   5.674   9.673  1.2261 -0.7370 -1.3090
  184SLPC   H7Y21182   1.043   5.635   9.638  1.7758  2.9993  0.3011
  184SLPC   C3821183   1.174   5.513   9.532  0.1111  0.5378  0.0558
  184SLPC   H8X21184   1.145   5.567   9.440  1.8988 -1.1635 -1.5412
  184SLPC   H8Y21185   1.104   5.427   9.535  0.4466  0.2633  0.1500
  184SLPC   C3921186   1.325   5.466   9.529 -0.8600  0.0642 -0.3208
  184SLPC   H9X21187   1.366   5.445   9.630  1.5058 -1.5993 -1.5719
  184SLPC   H9Y21188   1.391   5.548   9.491  1.0577 -1.6661 -0.7999
  184SLPC  C31021189   1.346   5.337   9.450 -0.1765 -0.2494  0.5411
  184SLPC  H10X21190   1.269   5.338   9.370  0.9813 -1.5056 -0.6253
  184SLPC  H10Y21191   1.316   5.259   9.524 -2.5284 -0.9752 -1.1119
  184SLPC  C31121192   1.493   5.305   9.421 -0.2912 -1.4390  0.1941
  184SLPC  H11X21193   1.548   5.273   9.512 -0.3663 -1.1026  0.3608
  184SLPC  H11Y21194   1.545   5.401   9.401 -2.7670  0.4218  2.2331
  184SLPC  C31221195   1.516   5.199   9.313 -0.6421 -0.2387 -0.6238
  184SLPC  H12X21196   1.446   5.114   9.318  2.2740 -2.7183 -0.2390
  184SLPC  H12Y21197   1.622   5.165   9.316 -0.1481  1.1427 -1.7405
  184SLPC  C31321198   1.495   5.250   9.164 -0.5897  0.2644  0.3350
  184SLPC  H13X21199   1.583   5.315   9.149  0.0646 -0.9137 -1.0796
  184SLPC  H13Y21200   1.404   5.313   9.171 -0.2299  0.5906  2.5180
  184SLPC  C31421201   1.480   5.137   9.065  0.5713  0.1464  0.1101
  184SLPC  H14X21202   1.410   5.073   9.124  1.2446  1.0642  1.9531
  184SLPC  H14Y21203   1.571   5.082   9.036  0.8664 -0.7018  2.4856
  184SLPC  C31521204   1.411   5.172   8.932 -0.2540 -0.3750  0.3868
  184SLPC  H15X21205   1.470   5.255   8.888 -1.0552  1.3203  2.4172
  184SLPC  H15Y21206   1.316   5.224   8.956 -1.2681 -1.8153 -0.4201
  184SLPC  C31621207   1.394   5.055   8.830 -0.1593  0.0694  0.0868
  184SLPC  H16X21208   1.333   4.975   8.879 -1.3168 -0.6226 -2.3986
  184SLPC  H16Y21209   1.495   5.015   8.806  0.5477  2.5785 -1.2300
  184SLPC  C31721210   1.318   5.095   8.709  0.2960 -0.0699  0.5703
  184SLPC  H17X21211   1.248   5.174   8.745  0.5727  0.8414 -0.8499
  184SLPC  H17Y21212   1.250   5.012   8.680 -0.7112  0.2262  2.0001
  184SLPC  C31821213   1.396   5.131   8.581  0.3850  0.1236  1.0624
  184SLPC  H18X21214   1.328   5.152   8.496  0.4588 -0.8755  0.7376
  184SLPC  H18Y21215   1.456   5.046   8.541  0.1373  0.9226 -1.0481
  184SLPC  H18Z21216   1.458   5.219   8.608  1.9197 -0.9158  1.0198
  185SLPC     N21217   6.576   1.825   6.666 -0.1142 -0.1063  0.4719
  185SLPC   C1321218   6.631   1.943   6.738 -0.4806 -0.6447 -0.0743
  185SLPC  H13A21219   6.677   1.922   6.832 -0.8315  0.2122  0.3008
  185SLPC  H13B21220   6.697   2.002   6.676 -0.2888 -0.5385  0.2328
  185SLPC  H13C21221   6.549   2.004   6.774 -1.4046 -1.9125  0.0180
  185SLPC   C1421222   6.686   1.732   6.626  0.3353 -0.1281 -0.6448
  185SLPC  H14A21223   6.766   1.792   6.586 -0.7780  0.3096 -2.2477
  185SLPC  H14B21224   6.721   1.683   6.716  3.3813 -2.0071 -2.7452
  185SLPC  H14C21225   6.661   1.668   6.543  0.6410 -0.5190 -0.4408
  185SLPC   C1521226   6.519   1.877   6.530  0.4442 -0.5132 -0.2710
  185SLPC  H15A21227   6.418   1.916   6.539 -0.2369 -2.5780  1.3539
  185SLPC  H15B21228   6.583   1.956   6.495  1.3138 -1.1349 -0.1042
  185SLPC  H15C21229   6.523   1.796   6.459  0.4652  1.0194 -2.0246
  185SLPC   C1221230   6.473   1.747   6.748 -0.5412 -0.1189  1.1149
  185SLPC  H12A21231   6.513   1.719   6.844  0.2901  0.4941  0.9540
  185SLPC  H12B21232   6.446   1.658   6.693 -1.1584  1.0482 -0.5147
  185SLPC   C1121233   6.338   1.818   6.780  0.4912 -0.0013  0.5555
  185SLPC  H11A21234   6.352   1.924   6.811  0.6749 -0.5923  2.5382
  185SLPC  H11B21235   6.289   1.773   6.869 -1.8524 -1.3409 -1.3499
  185SLPC     P21236   6.168   1.703   6.626  0.1666 -0.2254  0.1867
  185SLPC   O1321237   6.137   1.719   6.482 -0.0041 -0.1962 -0.8307
  185SLPC   O1421238   6.236   1.578   6.668 -0.3186 -0.4416 -1.2063
  185SLPC   O1221239   6.247   1.831   6.671 -0.3709  0.0760 -0.5395
  185SLPC   O1121240   6.036   1.711   6.711  0.3636  0.3569 -0.2009
  185SLPC    C121241   5.977   1.825   6.777  0.0111 -0.0958  0.3436
  185SLPC    HA21242   6.020   1.917   6.732  2.0979 -2.0769 -1.8619
  185SLPC    HB21243   5.868   1.830   6.755  0.1627 -0.4870 -0.5164
  185SLPC    C221244   6.001   1.825   6.923  0.0934 -0.2523 -0.4754
  185SLPC    HS21245   6.111   1.832   6.931 -0.1848  1.8820  2.1673
  185SLPC   O2121246   5.963   1.693   6.971  0.3182 -0.5320  0.2958
  185SLPC   C2121247   6.043   1.635   7.060  0.4441 -0.2623  0.4398
  185SLPC   O2221248   6.138   1.685   7.113  0.0213 -0.0019  0.4567
  185SLPC   C2221249   5.977   1.504   7.100  0.2676  0.9706  0.0976
  185SLPC   H2R21250   5.951   1.453   7.004 -0.7494  1.7542 -0.0534
  185SLPC   H2S21251   6.060   1.441   7.139  0.5245  1.3746  0.1914
  185SLPC    C321252   5.942   1.942   6.995  0.0835 -0.3231  0.5553
  185SLPC    HX21253   5.833   1.925   6.983  0.3097 -0.9093 -0.7036
  185SLPC    HY21254   5.954   2.043   6.949 -0.6546 -1.2571 -1.7232
  185SLPC   O3121255   5.973   1.948   7.135  0.1781 -0.6239  0.6448
  185SLPC   C3121256   6.097   1.991   7.169  0.2163  0.2670 -0.2687
  185SLPC   O3221257   6.184   2.033   7.093 -0.5412  0.7749 -0.3763
  185SLPC   C3221258   6.128   1.961   7.316  0.3102 -0.1259  0.0686
  185SLPC   H2X21259   6.132   1.850   7.320  2.5611 -0.1857 -2.5509
  185SLPC   H2Y21260   6.043   2.003   7.375 -0.3230 -1.8432  0.3898
  185SLPC   C2321261   5.859   1.518   7.199  0.3944 -0.0791 -0.4042
  185SLPC   H3R21262   5.836   1.417   7.239  0.9513  0.4888  1.3801
  185SLPC   H3S21263   5.772   1.559   7.144  0.3209  0.1677 -0.1031
  185SLPC   C2421264   5.879   1.609   7.327 -0.1122 -0.0496 -0.4265
  185SLPC   H4R21265   5.789   1.600   7.391 -0.0769 -0.7339 -0.4789
  185SLPC   H4S21266   5.888   1.717   7.300 -3.3712  0.6739  1.1469
  185SLPC   C2521267   6.005   1.565   7.402  0.4396  0.2507 -0.3729
  185SLPC   H5R21268   6.100   1.562   7.344 -0.2880 -2.4191 -1.4820
  185SLPC   H5S21269   5.987   1.462   7.440  1.3804 -0.3875 -1.5965
  185SLPC   C2621270   6.034   1.655   7.520  0.0809  0.3109  0.9565
  185SLPC   H6R21271   5.941   1.692   7.567 -1.9125 -0.5937 -2.1526
  185SLPC   H6S21272   6.077   1.748   7.478  0.2253 -1.0341 -1.9638
  185SLPC   C2721273   6.126   1.591   7.623 -0.4835  0.1653 -0.0356
  185SLPC   H7R21274   6.217   1.557   7.569 -1.8172 -0.3465 -1.9936
  185SLPC   H7S21275   6.080   1.498   7.661  0.0120  0.1819  0.6277
  185SLPC   C2821276   6.157   1.685   7.741 -0.0366 -0.4092 -1.1156
  185SLPC   H8R21277   6.062   1.704   7.795  1.1440  0.6996  0.5992
  185SLPC   H8S21278   6.173   1.782   7.688  0.7331  0.2615  0.3253
  185SLPC   C2921279   6.268   1.643   7.833  0.8528  0.1877 -0.4578
  185SLPC   H9R21280   6.339   1.573   7.787  0.3326 -0.7712  0.1687
  185SLPC  C21021281   6.278   1.677   7.961  0.0204  0.5038  0.1355
  185SLPC  H10R21282   6.358   1.637   8.025 -0.2158 -2.5043 -1.3503
  185SLPC  C21121283   6.187   1.764   8.045  0.7626  0.0809 -0.5839
  185SLPC  H11R21284   6.106   1.807   7.982  0.1666 -1.3307 -0.8109
  185SLPC  H11S21285   6.232   1.861   8.074  0.0344  0.0610  0.6499
  185SLPC  C21221286   6.117   1.706   8.162 -0.0783  0.0465 -1.1342
  185SLPC  H12R21287   6.027   1.649   8.134 -0.5364  1.4128 -2.5702
  185SLPC  C21321288   6.168   1.701   8.290 -0.2206 -0.3095 -0.2409
  185SLPC  H13R21289   6.112   1.659   8.375 -0.0674  2.6106  1.3700
  185SLPC  C21421290   6.303   1.754   8.331 -0.1234  0.0415 -0.0839
  185SLPC  H14R21291   6.354   1.798   8.243 -1.0186  0.5908 -0.3328
  185SLPC  H14S21292   6.368   1.677   8.378  0.8817  1.8011  1.4622
  185SLPC  C21521293   6.290   1.859   8.444 -0.0296  0.6396  0.0432
  185SLPC  H15R21294   6.207   1.822   8.508  0.9495 -0.5685  0.6262
  185SLPC  H15S21295   6.263   1.959   8.405  0.9927  0.2400 -1.7429
  185SLPC  C21621296   6.421   1.861   8.530 -0.1687  0.6849  0.0341
  185SLPC  H16R21297   6.463   1.761   8.553  0.6817  1.2837  1.0845
  185SLPC  H16S21298   6.395   1.906   8.628  3.1470  0.1045  1.2326
  185SLPC  C21721299   6.531   1.945   8.466  0.2472  0.3938  0.5027
  185SLPC  H17R21300   6.495   2.046   8.436  0.6946  0.0385 -1.2648
  185SLPC  H17S21301   6.551   1.876   8.382 -0.7066  0.9266 -0.1659
  185SLPC  C21821302   6.660   1.948   8.551  0.1657  0.0219  0.0374
  185SLPC  H18R21303   6.742   2.002   8.498 -0.7516 -2.1428 -3.7379
  185SLPC  H18S21304   6.689   1.842   8.565  1.6614  0.6108  1.5152
  185SLPC  H18T21305   6.654   2.001   8.649 -0.6443  1.1810 -0.6225
  185SLPC   C3321306   6.261   2.023   7.377  0.5479 -0.8781  0.3127
  185SLPC   H3X21307   6.254   2.130   7.349 -2.2058 -1.2661 -0.6076
  185SLPC   H3Y21308   6.346   1.980   7.319  0.7239 -1.2630  0.8432
  185SLPC   C3421309   6.280   1.988   7.522 -0.3074 -0.4258  0.4795
  185SLPC   H4X21310   6.293   1.878   7.530  3.6271 -0.1357 -1.0750
  185SLPC   H4Y21311   6.185   2.008   7.577 -0.5015 -1.4106  0.5176
  185SLPC   C3521312   6.399   2.078   7.576  0.0695  0.6569 -0.1525
  185SLPC   H5X21313   6.367   2.184   7.575 -4.1995 -0.5378  0.0367
  185SLPC   H5Y21314   6.489   2.055   7.515  0.5105 -0.6209  0.9547
  185SLPC   C3621315   6.423   2.046   7.726 -0.5897  0.3499 -0.6664
  185SLPC   H6X21316   6.445   1.938   7.738 -1.8381 -0.1580 -2.6509
  185SLPC   H6Y21317   6.331   2.061   7.786 -1.3255 -3.5263 -0.6516
  185SLPC   C3721318   6.529   2.134   7.804 -0.8613  0.7608 -0.2704
  185SLPC   H7X21319   6.523   2.239   7.767 -1.5400  2.2441  3.7195
  185SLPC   H7Y21320   6.622   2.085   7.770 -1.7446  0.1154 -1.7826
  185SLPC   C3821321   6.508   2.131   7.952 -0.3824  0.1776  0.5232
  185SLPC   H8X21322   6.514   2.030   7.998 -0.3458 -0.4807 -0.8986
  185SLPC   H8Y21323   6.407   2.172   7.973  1.1844  4.3169  0.2970
  185SLPC   C3921324   6.606   2.224   8.031  0.0532 -0.2004  0.8247
  185SLPC   H9X21325   6.582   2.328   8.002  1.2517 -0.5059 -1.3352
  185SLPC   H9Y21326   6.706   2.205   7.987 -1.1584 -1.8811 -1.3050
  185SLPC  C31021327   6.605   2.216   8.182  0.2769  0.1308  0.1879
  185SLPC  H10X21328   6.646   2.116   8.208  0.4733  0.4241  0.9991
  185SLPC  H10Y21329   6.499   2.213   8.215  0.3747  0.3660  0.5207
  185SLPC  C31121330   6.682   2.327   8.246 -0.1790  0.3398 -0.3009
  185SLPC  H11X21331   6.663   2.427   8.202  1.2906  0.2538 -1.1593
  185SLPC  H11Y21332   6.790   2.300   8.240 -0.3100 -0.2391 -0.0660
  185SLPC  C31221333   6.655   2.325   8.393  0.6077 -0.9374  0.6422
  185SLPC  H12X21334   6.654   2.222   8.436 -3.1115 -0.7624  1.1225
  185SLPC  H12Y21335   6.554   2.367   8.408  0.7928 -0.0912 -0.4210
  185SLPC  C31321336   6.760   2.407   8.469 -0.0041 -0.2842 -0.7206
  185SLPC  H13X21337   6.788   2.487   8.397 -1.3585 -2.4474 -3.7236
  185SLPC  H13Y21338   6.846   2.339   8.485  1.1805  1.3262 -0.0865
  185SLPC  C31421339   6.717   2.445   8.607  0.3974  0.0498  0.4009
  185SLPC  H14X21340   6.686   2.362   8.675 -0.1525 -1.1750 -1.3011
  185SLPC  H14Y21341   6.626   2.506   8.587  0.2118 -1.0602 -2.3850
  185SLPC  C31521342   6.818   2.535   8.683  0.0887  0.2870  0.1521
  185SLPC  H15X21343   6.842   2.609   8.605  1.6851 -0.1766  0.1862
  185SLPC  H15Y21344   6.913   2.485   8.713  0.5696  0.1673 -1.5084
  185SLPC  C31621345   6.759   2.603   8.809 -0.0236 -0.7463  0.5437
  185SLPC  H16X21346   6.748   2.527   8.890 -1.4390 -1.5696 -0.3925
  185SLPC  H16Y21347   6.661   2.651   8.792 -0.4015 -1.2364  1.3242
  185SLPC  C31721348   6.846   2.707   8.887 -0.2093  0.4039  0.3423
  185SLPC  H17X21349   6.871   2.790   8.818  0.0102  0.4549  0.4843
  185SLPC  H17Y21350   6.937   2.649   8.914 -0.8012 -0.9391 -0.4611
  185SLPC  C31821351   6.799   2.751   9.023 -0.2258 -0.6055 -1.2646
  185SLPC  H18X21352   6.887   2.797   9.072 -1.4970 -1.7676  2.2729
  185SLPC  H18Y21353   6.777   2.656   9.076  1.0706 -0.4792 -0.4838
  185SLPC  H18Z21354   6.710   2.818   9.018  0.9235  0.9672 -0.9124
  186SLPC     N21355   6.072   4.182   6.049 -0.6894 -0.1165 -0.1537
  186SLPC   C1321356   5.944   4.147   5.978 -0.1119  0.2728  0.0976
  186SLPC  H13A21357   5.953   4.170   5.873  3.6788 -1.6186 -0.0810
  186SLPC  H13B21358   5.931   4.040   5.993 -0.7314  0.6498  2.5124
  186SLPC  H13C21359   5.861   4.198   6.024  0.2567 -0.0220  1.1089
  186SLPC   C1421360   6.129   4.316   6.003 -0.6090 -0.1890  0.2793
  186SLPC  H14A21361   6.138   4.316   5.895 -1.0503 -2.8468  0.2272
  186SLPC  H14B21362   6.059   4.398   6.015  0.6877  1.1747 -1.1579
  186SLPC  H14C21363   6.223   4.340   6.051 -0.6226 -1.9814  1.2319
  186SLPC   C1521364   6.178   4.076   6.032 -0.2014 -0.2254  0.1260
  186SLPC  H15A21365   6.275   4.110   6.064  1.0039 -2.4868 -0.9456
  186SLPC  H15B21366   6.154   3.992   6.096 -1.5956 -0.9517 -1.3017
  186SLPC  H15C21367   6.199   4.040   5.932  0.1064 -0.1965  0.1792
  186SLPC   C1221368   6.038   4.190   6.194  0.1110  0.4410  0.2845
  186SLPC  H12A21369   5.996   4.095   6.223  2.5530 -0.6350  0.4719
  186SLPC  H12B21370   5.962   4.264   6.211  1.0830  1.2561  1.1839
  186SLPC   C1121371   6.156   4.232   6.288  0.1892  0.6410  0.3635
  186SLPC  H11A21372   6.114   4.248   6.390  0.5484 -1.4833  0.8712
  186SLPC  H11B21373   6.197   4.330   6.256  1.1907 -0.2571 -1.1408
  186SLPC     P21374   6.403   4.158   6.340 -0.2764  0.6118  0.1089
  186SLPC   O1321375   6.469   4.037   6.392  0.4988  0.0771 -0.7876
  186SLPC   O1421376   6.476   4.232   6.237  0.3057  0.5056  0.8508
  186SLPC   O1221377   6.253   4.130   6.296 -0.3667  0.3129 -0.1229
  186SLPC   O1121378   6.372   4.253   6.460  0.1834  0.4564  0.5976
  186SLPC    C121379   6.394   4.392   6.456 -0.2620 -0.8707 -0.1063
  186SLPC    HA21380   6.374   4.436   6.357  2.8020 -1.5440 -1.0659
  186SLPC    HB21381   6.318   4.434   6.526  1.3171 -2.1440  2.4844
  186SLPC    C221382   6.535   4.444   6.507  0.5034 -0.2674  0.2472
  186SLPC    HS21383   6.617   4.410   6.439  0.7872 -0.1760  0.5425
  186SLPC   O2121384   6.558   4.402   6.646  0.0144  0.4863  0.7775
  186SLPC   C2121385   6.610   4.278   6.662 -0.7227 -0.4594 -0.6775
  186SLPC   O2221386   6.701   4.232   6.590 -0.0487  0.4457 -0.3462
  186SLPC   C2221387   6.530   4.199   6.762 -0.0045 -0.7600 -0.5648
  186SLPC   H2R21388   6.439   4.254   6.793 -0.4596 -1.7677 -0.0604
  186SLPC   H2S21389   6.485   4.108   6.717  0.3110 -1.1740 -0.0566
  186SLPC    C321390   6.535   4.602   6.498 -0.3082 -0.5964 -0.1051
  186SLPC    HX21391   6.507   4.641   6.398 -1.4003  0.6458  0.6694
  186SLPC    HY21392   6.634   4.646   6.521 -1.6955  3.3496 -1.2538
  186SLPC   O3121393   6.422   4.652   6.580 -0.2973  0.3007  0.2634
  186SLPC   C3121394   6.449   4.675   6.710  0.0308  0.2879  0.7639
  186SLPC   O3221395   6.556   4.682   6.761 -0.7356 -1.0908 -0.3669
  186SLPC   C3221396   6.310   4.716   6.772 -0.4812 -0.5929 -0.0357
  186SLPC   H2X21397   6.241   4.631   6.755  0.8007 -1.6093 -0.2552
  186SLPC   H2Y21398   6.269   4.797   6.708  0.5340  1.9494  2.4526
  186SLPC   C2321399   6.614   4.160   6.885  0.3503  0.4938  0.1894
  186SLPC   H3R21400   6.708   4.123   6.838  2.2867  1.3256  3.2236
  186SLPC   H3S21401   6.571   4.078   6.946  2.6992 -0.3299  0.7987
  186SLPC   C2421402   6.655   4.273   6.980  0.8015 -0.0971 -0.0174
  186SLPC   H4R21403   6.704   4.355   6.922 -0.9528  1.3057  0.4191
  186SLPC   H4S21404   6.742   4.235   7.038  0.1728 -0.0252  0.9829
  186SLPC   C2521405   6.541   4.336   7.062  0.0702 -0.3884 -0.3123
  186SLPC   H5R21406   6.487   4.254   7.115  0.6814 -0.6907 -0.1579
  186SLPC   H5S21407   6.466   4.386   6.997 -1.0948 -0.5704  0.8683
  186SLPC   C2621408   6.609   4.427   7.164  0.2390 -0.2258 -0.0781
  186SLPC   H6R21409   6.685   4.482   7.105 -0.3064 -2.5130 -3.0455
  186SLPC   H6S21410   6.663   4.374   7.245  0.5766  0.2813  0.0262
  186SLPC   C2721411   6.517   4.526   7.238  0.4969  0.0698  0.5427
  186SLPC   H7R21412   6.491   4.608   7.167  2.4130 -0.6933 -1.0900
  186SLPC   H7S21413   6.586   4.582   7.305  1.0283  2.5544 -1.9659
  186SLPC   C2821414   6.396   4.464   7.304 -0.5193 -0.1772  1.0780
  186SLPC   H8R21415   6.337   4.408   7.229 -0.1593  0.0500  0.6180
  186SLPC   H8S21416   6.335   4.544   7.350  0.9275 -0.3324  3.3391
  186SLPC   C2921417   6.436   4.372   7.421  0.2090  0.1295 -0.5527
  186SLPC   H9R21418   6.441   4.264   7.400  0.2106  0.0380 -0.0767
  186SLPC  C21021419   6.461   4.423   7.543  0.3800  0.3884  0.1731
  186SLPC  H10R21420   6.492   4.351   7.620 -0.5305 -1.3285 -1.0358
  186SLPC  C21121421   6.458   4.568   7.576  0.4502  0.4163  0.1073
  186SLPC  H11R21422   6.356   4.595   7.541  0.1362 -0.1689  0.5467
  186SLPC  H11S21423   6.531   4.632   7.524 -0.0829 -0.0613 -1.2466
  186SLPC  C21221424   6.483   4.591   7.723 -0.0924  0.0451  0.4119
  186SLPC  H12R21425   6.576   4.644   7.749  2.3051 -3.6995 -0.2641
  186SLPC  C21321426   6.410   4.551   7.837 -0.4061  0.1613  0.0741
  186SLPC  H13R21427   6.443   4.563   7.941  0.3331 -1.8646  0.0891
  186SLPC  C21421428   6.283   4.479   7.819  0.0466  0.2303 -0.2762
  186SLPC  H14R21429   6.263   4.471   7.710  2.6740  2.5889 -0.9806
  186SLPC  H14S21430   6.207   4.543   7.868 -1.4410 -0.7482 -1.2674
  186SLPC  C21521431   6.273   4.334   7.884 -0.2514 -0.3273  0.2126
  186SLPC  H15R21432   6.302   4.321   7.990  1.5587  0.1847 -0.1913
  186SLPC  H15S21433   6.349   4.271   7.832  0.7842  1.3265 -0.3313
  186SLPC  C21621434   6.134   4.269   7.854 -0.7348 -0.1922  0.1104
  186SLPC  H16R21435   6.110   4.285   7.747  1.4140  0.7091 -0.2563
  186SLPC  H16S21436   6.059   4.317   7.920 -0.1727 -0.9064  1.2862
  186SLPC  C21721437   6.131   4.118   7.891 -0.2727 -0.9113  0.4239
  186SLPC  H17R21438   6.183   4.106   7.988 -0.7072 -1.7938  0.5570
  186SLPC  H17S21439   6.190   4.067   7.812 -0.4277 -0.1743 -0.1732
  186SLPC  C21821440   6.002   4.044   7.897  0.1843  0.8623  0.1302
  186SLPC  H18R21441   6.015   3.935   7.881  3.1068  1.0069  1.0609
  186SLPC  H18S21442   5.930   4.076   7.819 -0.4626 -3.5114 -1.2045
  186SLPC  H18T21443   5.954   4.069   7.994  0.6183  1.8563  0.1049
  186SLPC   C3321444   6.314   4.745   6.930 -0.0537 -0.4713 -0.2794
  186SLPC   H3X21445   6.393   4.812   6.969  0.2257 -2.2189  2.2374
  186SLPC   H3Y21446   6.333   4.643   6.970 -0.1095 -0.8772 -1.2593
  186SLPC   C3421447   6.184   4.814   6.969 -0.4721 -0.1578  0.4097
  186SLPC   H4X21448   6.112   4.732   6.988 -0.1475 -0.3259  0.9279
  186SLPC   H4Y21449   6.148   4.868   6.878  2.7198  2.2709  0.4874
  186SLPC   C3521450   6.202   4.919   7.081 -0.3026 -0.7438  0.4328
  186SLPC   H5X21451   6.103   4.947   7.123 -0.6771 -1.2849 -0.0867
  186SLPC   H5Y21452   6.241   5.012   7.034  0.5156  0.4357  3.3235
  186SLPC   C3621453   6.274   4.866   7.203 -0.2783  0.0528  0.0107
  186SLPC   H6X21454   6.375   4.823   7.187  0.0697  0.7972  0.1974
  186SLPC   H6Y21455   6.222   4.777   7.244  0.2746  0.0603  0.7441
  186SLPC   C3721456   6.289   4.965   7.313  0.4736  0.6481 -1.0150
  186SLPC   H7X21457   6.187   4.999   7.339  0.9598  0.7882  0.7294
  186SLPC   H7Y21458   6.349   5.056   7.291 -0.3893  1.6081  0.5543
  186SLPC   C3821459   6.344   4.903   7.445  0.2639  0.3846  0.1638
  186SLPC   H8X21460   6.455   4.909   7.445  0.2773  0.2558 -0.9474
  186SLPC   H8Y21461   6.306   4.799   7.444  0.1098  0.4454 -0.1853
  186SLPC   C3921462   6.283   4.962   7.563 -0.5686 -0.2571  0.2260
  186SLPC   H9X21463   6.172   4.963   7.560 -0.5574 -1.8582 -1.0983
  186SLPC   H9Y21464   6.321   5.067   7.566  2.8360 -1.4664  0.8280
  186SLPC  C31021465   6.325   4.896   7.692  0.0224  0.0059 -0.6727
  186SLPC  H10X21466   6.436   4.890   7.689 -0.0157 -0.2073 -1.8525
  186SLPC  H10Y21467   6.288   4.792   7.711 -0.7499 -0.1159 -2.7650
  186SLPC  C31121468   6.277   4.976   7.812 -1.1873  0.2981 -0.5460
  186SLPC  H11X21469   6.168   4.989   7.796 -1.0291  1.6599 -0.5308
  186SLPC  H11Y21470   6.321   5.078   7.806 -1.1242  0.3992  1.2001
  186SLPC  C31221471   6.313   4.906   7.944 -0.1052  0.3321 -0.4534
  186SLPC  H12X21472   6.423   4.893   7.949 -0.0107  1.4678  0.4939
  186SLPC  H12Y21473   6.271   4.803   7.935 -2.0857  1.1861 -1.2561
  186SLPC  C31321474   6.263   4.987   8.065  0.1901 -0.5183 -0.1961
  186SLPC  H13X21475   6.153   5.004   8.066  0.5341  1.8046 -1.4688
  186SLPC  H13Y21476   6.299   5.091   8.065 -0.9736 -0.1020 -2.2557
  186SLPC  C31421477   6.307   4.932   8.198 -0.5361  0.3461 -0.3238
  186SLPC  H14X21478   6.280   4.825   8.209  1.9364 -0.0896  2.3786
  186SLPC  H14Y21479   6.256   4.992   8.276  0.1531 -1.4025  1.5208
  186SLPC  C31521480   6.455   4.940   8.229 -0.5133  0.2401  0.3754
  186SLPC  H15X21481   6.513   4.861   8.177  0.8334  1.0240  0.6852
  186SLPC  H15Y21482   6.468   4.924   8.339  0.2802 -1.2680  0.0773
  186SLPC  C31621483   6.522   5.074   8.215 -0.2990 -0.5278  0.2165
  186SLPC  H16X21484   6.471   5.141   8.287 -0.9258 -0.6596 -0.1080
  186SLPC  H16Y21485   6.515   5.116   8.112  0.1994 -1.7232 -0.3087
  186SLPC  C31721486   6.666   5.074   8.267  0.7689 -0.7267 -0.3598
  186SLPC  H17X21487   6.729   5.037   8.183  0.2478 -1.0275 -0.6261
  186SLPC  H17Y21488   6.690   5.017   8.360  0.6995 -0.7805 -0.3743
  186SLPC  C31821489   6.725   5.212   8.296 -0.0349  0.6750 -0.2929
  186SLPC  H18X21490   6.832   5.210   8.326  0.4632  0.4913 -2.0331
  186SLPC  H18Y21491   6.668   5.265   8.376  0.3837  2.2115 -0.9950
  186SLPC  H18Z21492   6.728   5.278   8.207 -2.6893  0.8493 -0.3192
  187SLPC     N21493   0.430   1.084   6.351 -0.7464 -0.0747  0.2948
  187SLPC   C1321494   0.362   1.211   6.323  0.3089 -0.6401  0.1156
  187SLPC  H13A21495   0.337   1.268   6.411  0.1208 -1.1664  0.4047
  187SLPC  H13B21496   0.427   1.269   6.259  0.0406 -0.4993 -0.0318
  187SLPC  H13C21497   0.271   1.194   6.267  0.9757 -1.2568 -0.7828
  187SLPC   C1421498   0.458   1.013   6.223  0.3080 -1.2832 -0.9251
  187SLPC  H14A21499   0.491   1.080   6.146  0.7689  1.4345  1.5708
  187SLPC  H14B21500   0.535   0.939   6.242  1.1758 -0.3702 -0.8712
  187SLPC  H14C21501   0.375   0.956   6.183  1.3318 -2.9166 -0.7558
  187SLPC   C1521502   0.343   0.998   6.434 -0.0648  0.0771 -0.4266
  187SLPC  H15A21503   0.394   0.905   6.454  0.2156  0.7700  2.2727
  187SLPC  H15B21504   0.333   1.035   6.535 -1.6431  3.4499 -1.7286
  187SLPC  H15C21505   0.242   0.992   6.396  0.0680 -1.5422 -0.5379
  187SLPC   C1221506   0.559   1.100   6.433 -0.1472  0.5749  0.1628
  187SLPC  H12A21507   0.589   1.000   6.460  0.1192  0.7772  0.6111
  187SLPC  H12B21508   0.528   1.160   6.517  0.8002 -0.7367  1.4654
  187SLPC   C1121509   0.673   1.181   6.374 -0.3299 -0.0451  0.7569
  187SLPC  H11A21510   0.711   1.142   6.277  0.8529 -1.1907  1.6720
  187SLPC  H11B21511   0.763   1.159   6.435  0.6004  2.4518  0.3255
  187SLPC     P21512   0.672   1.424   6.478  0.0230 -0.2760  0.1600
  187SLPC   O1321513   0.820   1.452   6.475  0.4273  0.3220  0.2409
  187SLPC   O1421514   0.586   1.545   6.460  0.0662 -0.8537  0.0284
  187SLPC   O1221515   0.641   1.317   6.362 -0.2861  0.1149 -0.3077
  187SLPC   O1121516   0.640   1.349   6.612 -0.0838  0.7815 -0.3901
  187SLPC    C121517   0.673   1.405   6.740 -0.0564 -0.2990 -0.2218
  187SLPC    HA21518   0.762   1.472   6.740 -1.5995  1.8592  3.7135
  187SLPC    HB21519   0.594   1.472   6.779  1.3271 -0.4352  2.9598
  187SLPC    C221520   0.689   1.290   6.838 -0.2039 -0.0081  0.7163
  187SLPC    HS21521   0.599   1.227   6.819  0.8724 -1.2663 -0.3417
  187SLPC   O2121522   0.703   1.333   6.978  0.0168 -0.1032  0.6034
  187SLPC   C2121523   0.595   1.373   7.029 -0.0059  0.6043  0.4614
  187SLPC   O2221524   0.491   1.391   6.968  0.0076  0.5621  0.0291
  187SLPC   C2221525   0.623   1.393   7.179  0.4950 -1.0366  0.9283
  187SLPC   H2R21526   0.676   1.490   7.184 -1.4153 -0.0248  2.0104
  187SLPC   H2S21527   0.520   1.403   7.220 -0.1536 -2.4032 -0.3028
  187SLPC    C321528   0.825   1.209   6.806  0.3480  0.2714 -0.4380
  187SLPC    HX21529   0.890   1.294   6.777  0.5031  0.1526 -0.4389
  187SLPC    HY21530   0.801   1.144   6.719 -1.1089  0.0226  0.1289
  187SLPC   O3121531   0.873   1.132   6.920 -0.0107  0.1048  0.2465
  187SLPC   C3121532   0.796   1.042   6.975  0.0055 -1.2822  0.0974
  187SLPC   O3221533   0.677   1.028   6.959  0.4349 -0.0185 -0.7363
  187SLPC   C3221534   0.875   0.960   7.072  0.4841  0.9707  0.2275
  187SLPC   H2X21535   0.873   1.008   7.172 -0.9484 -1.1130  1.2268
  187SLPC   H2Y21536   0.982   0.949   7.042  0.5516 -0.6063  1.0317
  187SLPC   C2321537   0.707   1.282   7.239  0.6006  0.2433  0.7064
  187SLPC   H3R21538   0.807   1.274   7.191  0.4660 -2.0746  0.7306
  187SLPC   H3S21539   0.652   1.186   7.229  0.7595  0.0624  1.5520
  187SLPC   C2421540   0.730   1.296   7.393 -0.6515  0.5171 -0.1946
  187SLPC   H4R21541   0.753   1.403   7.412 -0.3201  0.5667 -0.8430
  187SLPC   H4S21542   0.817   1.233   7.421 -1.4038 -0.8693 -0.9348
  187SLPC   C2521543   0.609   1.272   7.471 -0.6187  1.3863  0.5090
  187SLPC   H5R21544   0.564   1.176   7.437 -0.5078  0.7211  2.2248
  187SLPC   H5S21545   0.539   1.354   7.442 -0.2341  1.1740 -1.1116
  187SLPC   C2621546   0.635   1.263   7.624 -0.1849 -0.4986  0.0937
  187SLPC   H6R21547   0.539   1.264   7.680  0.5041 -2.3441  1.3658
  187SLPC   H6S21548   0.679   1.361   7.651  0.2435 -0.5138 -0.5314
  187SLPC   C2721549   0.723   1.139   7.662 -0.8949 -0.2263 -0.3677
  187SLPC   H7R21550   0.831   1.161   7.651 -0.0175 -4.7547 -1.8802
  187SLPC   H7S21551   0.705   1.054   7.592  1.6945 -0.3282 -0.9668
  187SLPC   C2821552   0.673   1.104   7.801 -0.0964  0.6952  0.8697
  187SLPC   H8R21553   0.734   1.017   7.834  0.6519  0.8316 -0.1298
  187SLPC   H8S21554   0.569   1.066   7.796  0.6335 -1.5084  1.6976
  187SLPC   C2921555   0.692   1.222   7.898 -0.7044 -0.8341  0.3402
  187SLPC   H9R21556   0.798   1.248   7.908 -0.3392 -2.4895  0.9380
  187SLPC  C21021557   0.597   1.288   7.967 -0.3034  0.3242  0.2425
  187SLPC  H10R21558   0.634   1.364   8.037  0.7242 -0.6827  0.7922
  187SLPC  C21121559   0.447   1.275   7.958  0.2848 -0.3014  0.3008
  187SLPC  H11R21560   0.406   1.228   8.049  0.4106 -0.7105  0.1489
  187SLPC  H11S21561   0.423   1.202   7.877  0.6391  0.9758 -0.9720
  187SLPC  C21221562   0.377   1.407   7.939  0.6822 -0.2075 -0.3380
  187SLPC  H12R21563   0.347   1.433   7.837  0.9612 -0.5072 -0.4980
  187SLPC  C21321564   0.341   1.485   8.048  0.1036  0.0912  0.7827
  187SLPC  H13R21565   0.281   1.577   8.045  1.0840  0.7500  1.1951
  187SLPC  C21421566   0.377   1.448   8.192 -0.7058  0.4583 -0.2845
  187SLPC  H14R21567   0.390   1.541   8.251 -1.9587 -0.0074  0.7497
  187SLPC  H14S21568   0.466   1.383   8.202 -1.8890 -0.9692  1.2708
  187SLPC  C21521569   0.267   1.374   8.266 -0.0874  0.0793 -0.7892
  187SLPC  H15R21570   0.249   1.273   8.224  0.7123  0.0210 -1.0079
  187SLPC  H15S21571   0.171   1.429   8.267 -0.3486 -0.3808  1.3385
  187SLPC  C21621572   0.296   1.348   8.413  0.8911  0.1017 -0.0113
  187SLPC  H16R21573   0.290   1.435   8.482 -0.6287  1.4271 -1.7806
  187SLPC  H16S21574   0.398   1.308   8.431  0.6236 -1.4420 -1.8502
  187SLPC  C21721575   0.202   1.240   8.469  0.2240  0.5058 -0.3911
  187SLPC  H17R21576   0.210   1.150   8.405 -2.1169 -0.6552  0.8924
  187SLPC  H17S21577   0.099   1.277   8.445  0.0006  1.1874  1.5523
  187SLPC  C21821578   0.220   1.210   8.617  0.0993 -0.0366 -0.1310
  187SLPC  H18R21579   0.141   1.147   8.664 -2.1186  1.1095 -2.1663
  187SLPC  H18S21580   0.211   1.309   8.666 -1.7411  0.2095 -0.9081
  187SLPC  H18T21581   0.322   1.177   8.646  0.7793  1.8141 -0.3560
  187SLPC   C3321582   0.810   0.817   7.088 -0.2787  0.1798  0.4195
  187SLPC   H3X21583   0.803   0.767   6.989  1.4454  0.2978  0.2093
  187SLPC   H3Y21584   0.705   0.831   7.120 -0.4849  0.4838 -0.3818
  187SLPC   C3421585   0.876   0.715   7.188  0.0159 -0.2972 -0.2013
  187SLPC   H4X21586   0.980   0.694   7.157 -0.4860 -2.1443 -0.6709
  187SLPC   H4Y21587   0.830   0.614   7.181 -3.3318  1.1587 -0.1243
  187SLPC   C3521588   0.871   0.777   7.324 -0.4606 -0.1140 -0.6415
  187SLPC   H5X21589   0.768   0.812   7.347 -0.9431 -0.3268 -2.4376
  187SLPC   H5Y21590   0.925   0.874   7.328  0.8204 -0.8101 -1.0762
  187SLPC   C3621591   0.917   0.683   7.436  0.7374 -0.4617 -0.0463
  187SLPC   H6X21592   1.025   0.672   7.413  0.7037 -1.5066  0.3092
  187SLPC   H6Y21593   0.874   0.582   7.425 -0.0952 -0.4190  2.5118
  187SLPC   C3721594   0.894   0.742   7.576  0.0198 -0.2880 -0.5050
  187SLPC   H7X21595   0.933   0.845   7.580  0.2161 -0.4450  2.6022
  187SLPC   H7Y21596   0.785   0.749   7.596  0.0498  2.5468 -1.1371
  187SLPC   C3821597   0.971   0.663   7.684 -0.2363  0.2091 -1.0399
  187SLPC   H8X21598   1.077   0.653   7.654 -0.4184 -0.0025 -1.6204
  187SLPC   H8Y21599   0.938   0.558   7.704  0.7741  0.5615  3.0382
  187SLPC   C3921600   0.960   0.733   7.819 -0.4715 -0.0513  0.4614
  187SLPC   H9X21601   0.955   0.844   7.807 -1.6168  0.2829  3.6938
  187SLPC   H9Y21602   1.049   0.713   7.882 -1.1742  0.9759  1.8023
  187SLPC  C31021603   0.841   0.693   7.900  0.1630  0.2033  0.1044
  187SLPC  H10X21604   0.851   0.587   7.931  3.5785  0.5823  0.4932
  187SLPC  H10Y21605   0.746   0.713   7.845 -0.2585  2.0978  1.4782
  187SLPC  C31121606   0.829   0.781   8.021 -0.1419  0.3215 -0.6702
  187SLPC  H11X21607   0.815   0.885   7.985 -1.0975  0.6088  0.4697
  187SLPC  H11Y21608   0.920   0.771   8.084 -0.4949 -1.9668 -0.5070
  187SLPC  C31221609   0.699   0.735   8.106  0.8410  0.0309 -0.0306
  187SLPC  H12X21610   0.725   0.631   8.138  1.6735  0.2728  0.1019
  187SLPC  H12Y21611   0.614   0.726   8.035 -1.8770  3.9901  2.5531
  187SLPC  C31321612   0.672   0.823   8.230  0.6884  0.5972  0.1802
  187SLPC  H13X21613   0.773   0.835   8.275  1.1637  0.4449 -0.8316
  187SLPC  H13Y21614   0.609   0.784   8.313  2.6063  0.6508  1.6891
  187SLPC  C31421615   0.624   0.964   8.199  0.1833  0.6335  0.6385
  187SLPC  H14X21616   0.531   0.962   8.138 -0.5429  1.1928  1.7063
  187SLPC  H14Y21617   0.691   1.005   8.121  0.8940 -0.3824  0.7190
  187SLPC  C31521618   0.602   1.052   8.325  0.8411  0.6543  0.1959
  187SLPC  H15X21619   0.514   1.008   8.377  1.7662 -2.2883 -0.6375
  187SLPC  H15Y21620   0.589   1.154   8.283 -2.5426  0.5007  0.7569
  187SLPC  C31621621   0.727   1.058   8.414 -0.0255  0.5728 -0.5045
  187SLPC  H16X21622   0.819   1.089   8.360 -0.6958 -1.2119 -2.7492
  187SLPC  H16Y21623   0.747   0.953   8.444 -2.0707  0.3577  0.2197
  187SLPC  C31721624   0.707   1.126   8.548  0.3441 -0.1587 -0.1355
  187SLPC  H17X21625   0.643   1.063   8.613  0.3779 -1.2042 -1.1017
  187SLPC  H17Y21626   0.650   1.221   8.532 -1.7770 -1.5948 -1.4197
  187SLPC  C31821627   0.844   1.159   8.610  0.0000 -0.2570 -0.4128
  187SLPC  H18X21628   0.887   1.064   8.650  2.0194 -0.5720 -3.2156
  187SLPC  H18Y21629   0.836   1.225   8.699 -1.3140  0.2072 -0.8677
  187SLPC  H18Z21630   0.925   1.202   8.547 -0.7179  1.1621 -0.3678
  188SLPC     N21631   1.791   2.649   6.336 -0.5189 -0.4860  0.1796
  188SLPC   C1321632   1.834   2.607   6.201  0.2723  0.4960  0.4757
  188SLPC  H13A21633   1.780   2.515   6.182 -0.5860  0.6989  1.8854
  188SLPC  H13B21634   1.794   2.669   6.122 -1.8091 -0.7392  0.5131
  188SLPC  H13C21635   1.942   2.602   6.195  0.2675  0.5287  0.3583
  188SLPC   C1421636   1.856   2.791   6.367  0.0455 -0.0038 -0.2324
  188SLPC  H14A21637   1.961   2.784   6.392  0.7653  1.3413 -2.7628
  188SLPC  H14B21638   1.847   2.856   6.282  1.1950  1.0021  0.3990
  188SLPC  H14C21639   1.798   2.827   6.450 -1.1273 -1.6298 -0.3227
  188SLPC   C1521640   1.857   2.554   6.427 -0.3074  0.9034 -0.6592
  188SLPC  H15A21641   1.816   2.456   6.406  0.0589  0.2396  1.5221
  188SLPC  H15B21642   1.963   2.541   6.415 -0.1560 -0.5304  1.7969
  188SLPC  H15C21643   1.831   2.582   6.528  1.0806  0.6932 -0.2413
  188SLPC   C1221644   1.646   2.670   6.348  0.5900  0.5327 -0.6588
  188SLPC  H12A21645   1.602   2.582   6.305  0.2752  1.6197 -2.6344
  188SLPC  H12B21646   1.609   2.749   6.285 -0.2572  1.0815  0.5037
  188SLPC   C1121647   1.596   2.672   6.490  0.4567  0.8562 -0.7616
  188SLPC  H11A21648   1.492   2.713   6.491 -0.5845 -1.6796  0.2662
  188SLPC  H11B21649   1.649   2.748   6.551  2.9509 -0.7855 -0.7993
  188SLPC     P21650   1.503   2.442   6.527 -0.0580  0.0538 -0.1286
  188SLPC   O1321651   1.464   2.438   6.386  0.6053 -0.5062 -0.1825
  188SLPC   O1421652   1.558   2.319   6.592  0.4712  0.1434  0.7854
  188SLPC   O1221653   1.606   2.550   6.557  0.2712  0.7965  0.0439
  188SLPC   O1121654   1.378   2.499   6.607  0.0414  0.2192  0.0399
  188SLPC    C121655   1.374   2.521   6.748  0.0171  0.3558  0.0236
  188SLPC    HA21656   1.289   2.460   6.785 -1.1716  0.5992 -2.1926
  188SLPC    HB21657   1.468   2.491   6.800 -0.8433 -0.9680  0.8610
  188SLPC    C221658   1.358   2.673   6.778 -0.2802 -0.2860 -0.0125
  188SLPC    HS21659   1.451   2.725   6.746 -0.1003  2.1533  4.0860
  188SLPC   O2121660   1.330   2.703   6.919 -0.6468  0.1699 -0.5322
  188SLPC   C2121661   1.432   2.701   7.000 -0.2178  0.1327 -0.5463
  188SLPC   O2221662   1.544   2.656   6.980 -0.5241 -0.2830  0.6206
  188SLPC   C2221663   1.388   2.732   7.141 -0.0260  0.7077 -0.1095
  188SLPC   H2R21664   1.339   2.831   7.134  0.6788  1.0112 -0.6896
  188SLPC   H2S21665   1.327   2.642   7.166  0.5776 -0.0384 -1.2770
  188SLPC    C321666   1.245   2.727   6.687  0.3586  0.5794  0.0905
  188SLPC    HX21667   1.168   2.648   6.679 -0.3547  1.2353  0.4768
  188SLPC    HY21668   1.287   2.742   6.585  1.1080 -0.1628  0.2854
  188SLPC   O3121669   1.186   2.856   6.737  0.6591  0.5382  0.1831
  188SLPC   C3121670   1.264   2.959   6.744  0.0985  0.2362  1.6819
  188SLPC   O3221671   1.372   2.969   6.688  0.9633  0.0617 -0.3326
  188SLPC   C3221672   1.175   3.079   6.789  0.0110  0.0941  0.4646
  188SLPC   H2X21673   1.118   3.054   6.881  0.2033  0.2874  0.6384
  188SLPC   H2Y21674   1.104   3.093   6.705  1.8568  2.7371 -0.7382
  188SLPC   C2321675   1.494   2.740   7.250  0.2753  0.1103  0.0052
  188SLPC   H3R21676   1.586   2.788   7.210 -0.9402  0.0567 -2.9934
  188SLPC   H3S21677   1.516   2.636   7.285 -0.3325 -0.1463 -0.3668
  188SLPC   C2421678   1.449   2.817   7.369  0.5090 -0.5908  0.0271
  188SLPC   H4R21679   1.354   2.784   7.415  1.3393 -1.4190  1.1809
  188SLPC   H4S21680   1.440   2.922   7.332  2.7361 -0.2305  0.4304
  188SLPC   C2521681   1.559   2.831   7.484 -0.0373  0.2932  0.3485
  188SLPC   H5R21682   1.649   2.881   7.442  1.0834 -1.9949 -0.0150
  188SLPC   H5S21683   1.589   2.730   7.519 -2.5143 -0.7367 -0.3715
  188SLPC   C2621684   1.499   2.915   7.597  0.3979 -0.2885  0.6466
  188SLPC   H6R21685   1.394   2.886   7.620  0.3295 -0.0809  0.5977
  188SLPC   H6S21686   1.488   3.019   7.561  0.4062 -1.0725 -1.7242
  188SLPC   C2721687   1.579   2.913   7.728 -0.3176 -0.5695  0.5597
  188SLPC   H7R21688   1.687   2.929   7.712 -0.3277 -0.7318  0.3299
  188SLPC   H7S21689   1.563   2.812   7.770 -2.3406 -0.4799  0.0721
  188SLPC   C2821690   1.538   3.019   7.835  0.2824 -0.3567 -0.0662
  188SLPC   H8R21691   1.432   2.993   7.859  0.0268  0.1309 -0.6545
  188SLPC   H8S21692   1.553   3.124   7.799 -2.3245  0.7637  1.9325
  188SLPC   C2921693   1.625   3.002   7.957  0.5653  0.5993  0.5118
  188SLPC   H9R21694   1.714   3.066   7.954  0.4583  0.8360  1.8896
  188SLPC  C21021695   1.599   2.934   8.065  0.1352  0.0024  0.3606
  188SLPC  H10R21696   1.679   2.920   8.140 -0.5967  2.4474  1.6148
  188SLPC  C21121697   1.479   2.847   8.091  0.3553  0.2431 -0.2104
  188SLPC  H11R21698   1.512   2.747   8.129 -0.2767 -0.0727 -0.4901
  188SLPC  H11S21699   1.421   2.826   7.999  0.3876  3.2267 -0.9490
  188SLPC  C21221700   1.380   2.913   8.184 -0.6578  0.4717 -0.0271
  188SLPC  H12R21701   1.322   2.995   8.138 -1.7035  1.6391  3.2195
  188SLPC  C21321702   1.353   2.881   8.309 -0.6377 -0.1597  0.1491
  188SLPC  H13R21703   1.281   2.941   8.366 -0.3928  1.4240 -1.1814
  188SLPC  C21421704   1.432   2.778   8.390  0.2179 -0.9916  0.4166
  188SLPC  H14R21705   1.518   2.735   8.334 -0.2800 -1.6487  0.1463
  188SLPC  H14S21706   1.362   2.692   8.399 -1.7870  0.4691 -0.7596
  188SLPC  C21521707   1.487   2.817   8.525  0.2350  0.4414 -0.2417
  188SLPC  H15R21708   1.403   2.858   8.586 -0.7576  0.0285 -1.2999
  188SLPC  H15S21709   1.569   2.892   8.532  1.2355 -0.6408 -0.1983
  188SLPC  C21621710   1.532   2.696   8.616  0.0214  0.0745  0.3760
  188SLPC  H16R21711   1.622   2.643   8.578 -0.8490 -1.7483  0.8290
  188SLPC  H16S21712   1.456   2.615   8.616 -1.0970  1.0993 -1.4063
  188SLPC  C21721713   1.559   2.740   8.762 -0.2753  1.2677  0.3581
  188SLPC  H17R21714   1.554   2.650   8.828  0.3711  1.3914  0.5810
  188SLPC  H17S21715   1.485   2.818   8.789 -1.0386  0.6649  0.0085
  188SLPC  C21821716   1.701   2.785   8.785 -0.3016 -0.2288  0.5611
  188SLPC  H18R21717   1.716   2.815   8.890 -2.2732 -0.5161  0.9480
  188SLPC  H18S21718   1.724   2.863   8.708  1.8125 -1.3310  0.0498
  188SLPC  H18T21719   1.757   2.690   8.768 -2.1940 -0.5185 -5.3053
  188SLPC   C3321720   1.248   3.215   6.803  0.0615 -0.4333  0.4396
  188SLPC   H3X21721   1.175   3.299   6.810  0.5668  0.2200 -1.8473
  188SLPC   H3Y21722   1.308   3.243   6.714 -1.2720  2.4957  0.4034
  188SLPC   C3421723   1.339   3.219   6.928  0.1089 -0.7406 -0.2574
  188SLPC   H4X21724   1.414   3.300   6.915 -0.4078 -0.2455 -0.1775
  188SLPC   H4Y21725   1.400   3.129   6.949  1.5000 -0.0183 -1.1266
  188SLPC   C3521726   1.259   3.246   7.050 -0.0464  0.9099 -0.4019
  188SLPC   H5X21727   1.173   3.175   7.044  0.0275  0.8617 -0.8996
  188SLPC   H5Y21728   1.221   3.350   7.047 -3.1442 -0.1112  0.9443
  188SLPC   C3621729   1.332   3.224   7.187 -0.9190  0.2537 -1.3456
  188SLPC   H6X21730   1.397   3.314   7.193  1.5185 -1.5726  0.6242
  188SLPC   H6Y21731   1.395   3.134   7.175 -0.3384  0.6722 -1.4640
  188SLPC   C3721732   1.236   3.207   7.305 -0.5364 -0.2650  1.2672
  188SLPC   H7X21733   1.179   3.116   7.277 -1.6964  0.8079  0.0908
  188SLPC   H7Y21734   1.164   3.292   7.302 -2.7804 -2.1706 -0.5024
  188SLPC   C3821735   1.305   3.205   7.442  0.0561  0.3111  0.1573
  188SLPC   H8X21736   1.391   3.135   7.427 -0.7717 -0.3416 -1.6639
  188SLPC   H8Y21737   1.234   3.160   7.515  0.3705  0.3863  0.5123
  188SLPC   C3921738   1.350   3.344   7.501  0.0640 -0.3956 -0.0709
  188SLPC   H9X21739   1.273   3.424   7.500  0.8234  0.4017  1.8577
  188SLPC   H9Y21740   1.435   3.380   7.439  0.2137  0.7588  0.7770
  188SLPC  C31021741   1.407   3.325   7.641 -0.2086  0.4737 -0.3317
  188SLPC  H10X21742   1.481   3.243   7.641  0.2254  0.8601 -1.1007
  188SLPC  H10Y21743   1.329   3.289   7.712  1.2936  0.4197  1.3325
  188SLPC  C31121744   1.481   3.441   7.707 -0.0244  1.1164  0.5850
  188SLPC  H11X21745   1.572   3.453   7.645  0.3539  0.0057  0.9081
  188SLPC  H11Y21746   1.515   3.411   7.808 -0.3558 -1.7237 -0.1010
  188SLPC  C31221747   1.412   3.585   7.706  1.0774 -0.2251  1.1481
  188SLPC  H12X21748   1.321   3.585   7.770 -0.6569 -0.5982 -1.2604
  188SLPC  H12Y21749   1.376   3.602   7.603 -1.2391 -0.6743  1.8537
  188SLPC  C31321750   1.492   3.708   7.742 -0.1301 -1.4876  0.0028
  188SLPC  H13X21751   1.588   3.716   7.686  0.0448  1.2216  0.6433
  188SLPC  H13Y21752   1.517   3.699   7.850  0.7244  0.1708 -0.0376
  188SLPC  C31421753   1.430   3.845   7.713  0.1361  0.2035  0.9897
  188SLPC  H14X21754   1.409   3.862   7.605 -1.3137  0.8007  1.3605
  188SLPC  H14Y21755   1.505   3.923   7.740  1.3044 -0.2260 -0.9439
  188SLPC  C31521756   1.298   3.878   7.778 -0.2818 -0.4994 -0.0990
  188SLPC  H15X21757   1.211   3.825   7.733  1.4025 -2.0390 -1.6387
  188SLPC  H15Y21758   1.268   3.985   7.769 -2.4961 -1.0783 -0.0148
  188SLPC  C31621759   1.303   3.841   7.923  0.7482  0.2552  0.0751
  188SLPC  H16X21760   1.385   3.900   7.969  1.3713 -0.0979 -0.5761
  188SLPC  H16Y21761   1.303   3.730   7.928 -1.1932  0.2737  0.9815
  188SLPC  C31721762   1.177   3.883   8.006 -0.0381 -0.6808 -0.1159
  188SLPC  H17X21763   1.075   3.849   7.977  0.4892 -1.0291 -1.5842
  188SLPC  H17Y21764   1.165   3.993   7.993  2.2779 -0.7166 -3.0101
  188SLPC  C31821765   1.195   3.854   8.155 -0.4508  0.9016  0.6605
  188SLPC  H18X21766   1.213   3.745   8.172 -0.5006  0.7506 -0.2269
  188SLPC  H18Y21767   1.103   3.877   8.212 -0.9055 -0.2805  0.4218
  188SLPC  H18Z21768   1.277   3.908   8.207  0.9116 -0.4075 -0.0663
  189SLPC     N21769   3.357   4.144   6.338 -0.3617 -0.3508 -1.1408
  189SLPC   C1321770   3.400   4.056   6.453 -0.3715  0.2988 -0.4814
  189SLPC  H13A21771   3.483   4.099   6.507  0.1129 -0.3773 -0.6676
  189SLPC  H13B21772   3.320   4.047   6.524  0.3071 -0.0162  0.2451
  189SLPC  H13C21773   3.431   3.960   6.414 -0.4638  0.2988 -0.5551
  189SLPC   C1421774   3.315   4.278   6.394 -0.4284  0.2710 -0.4788
  189SLPC  H14A21775   3.278   4.338   6.312 -0.7695  2.4036  1.2086
  189SLPC  H14B21776   3.245   4.261   6.475  1.6141  3.2117  1.9869
  189SLPC  H14C21777   3.407   4.328   6.419 -0.3499 -0.1425  0.0829
  189SLPC   C1521778   3.236   4.079   6.278 -0.4190 -0.1623  0.4729
  189SLPC  H15A21779   3.202   4.115   6.182  1.1759  2.3981  0.8087
  189SLPC  H15B21780   3.255   3.975   6.258  1.1525 -0.1931  1.9872
  189SLPC  H15C21781   3.155   4.073   6.350  1.7351 -0.5394  2.9239
  189SLPC   C1221782   3.457   4.159   6.229 -0.0497  0.3007 -0.3630
  189SLPC  H12A21783   3.417   4.214   6.145  1.4081 -0.1256 -1.3482
  189SLPC  H12B21784   3.491   4.065   6.189 -0.9862  0.4865 -1.6310
  189SLPC   C1121785   3.590   4.229   6.266 -0.5599  0.0607 -0.3374
  189SLPC  H11A21786   3.661   4.214   6.182 -2.5039 -0.9941 -1.8181
  189SLPC  H11B21787   3.644   4.182   6.351  1.5169  0.2184 -1.5220
  189SLPC     P21788   3.669   4.454   6.377  0.3237 -0.4592  0.1046
  189SLPC   O1321789   3.786   4.372   6.427  0.3141  0.3224 -0.8334
  189SLPC   O1421790   3.698   4.562   6.284  0.2232 -0.7521 -0.2452
  189SLPC   O1221791   3.569   4.375   6.298  0.5958  0.2441  0.4743
  189SLPC   O1121792   3.589   4.502   6.498 -0.4213 -0.5201  0.1722
  189SLPC    C121793   3.558   4.639   6.518  0.1779 -0.3380  0.2157
  189SLPC    HA21794   3.654   4.692   6.500  0.4319 -0.8805 -0.0276
  189SLPC    HB21795   3.481   4.664   6.442  1.0053  2.2286  0.1731
  189SLPC    C221796   3.505   4.676   6.656  0.2845  0.4257 -0.3663
  189SLPC    HS21797   3.458   4.776   6.646  0.5939  0.4781 -1.3375
  189SLPC   O2121798   3.616   4.683   6.751  0.9189  0.3578 -0.1121
  189SLPC   C2121799   3.601   4.764   6.857  0.2307  0.3743  0.1566
  189SLPC   O2221800   3.495   4.820   6.885  0.2340 -0.0884 -0.3340
  189SLPC   C2221801   3.727   4.776   6.941 -0.6881  0.3415  0.0953
  189SLPC   H2R21802   3.761   4.680   6.985  0.2923  1.2917  1.4605
  189SLPC   H2S21803   3.808   4.799   6.869  0.6093  0.2004  1.4711
  189SLPC    C321804   3.392   4.573   6.687  0.2990 -0.6869 -0.5805
  189SLPC    HX21805   3.417   4.465   6.684  1.6022 -0.3493 -2.4744
  189SLPC    HY21806   3.331   4.581   6.595  0.8482  0.7114 -0.8322
  189SLPC   O3121807   3.303   4.605   6.798 -0.3265 -0.5216  0.1521
  189SLPC   C3121808   3.347   4.558   6.915 -0.0726  0.1454 -0.1432
  189SLPC   O3221809   3.455   4.508   6.936 -0.0735  0.0589  0.1856
  189SLPC   C3221810   3.229   4.583   7.013 -0.9191 -0.3665 -0.1274
  189SLPC   H2X21811   3.146   4.521   6.974  0.3872 -1.7383 -0.8308
  189SLPC   H2Y21812   3.200   4.690   7.009 -0.4699 -0.1692  1.4690
  189SLPC   C2321813   3.725   4.885   7.046 -0.1590  0.4809  0.3838
  189SLPC   H3R21814   3.679   4.978   7.007 -0.6720  0.4242  0.8612
  189SLPC   H3S21815   3.828   4.905   7.084 -0.7746  2.1590  1.1876
  189SLPC   C2421816   3.645   4.835   7.166 -0.0301 -0.5296 -0.4245
  189SLPC   H4R21817   3.699   4.745   7.203  0.6983  0.3701  0.7469
  189SLPC   H4S21818   3.539   4.817   7.137 -0.7471 -0.7033  2.1081
  189SLPC   C2521819   3.651   4.931   7.286  0.7440  0.1765  0.1801
  189SLPC   H5R21820   3.627   5.031   7.244 -0.3478 -0.0119  0.3377
  189SLPC   H5S21821   3.753   4.945   7.326  0.2660  0.5870  1.2882
  189SLPC   C2621822   3.551   4.918   7.406 -0.1967  0.4667 -0.1458
  189SLPC   H6R21823   3.591   4.830   7.460  0.5319  0.7684 -0.1853
  189SLPC   H6S21824   3.443   4.898   7.388 -0.0657 -0.4573  0.1110
  189SLPC   C2721825   3.557   5.034   7.507 -0.6363 -0.7253  0.0240
  189SLPC   H7R21826   3.518   5.126   7.460 -2.0489 -2.1681 -1.6852
  189SLPC   H7S21827   3.663   5.043   7.539 -1.5962 -0.8547  3.4370
  189SLPC   C2821828   3.475   5.006   7.632 -0.7433 -0.1500 -0.1085
  189SLPC   H8R21829   3.369   5.002   7.597  0.1089  0.4216 -2.8802
  189SLPC   H8S21830   3.482   5.100   7.690  0.6932 -0.0505 -0.4305
  189SLPC   C2921831   3.524   4.885   7.717  0.0555 -0.6338  0.9773
  189SLPC   H9R21832   3.531   4.788   7.665  2.5836 -0.2960  0.6286
  189SLPC  C21021833   3.556   4.893   7.844  0.2581  0.3442  0.3436
  189SLPC  H10R21834   3.590   4.799   7.890 -2.0556 -0.6558  0.0980
  189SLPC  C21121835   3.549   5.010   7.933 -0.3584 -0.3968 -0.1541
  189SLPC  H11R21836   3.569   5.096   7.865  0.4487 -0.3885  0.0912
  189SLPC  H11S21837   3.636   5.004   8.002 -0.4843  1.2126  0.1626
  189SLPC  C21221838   3.423   5.028   8.014 -0.2826  0.2545 -0.2913
  189SLPC  H12R21839   3.345   5.085   7.960  0.7319  1.9151 -0.0600
  189SLPC  C21321840   3.388   4.969   8.130  1.0375  0.1395 -0.4635
  189SLPC  H13R21841   3.291   4.985   8.180  1.6571 -2.4246  1.6628
  189SLPC  C21421842   3.480   4.872   8.198  0.5296  0.0788 -0.2728
  189SLPC  H14R21843   3.526   4.925   8.284 -0.6421 -1.2300  1.2006
  189SLPC  H14S21844   3.562   4.829   8.138  1.8054  1.2735  0.5825
  189SLPC  C21521845   3.401   4.760   8.263 -0.5290 -0.0973  0.5037
  189SLPC  H15R21846   3.310   4.799   8.314 -1.3373 -0.5872 -0.5312
  189SLPC  H15S21847   3.462   4.724   8.347  2.2938  3.0697 -0.0595
  189SLPC  C21621848   3.374   4.643   8.175  0.4464 -0.6878 -0.2266
  189SLPC  H16R21849   3.470   4.592   8.152  1.4833  1.9574 -1.9373
  189SLPC  H16S21850   3.324   4.689   8.087  1.8127 -0.4442 -0.8830
  189SLPC  C21721851   3.295   4.536   8.249  0.6457 -0.2778  0.2264
  189SLPC  H17R21852   3.197   4.552   8.299  0.2298 -0.8972 -0.3640
  189SLPC  H17S21853   3.359   4.491   8.327  0.7165  0.5439  0.6414
  189SLPC  C21821854   3.255   4.426   8.143 -0.1948 -0.2555  0.0131
  189SLPC  H18R21855   3.215   4.344   8.205 -0.5206 -0.4773 -0.4942
  189SLPC  H18S21856   3.342   4.395   8.080  0.7263 -1.2726  1.7521
  189SLPC  H18T21857   3.178   4.465   8.073  0.2345  1.6682  0.5754
  189SLPC   C3321858   3.268   4.525   7.149 -0.4462  0.2365 -0.8243
  189SLPC   H3X21859   3.311   4.422   7.146  0.2536  0.4235  1.7823
  189SLPC   H3Y21860   3.179   4.530   7.216  0.7925  1.4362  0.7576
  189SLPC   C3421861   3.371   4.613   7.215 -0.3987  0.0141  0.5046
  189SLPC   H4X21862   3.329   4.716   7.219 -0.3533  0.0132  1.0232
  189SLPC   H4Y21863   3.462   4.611   7.152 -0.2660  0.9386  0.6652
  189SLPC   C3521864   3.403   4.561   7.356 -0.0730 -0.2376  0.3622
  189SLPC   H5X21865   3.471   4.635   7.402  2.1875 -0.4489 -2.4958
  189SLPC   H5Y21866   3.451   4.461   7.348  2.5226  0.8701  1.5885
  189SLPC   C3621867   3.282   4.560   7.453 -0.0810  0.0106 -0.2456
  189SLPC   H6X21868   3.214   4.475   7.433 -0.1389  0.0408 -0.1742
  189SLPC   H6Y21869   3.234   4.659   7.440  1.7000  0.8286 -0.8194
  189SLPC   C3721870   3.331   4.536   7.593 -0.0960 -0.0444  0.4143
  189SLPC   H7X21871   3.406   4.616   7.613 -0.8708  1.1403 -1.2416
  189SLPC   H7Y21872   3.395   4.445   7.594 -1.4647 -1.0140  0.7612
  189SLPC   C3821873   3.220   4.536   7.699 -0.6545 -0.0034  0.1455
  189SLPC   H8X21874   3.141   4.612   7.683 -3.5342 -3.0190 -0.5451
  189SLPC   H8Y21875   3.262   4.553   7.800 -2.0643  0.1593  0.7145
  189SLPC   C3921876   3.141   4.398   7.701 -1.0836  0.5151  0.6147
  189SLPC   H9X21877   3.218   4.319   7.707 -0.8840  0.5731 -0.9054
  189SLPC   H9Y21878   3.086   4.388   7.605 -2.1113  0.1525  1.2395
  189SLPC  C31021879   3.053   4.392   7.828  0.0316 -0.1256 -0.1767
  189SLPC  H10X21880   2.993   4.486   7.839  1.6358  0.9109 -0.1391
  189SLPC  H10Y21881   3.125   4.386   7.913 -1.0173 -0.2232  0.7244
  189SLPC  C31121882   2.947   4.275   7.827  0.2148 -0.3576  0.0410
  189SLPC  H11X21883   2.880   4.285   7.739  0.2486  1.5175  0.2057
  189SLPC  H11Y21884   2.878   4.293   7.912 -0.1411  0.6110 -0.4394
  189SLPC  C31221885   2.996   4.128   7.825 -0.9800  0.3667  0.2250
  189SLPC  H12X21886   2.903   4.067   7.831 -0.8078  0.1018  0.1952
  189SLPC  H12Y21887   3.065   4.107   7.910 -0.4802 -0.6952 -0.4292
  189SLPC  C31321888   3.046   4.068   7.687  0.6432  0.5489 -0.3727
  189SLPC  H13X21889   3.150   4.097   7.659  0.3319  1.2378 -0.8482
  189SLPC  H13Y21890   2.975   4.119   7.618  0.6684  1.5941  0.3707
  189SLPC  C31421891   3.009   3.918   7.685  0.2341  0.0498  0.0763
  189SLPC  H14X21892   2.910   3.891   7.728  1.4210 -1.2918  2.0133
  189SLPC  H14Y21893   3.092   3.880   7.748  0.6039  1.1501  0.2564
  189SLPC  C31521894   3.024   3.860   7.537  0.6095  0.3462 -0.1573
  189SLPC  H15X21895   3.115   3.913   7.503 -0.9090  3.2586  0.1587
  189SLPC  H15Y21896   2.935   3.894   7.479 -0.8001 -1.0051  1.1572
  189SLPC  C31621897   3.040   3.711   7.538  0.4864  0.1235 -0.6591
  189SLPC  H16X21898   2.955   3.662   7.591  0.0033  3.0973  1.4215
  189SLPC  H16Y21899   3.122   3.673   7.602 -0.7671  1.5883  1.8641
  189SLPC  C31721900   3.070   3.661   7.389  0.3259 -0.6229  0.3168
  189SLPC  H17X21901   3.094   3.552   7.382  2.2296 -0.0789 -2.2240
  189SLPC  H17Y21902   3.165   3.709   7.356 -0.0402 -0.1042  0.0195
  189SLPC  C31821903   2.953   3.677   7.285 -0.3409 -0.1594 -0.6088
  189SLPC  H18X21904   2.927   3.785   7.286  2.1164  0.4900 -2.6168
  189SLPC  H18Y21905   2.858   3.628   7.317  0.5612  0.3507  3.1500
  189SLPC  H18Z21906   2.983   3.654   7.181  1.8066  1.2906 -0.3408
  190SLPC     N21907   3.918   3.308   6.148  0.1989  0.7436 -0.0068
  190SLPC   C1321908   3.943   3.174   6.079 -0.1379  1.2765  0.0751
  190SLPC  H13A21909   3.984   3.177   5.979 -0.7685 -0.3052 -0.2320
  190SLPC  H13B21910   4.012   3.114   6.137 -0.1614 -0.0292 -1.2367
  190SLPC  H13C21911   3.847   3.126   6.072  0.1235  0.1848  3.0444
  190SLPC   C1421912   3.860   3.409   6.052 -0.0934  0.4563 -0.1538
  190SLPC  H14A21913   3.788   3.356   5.992  0.5247 -2.2089  1.3785
  190SLPC  H14B21914   3.802   3.482   6.107 -0.7313  2.4157 -3.3114
  190SLPC  H14C21915   3.934   3.454   5.988 -0.0511  1.2104  0.4098
  190SLPC   C1521916   4.047   3.362   6.182  0.0626 -0.3170 -0.5550
  190SLPC  H15A21917   4.092   3.306   6.263 -1.4909  0.8762  1.1725
  190SLPC  H15B21918   4.119   3.369   6.102  1.3687 -0.4608  0.5842
  190SLPC  H15C21919   4.036   3.458   6.229 -1.7811 -1.1566  0.7974
  190SLPC   C1221920   3.831   3.294   6.271  0.7255 -0.7912 -0.5588
  190SLPC  H12A21921   3.850   3.201   6.322 -0.2347 -1.1447 -0.8520
  190SLPC  H12B21922   3.728   3.283   6.243 -0.1374  0.6114  1.8942
  190SLPC   C1121923   3.843   3.414   6.371  0.1102  0.3507  0.1270
  190SLPC  H11A21924   3.951   3.412   6.398 -0.1195 -1.2493  0.9486
  190SLPC  H11B21925   3.800   3.389   6.470 -0.5711  1.1582  0.0388
  190SLPC     P21926   3.653   3.578   6.330 -0.1898  0.1251 -0.1164
  190SLPC   O1321927   3.629   3.716   6.295  0.2466 -0.4618  0.0805
  190SLPC   O1421928   3.588   3.477   6.245 -0.2119  0.5836 -0.6897
  190SLPC   O1221929   3.808   3.548   6.329 -0.5176 -0.1004 -0.5520
  190SLPC   O1121930   3.617   3.555   6.477 -0.3076 -0.1873 -0.0737
  190SLPC    C121931   3.645   3.656   6.582 -0.0327  0.2101  0.5555
  190SLPC    HA21932   3.750   3.658   6.617  0.3346 -1.0293 -0.4277
  190SLPC    HB21933   3.622   3.759   6.547 -0.8274  0.2706  1.2260
  190SLPC    C221934   3.559   3.642   6.708  0.6509  0.2839 -0.5081
  190SLPC    HS21935   3.577   3.727   6.777 -0.3340 -0.1899  0.3646
  190SLPC   O2121936   3.577   3.514   6.778  0.4228 -0.2914 -0.3264
  190SLPC   C2121937   3.691   3.505   6.843  0.3148  0.5847  0.2529
  190SLPC   O2221938   3.783   3.590   6.841  0.2541  0.2916 -0.1746
  190SLPC   C2221939   3.693   3.375   6.918 -0.2300 -0.1431 -0.5810
  190SLPC   H2R21940   3.595   3.364   6.968  0.5086  0.4755  1.0305
  190SLPC   H2S21941   3.697   3.310   6.828  1.8971 -0.4183 -0.3163
  190SLPC    C321942   3.410   3.657   6.665  0.3816 -0.4261 -0.4416
  190SLPC    HX21943   3.390   3.574   6.594 -0.0296  0.8326 -1.8042
  190SLPC    HY21944   3.393   3.747   6.602  2.7927 -0.4193 -1.1546
  190SLPC   O3121945   3.319   3.663   6.781 -0.1483  0.1162  0.7042
  190SLPC   C3121946   3.242   3.558   6.797  0.2813  0.3312  0.2302
  190SLPC   O3221947   3.242   3.461   6.722 -0.1905  0.2166 -0.1352
  190SLPC   C3221948   3.169   3.582   6.927 -0.2327  0.3912 -0.3601
  190SLPC   H2X21949   3.062   3.554   6.911 -0.4588  0.0240  1.6606
  190SLPC   H2Y21950   3.155   3.691   6.943 -1.8626 -0.1970  2.7509
  190SLPC   C2321951   3.813   3.357   7.013 -0.1227 -0.8097  0.0375
  190SLPC   H3R21952   3.912   3.372   6.964 -1.0498  0.4746 -1.4669
  190SLPC   H3S21953   3.807   3.252   7.049 -1.8240  0.0434  2.4150
  190SLPC   C2421954   3.813   3.451   7.129  0.1588 -0.2617  0.0253
  190SLPC   H4R21955   3.709   3.458   7.169  1.0020  1.5386  1.9758
  190SLPC   H4S21956   3.844   3.554   7.102  1.1466 -0.8145 -1.0086
  190SLPC   C2521957   3.901   3.395   7.245 -0.4866  0.2275 -0.2448
  190SLPC   H5R21958   4.009   3.387   7.217 -0.4683 -1.2410  0.1989
  190SLPC   H5S21959   3.866   3.291   7.261 -1.2819  0.1514 -2.2949
  190SLPC   C2621960   3.883   3.477   7.376  0.6342 -0.2466  0.0222
  190SLPC   H6R21961   3.779   3.477   7.415  1.0744  0.3206  1.2137
  190SLPC   H6S21962   3.915   3.578   7.343  2.2327  0.0076  2.2632
  190SLPC   C2721963   3.989   3.436   7.478 -0.7145 -0.1538 -0.5009
  190SLPC   H7R21964   4.003   3.515   7.555  0.8514 -2.8184  2.0868
  190SLPC   H7S21965   4.093   3.421   7.440  0.5575  1.0297  2.3482
  190SLPC   C2821966   3.954   3.313   7.562  0.9268  1.2929 -0.7167
  190SLPC   H8R21967   3.987   3.219   7.512 -0.1340  1.1682 -1.1850
  190SLPC   H8S21968   3.844   3.311   7.578  0.7036 -4.0440 -2.0247
  190SLPC   C2921969   4.031   3.311   7.692  0.7209  0.7363 -0.0654
  190SLPC   H9R21970   4.131   3.265   7.694 -0.1636 -1.2244 -0.2375
  190SLPC  C21021971   3.972   3.352   7.808 -0.0627  0.5096 -0.1585
  190SLPC  H10R21972   4.032   3.352   7.901  0.2120 -1.4228 -0.3175
  190SLPC  C21121973   3.831   3.417   7.819  0.2613 -0.2244 -0.6147
  190SLPC  H11R21974   3.778   3.359   7.898  1.7071 -2.2815 -1.1210
  190SLPC  H11S21975   3.778   3.396   7.723  1.1628 -1.0753 -0.9415
  190SLPC  C21221976   3.835   3.560   7.864 -0.3264 -0.1498  0.6820
  190SLPC  H12R21977   3.854   3.634   7.785  0.6595 -0.5676  0.5195
  190SLPC  C21321978   3.824   3.616   7.987  0.2911  0.3499 -0.2326
  190SLPC  H13R21979   3.810   3.725   7.995  0.5381  0.2550  1.7896
  190SLPC  C21421980   3.796   3.533   8.113 -0.1809 -0.2374 -0.2770
  190SLPC  H14R21981   3.886   3.544   8.178  1.2137 -1.7687 -1.8986
  190SLPC  H14S21982   3.790   3.423   8.097  2.9188 -0.1429 -2.5673
  190SLPC  C21521983   3.667   3.592   8.187 -0.0063  0.1588  0.9976
  190SLPC  H15R21984   3.579   3.588   8.119 -0.3299  1.6473  1.3124
  190SLPC  H15S21985   3.680   3.701   8.208  0.2159  0.6072 -1.3194
  190SLPC  C21621986   3.642   3.510   8.317 -0.6222  0.5272  0.2070
  190SLPC  H16R21987   3.725   3.527   8.389 -1.7777  1.0011  1.4487
  190SLPC  H16S21988   3.637   3.401   8.293  0.4295  0.2116  1.3539
  190SLPC  C21721989   3.503   3.539   8.393  0.5631  0.1183  0.1306
  190SLPC  H17R21990   3.496   3.474   8.483  1.0841 -2.0302 -1.3424
  190SLPC  H17S21991   3.423   3.503   8.324  0.7158 -2.2692  1.1534
  190SLPC  C21821992   3.477   3.688   8.425  0.1158  0.4663 -0.0519
  190SLPC  H18R21993   3.551   3.718   8.502 -0.2248 -0.0540  0.4819
  190SLPC  H18S21994   3.374   3.691   8.466  0.0620  0.0897 -0.1541
  190SLPC  H18T21995   3.477   3.753   8.334  2.0390  1.8918  0.9269
  190SLPC   C3321996   3.228   3.510   7.044  0.5798  0.2194 -0.0503
  190SLPC   H3X21997   3.237   3.400   7.033  2.3996  0.2167  1.2669
  190SLPC   H3Y21998   3.161   3.549   7.124 -1.5755  1.0812 -2.2337
  190SLPC   C3421999   3.369   3.569   7.078  0.1138  0.1442  0.3724
  190SLPC   H4X22000   3.376   3.676   7.052  0.7751 -0.3538 -1.5668
  190SLPC   H4Y22001   3.435   3.521   7.002 -1.7271  2.3203 -2.6980
  190SLPC   C3522002   3.418   3.536   7.222  0.3870 -0.4893  0.2350
  190SLPC   H5X22003   3.384   3.623   7.283 -0.9040 -1.8573  1.5199
  190SLPC   H5Y22004   3.528   3.549   7.222  0.6888 -2.7488  1.3678
  190SLPC   C3622005   3.381   3.403   7.297  0.6666  0.0280 -0.2873
  190SLPC   H6X22006   3.420   3.317   7.240  1.3157 -0.4595  0.8805
  190SLPC   H6Y22007   3.271   3.387   7.289  1.0086 -1.9990 -1.0747
  190SLPC   C3722008   3.429   3.414   7.439  0.2715  0.2389 -0.2534
  190SLPC   H7X22009   3.442   3.516   7.482 -2.1602  0.5035 -0.0483
  190SLPC   H7Y22010   3.523   3.356   7.450 -0.6227 -1.5326 -1.7048
  190SLPC   C3822011   3.319   3.358   7.530 -0.3283  0.0222  0.6720
  190SLPC   H8X22012   3.297   3.257   7.489  1.8899 -0.1366 -0.2207
  190SLPC   H8Y22013   3.229   3.422   7.519 -1.1032 -0.6005  3.1227
  190SLPC   C3922014   3.343   3.352   7.687 -0.2034 -0.2905  0.4995
  190SLPC   H9X22015   3.407   3.263   7.707  0.0529  0.0301  1.1312
  190SLPC   H9Y22016   3.252   3.321   7.745 -0.5897  0.2563  0.1856
  190SLPC  C31022017   3.382   3.490   7.748  0.6178  0.4470 -0.0395
  190SLPC  H10X22018   3.306   3.570   7.735 -2.0594 -1.6801  2.1443
  190SLPC  H10Y22019   3.478   3.528   7.705  2.1609 -0.5825  2.3783
  190SLPC  C31122020   3.423   3.474   7.893 -0.0130  0.0666 -0.3208
  190SLPC  H11X22021   3.469   3.572   7.918  2.0650 -1.3797  1.7276
  190SLPC  H11Y22022   3.495   3.392   7.912 -0.6238 -0.5798 -0.7725
  190SLPC  C31222023   3.297   3.458   7.977  0.4299 -0.2258 -0.0062
  190SLPC  H12X22024   3.319   3.380   8.053  0.9820 -0.8716 -0.8163
  190SLPC  H12Y22025   3.208   3.433   7.916  1.0348  0.1143 -1.0486
  190SLPC  C31322026   3.258   3.581   8.069  0.6683  0.0127 -0.1962
  190SLPC  H13X22027   3.350   3.592   8.130  0.3931 -1.6765  0.5759
  190SLPC  H13Y22028   3.180   3.529   8.129 -0.4564  2.5314  0.5922
  190SLPC  C31422029   3.212   3.712   7.996  0.3234 -0.4889  0.0970
  190SLPC  H14X22030   3.127   3.695   7.926 -0.8350 -0.5279  1.4957
  190SLPC  H14Y22031   3.295   3.747   7.931 -0.1981 -2.1891 -1.5394
  190SLPC  C31522032   3.187   3.840   8.078 -0.2082 -0.2975 -0.4887
  190SLPC  H15X22033   3.152   3.924   8.015 -2.8357 -1.1979 -0.3124
  190SLPC  H15Y22034   3.288   3.872   8.112  0.6062 -1.5181 -1.7218
  190SLPC  C31622035   3.103   3.813   8.211  0.1833 -0.3631  0.5870
  190SLPC  H16X22036   3.097   3.895   8.286  2.0686 -0.9899  1.4518
  190SLPC  H16Y22037   3.152   3.734   8.272  1.1998 -0.4146 -0.2953
  190SLPC  C31722038   2.961   3.763   8.169 -0.4966  0.9532 -0.6467
  190SLPC  H17X22039   2.973   3.669   8.111 -0.2391 -0.6365  1.9303
  190SLPC  H17Y22040   2.913   3.836   8.100 -1.2859  0.0081 -1.1035
  190SLPC  C31822041   2.860   3.743   8.281  0.7605 -0.0222 -0.0215
  190SLPC  H18X22042   2.762   3.711   8.242  0.6076  0.3466  0.0583
  190SLPC  H18Y22043   2.822   3.834   8.332  1.9522 -0.2318  1.2967
  190SLPC  H18Z22044   2.884   3.667   8.359  1.1041 -0.8365 -0.9216
  191SLPC     N22045   3.656   6.021   6.138  0.3806 -0.0685 -0.2991
  191SLPC   C1322046   3.768   5.946   6.214  0.1467  0.2320  0.3795
  191SLPC  H13A22047   3.810   6.004   6.294  0.3336  1.7071 -0.7705
  191SLPC  H13B22048   3.731   5.852   6.254 -2.6170  0.5913 -1.1919
  191SLPC  H13C22049   3.846   5.919   6.145 -1.2828 -0.1917 -1.1126
  191SLPC   C1422050   3.605   5.930   6.034 -0.5172 -0.9974  0.0931
  191SLPC  H14A22051   3.552   5.847   6.079  1.0650 -1.4534  1.1690
  191SLPC  H14B22052   3.533   5.988   5.977  0.8141  0.1867 -0.4201
  191SLPC  H14C22053   3.682   5.889   5.970  0.8386  1.0041  0.3660
  191SLPC   C1522054   3.712   6.138   6.066 -0.2060  0.2442  0.8788
  191SLPC  H15A22055   3.637   6.199   6.019  0.7234  0.5363 -0.2599
  191SLPC  H15B22056   3.753   6.203   6.142 -1.8101  2.5003 -0.1362
  191SLPC  H15C22057   3.778   6.089   5.995 -0.1143  1.0058  0.4366
  191SLPC   C1222058   3.544   6.063   6.235 -0.3524 -0.1303 -0.3855
  191SLPC  H12A22059   3.578   6.129   6.314  0.8020 -1.4813  0.2736
  191SLPC  H12B22060   3.501   5.978   6.286  0.7367 -0.2814  0.2977
  191SLPC   C1122061   3.407   6.138   6.195 -0.0446  0.0946 -0.0775
  191SLPC  H11A22062   3.431   6.246   6.184 -1.2790  0.0902 -3.7125
  191SLPC  H11B22063   3.347   6.131   6.288  0.1116 -1.1880 -0.0634
  191SLPC     P22064   3.252   6.167   5.984 -0.1480  0.3282  0.2104
  191SLPC   O1322065   3.345   6.239   5.895  0.1959  0.3379  0.1116
  191SLPC   O1422066   3.144   6.086   5.913 -0.4232 -0.2683 -0.5766
  191SLPC   O1222067   3.337   6.080   6.084 -0.2998  0.2484  0.2678
  191SLPC   O1122068   3.194   6.279   6.077 -0.2205  0.1929  0.0984
  191SLPC    C122069   3.059   6.297   6.114 -0.6406  0.3574 -0.5039
  191SLPC    HA22070   3.030   6.404   6.103 -1.1618  0.4036  1.2778
  191SLPC    HB22071   2.992   6.232   6.054 -1.1652  0.5693 -0.1534
  191SLPC    C222072   3.030   6.281   6.269 -0.1563  0.6428  0.0754
  191SLPC    HS22073   2.934   6.337   6.277 -0.8340 -0.6280  1.0640
  191SLPC   O2122074   3.135   6.345   6.354 -0.6862 -0.8311 -0.3738
  191SLPC   C2122075   3.123   6.473   6.378  0.4569  0.6626  0.2651
  191SLPC   O2222076   3.041   6.550   6.331  0.5699  0.0868  0.6730
  191SLPC   C2222077   3.231   6.513   6.485 -0.4634  0.7305  0.2355
  191SLPC   H2R22078   3.211   6.446   6.571 -3.1765  0.5557 -0.4724
  191SLPC   H2S22079   3.329   6.487   6.440  0.0724  3.0510 -0.0191
  191SLPC    C322080   3.014   6.136   6.318 -0.5935  0.0402  0.0839
  191SLPC    HX22081   3.111   6.089   6.291 -1.3428 -0.5919 -1.5659
  191SLPC    HY22082   2.936   6.093   6.252 -0.4534 -3.0494  1.8468
  191SLPC   O3122083   2.987   6.124   6.466 -0.0188  0.1154 -0.4194
  191SLPC   C3122084   2.967   5.991   6.498 -0.2658 -0.7121 -0.4909
  191SLPC   O3222085   2.974   5.906   6.407 -0.3878  0.5606  0.3694
  191SLPC   C3222086   2.933   5.975   6.651 -0.0976 -0.6493 -0.0608
  191SLPC   H2X22087   2.974   5.882   6.697 -0.5254 -0.3668  0.9056
  191SLPC   H2Y22088   2.822   5.975   6.654 -0.1466  2.0985 -0.8931
  191SLPC   C2322089   3.259   6.661   6.532  0.3848 -0.0562 -0.1661
  191SLPC   H3R22090   3.288   6.733   6.452 -0.1483 -0.6302 -0.8804
  191SLPC   H3S22091   3.334   6.640   6.611 -0.6649 -0.4809  0.7338
  191SLPC   C2422092   3.133   6.705   6.609 -0.0126 -0.1192 -0.4494
  191SLPC   H4R22093   3.100   6.623   6.677 -1.5031  0.4911 -0.4335
  191SLPC   H4S22094   3.050   6.718   6.536  0.1840  0.1389 -0.6274
  191SLPC   C2522095   3.152   6.833   6.686  0.1734  0.3142 -0.1326
  191SLPC   H5R22096   3.058   6.893   6.688 -0.1679 -0.2503  1.5917
  191SLPC   H5S22097   3.232   6.891   6.635 -0.7589 -0.2505 -2.3279
  191SLPC   C2622098   3.190   6.813   6.833  0.0832  0.8057 -0.0396
  191SLPC   H6R22099   3.239   6.907   6.867  1.8835  0.1097 -0.6658
  191SLPC   H6S22100   3.277   6.744   6.836  0.1829  0.9309 -0.0546
  191SLPC   C2722101   3.079   6.768   6.937 -0.5204  0.0271 -0.3800
  191SLPC   H7R22102   3.027   6.682   6.889  0.3823 -0.0309 -1.2639
  191SLPC   H7S22103   2.993   6.838   6.950 -2.0902 -2.1557  1.5030
  191SLPC   C2822104   3.144   6.722   7.068  0.6009 -0.2331  0.1362
  191SLPC   H8R22105   3.166   6.810   7.132 -2.8425  0.9303 -0.2102
  191SLPC   H8S22106   3.239   6.669   7.044  0.9061  0.0530  0.6873
  191SLPC   C2922107   3.053   6.637   7.143  0.0228  0.2019  0.0690
  191SLPC   H9R22108   3.045   6.532   7.111 -0.3529 -0.1406  1.2658
  191SLPC  C21022109   2.962   6.676   7.237 -0.5209  0.5098 -0.5020
  191SLPC  H10R22110   2.911   6.595   7.291  1.4314  0.5060  1.3763
  191SLPC  C21122111   2.938   6.812   7.300  0.5544  0.1318 -0.6247
  191SLPC  H11R22112   2.873   6.871   7.232  0.4195 -0.8628 -1.3754
  191SLPC  H11S22113   3.036   6.865   7.299  1.5369 -1.5806  1.2169
  191SLPC  C21222114   2.874   6.816   7.442 -0.3442 -0.6578 -0.2646
  191SLPC  H12R22115   2.780   6.874   7.445 -0.6117 -1.0678 -0.7261
  191SLPC  C21322116   2.918   6.760   7.554 -0.1054  0.0046 -0.2415
  191SLPC  H13R22117   2.858   6.767   7.646  3.2101 -0.7479  2.0768
  191SLPC  C21422118   3.038   6.678   7.579 -0.0640 -0.3744 -0.3004
  191SLPC  H14R22119   3.079   6.623   7.491  2.8267 -0.6196  1.1383
  191SLPC  H14S22120   3.016   6.601   7.656  2.5500  0.7366  1.6425
  191SLPC  C21522121   3.159   6.757   7.640 -0.6973 -0.0989  0.2044
  191SLPC  H15R22122   3.184   6.845   7.576 -3.2056  0.7337  0.3372
  191SLPC  H15S22123   3.251   6.694   7.646 -0.5652 -0.0378 -1.0979
  191SLPC  C21622124   3.125   6.816   7.779  0.0191  0.3399 -0.7155
  191SLPC  H16R22125   3.096   6.725   7.836 -0.8523  1.1549  0.1491
  191SLPC  H16S22126   3.048   6.894   7.762 -1.9475 -1.1854  0.9375
  191SLPC  C21722127   3.246   6.889   7.833  0.0735  0.2887  0.3874
  191SLPC  H17R22128   3.220   6.962   7.913  0.4359  0.8039  0.0368
  191SLPC  H17S22129   3.279   6.953   7.749  1.2432 -1.3018 -0.3959
  191SLPC  C21822130   3.359   6.802   7.885 -0.4068  0.0550  0.1153
  191SLPC  H18R22131   3.443   6.861   7.927  0.3720  0.2984 -1.7445
  191SLPC  H18S22132   3.396   6.741   7.800 -0.2883  0.2717  0.0111
  191SLPC  H18T22133   3.320   6.731   7.961 -1.6302 -1.5305 -1.9369
  191SLPC   C3322134   2.977   6.097   6.735  0.6646  0.0766 -0.1797
  191SLPC   H3X22135   2.927   6.188   6.695 -1.8182 -2.1422 -2.3690
  191SLPC   H3Y22136   3.087   6.111   6.728  0.8817 -1.6691 -0.4383
  191SLPC   C3422137   2.948   6.070   6.885 -0.0926  0.0312  0.3738
  191SLPC   H4X22138   2.941   5.959   6.896  1.1472 -0.0523  0.4378
  191SLPC   H4Y22139   2.843   6.094   6.911 -0.4193 -0.8812 -0.0820
  191SLPC   C3522140   3.050   6.140   6.983 -0.3304  0.1666 -0.2644
  191SLPC   H5X22141   3.028   6.249   6.978  1.2818  0.6139  1.5908
  191SLPC   H5Y22142   3.155   6.123   6.951 -0.1864  0.4992  0.0281
  191SLPC   C3622143   3.045   6.093   7.127  0.1928 -0.5139  0.2369
  191SLPC   H6X22144   3.147   6.072   7.164 -0.1129 -0.6665  1.0089
  191SLPC   H6Y22145   2.981   6.003   7.143 -0.8479  0.5153  2.0361
  191SLPC   C3722146   2.979   6.196   7.223  0.1372  0.1493 -0.4305
  191SLPC   H7X22147   2.874   6.219   7.193  0.8499  2.0312 -1.6040
  191SLPC   H7Y22148   3.031   6.293   7.210 -0.1098  0.2498 -0.6859
  191SLPC   C3822149   2.994   6.155   7.367 -0.4560  0.6241 -0.2020
  191SLPC   H8X22150   3.099   6.120   7.375 -1.3997 -1.7204  3.0614
  191SLPC   H8Y22151   2.931   6.064   7.373 -1.2689  1.0827 -1.5129
  191SLPC   C3922152   2.947   6.260   7.464  0.2868  0.1865 -0.0287
  191SLPC   H9X22153   2.839   6.286   7.453 -0.6496 -0.8945  5.1248
  191SLPC   H9Y22154   3.006   6.351   7.439 -0.7631  1.1851  1.0007
  191SLPC  C31022155   2.969   6.229   7.614 -0.2124 -0.2248  0.0414
  191SLPC  H10X22156   3.076   6.255   7.634  0.0033 -1.4026  0.4785
  191SLPC  H10Y22157   2.941   6.123   7.632 -0.0161 -0.0948  1.1872
  191SLPC  C31122158   2.885   6.319   7.700  0.3472 -0.3278 -0.2600
  191SLPC  H11X22159   2.787   6.270   7.717  0.4328 -0.0149  1.2339
  191SLPC  H11Y22160   2.866   6.418   7.654  0.8116 -1.2405 -2.4758
  191SLPC  C31222161   2.947   6.340   7.842  0.3502 -0.3966  0.3655
  191SLPC  H12X22162   3.056   6.364   7.839  1.0582 -3.3211  1.3980
  191SLPC  H12Y22163   2.957   6.244   7.897  1.0983 -0.2390  0.5123
  191SLPC  C31322164   2.856   6.440   7.917  0.4739  0.0949 -0.4422
  191SLPC  H13X22165   2.754   6.398   7.933 -0.8115  2.3317 -2.3799
  191SLPC  H13Y22166   2.842   6.530   7.852  0.9900 -0.5456 -1.4619
  191SLPC  C31422167   2.919   6.496   8.043 -0.3851  0.2902  1.1249
  191SLPC  H14X22168   3.003   6.563   8.013  0.2076 -0.9277  0.0024
  191SLPC  H14Y22169   2.957   6.408   8.099  0.1610 -1.0829 -1.3286
  191SLPC  C31522170   2.819   6.575   8.133  0.5129 -0.0460  0.0935
  191SLPC  H15X22171   2.881   6.581   8.225 -0.6603 -0.5871  0.9429
  191SLPC  H15Y22172   2.732   6.510   8.159 -1.9767  3.7324  1.6682
  191SLPC  C31622173   2.775   6.711   8.089 -0.2252  0.5793 -0.0263
  191SLPC  H16X22174   2.684   6.699   8.026 -0.8268 -0.6089  1.0654
  191SLPC  H16Y22175   2.857   6.757   8.029 -0.7302  3.2330  1.2222
  191SLPC  C31722176   2.740   6.803   8.209  0.2500 -0.0177 -0.2419
  191SLPC  H17X22177   2.703   6.893   8.157  1.2365  0.8067  0.4656
  191SLPC  H17Y22178   2.837   6.805   8.263 -0.8952  1.9770  1.7764
  191SLPC  C31822179   2.628   6.742   8.298  0.3322 -0.4724  0.1492
  191SLPC  H18X22180   2.670   6.646   8.336  1.0177 -0.6450 -1.0147
  191SLPC  H18Y22181   2.529   6.721   8.254 -0.2268  0.4861  0.9254
  191SLPC  H18Z22182   2.610   6.800   8.391 -1.3303  1.1114 -1.1213
  192SLPC     N22183   4.473   6.118   6.170 -0.0989 -0.4432 -0.6051
  192SLPC   C1322184   4.357   6.207   6.136  0.2295 -0.0638 -0.4314
  192SLPC  H13A22185   4.382   6.300   6.186  0.1055  0.5415 -1.4755
  192SLPC  H13B22186   4.342   6.218   6.029 -1.9607  2.3285  0.0805
  192SLPC  H13C22187   4.261   6.187   6.181  0.2202 -2.3787 -1.4233
  192SLPC   C1422188   4.597   6.158   6.098  1.2589  0.6570  0.0578
  192SLPC  H14A22189   4.665   6.073   6.099  0.7681  0.2678  0.9128
  192SLPC  H14B22190   4.571   6.180   5.996  1.2552  0.7833  0.0858
  192SLPC  H14C22191   4.641   6.249   6.137  2.2610  0.8930 -1.5783
  192SLPC   C1522192   4.426   5.978   6.119  0.5369 -0.0290  0.5903
  192SLPC  H15A22193   4.406   5.989   6.013 -0.8286  0.9002  0.9281
  192SLPC  H15B22194   4.494   5.900   6.149  1.1094  1.0435  2.1711
  192SLPC  H15C22195   4.324   5.964   6.150  0.0520  0.9859 -0.4910
  192SLPC   C1222196   4.495   6.126   6.323  0.2296 -0.6152 -0.1043
  192SLPC  H12A22197   4.522   6.225   6.357 -1.4247 -0.0577 -0.3424
  192SLPC  H12B22198   4.576   6.062   6.352  0.2154 -0.1173  1.0451
  192SLPC   C1122199   4.375   6.072   6.416 -0.6707 -0.5364 -0.3031
  192SLPC  H11A22200   4.409   6.061   6.522 -1.1569 -2.3933 -0.3233
  192SLPC  H11B22201   4.362   5.968   6.381  0.0224 -1.8517  3.1434
  192SLPC     P22202   4.249   6.296   6.478 -0.1640 -0.2356  0.0884
  192SLPC   O1322203   4.293   6.291   6.615  0.1311  0.3946 -0.0671
  192SLPC   O1422204   4.316   6.397   6.391 -0.0479  0.0115  0.2535
  192SLPC   O1222205   4.262   6.155   6.404  0.4038  0.2599  0.4262
  192SLPC   O1122206   4.094   6.325   6.469 -0.2130  0.0515  0.0746
  192SLPC    C122207   4.001   6.220   6.497  0.1555  0.2179 -0.0698
  192SLPC    HA22208   3.956   6.192   6.399  2.2863  0.2181 -1.0696
  192SLPC    HB22209   4.037   6.126   6.543 -0.4552  0.1550  0.2952
  192SLPC    C222210   3.878   6.279   6.582  0.0329 -0.2969  0.5807
  192SLPC    HS22211   3.831   6.365   6.530 -1.1427  0.4067  2.7366
  192SLPC   O2122212   3.926   6.291   6.717  0.1264 -0.2113  0.2059
  192SLPC   C2122213   3.869   6.393   6.792 -0.5379  0.0314  0.0193
  192SLPC   O2222214   3.805   6.486   6.743 -0.2252 -0.6449  0.5387
  192SLPC   C2222215   3.895   6.363   6.941 -0.9291 -0.3384  0.4659
  192SLPC   H2R22216   3.835   6.272   6.961  1.4124 -1.9486  0.3442
  192SLPC   H2S22217   4.003   6.356   6.962 -1.4439 -0.9161  3.0164
  192SLPC    C322218   3.772   6.168   6.593 -0.3048  0.1213 -0.1853
  192SLPC    HX22219   3.818   6.080   6.643 -1.6980  0.9421  2.6256
  192SLPC    HY22220   3.749   6.126   6.492 -0.3328  0.8497 -0.4832
  192SLPC   O3122221   3.660   6.214   6.674  0.2262 -0.0154  1.0926
  192SLPC   C3122222   3.552   6.260   6.615 -0.8354 -0.1756 -0.0160
  192SLPC   O3222223   3.535   6.261   6.494 -0.3344  0.1516  0.3429
  192SLPC   C3222224   3.452   6.314   6.709 -0.0091 -0.7598 -0.4201
  192SLPC   H2X22225   3.350   6.272   6.697  0.0851 -0.5383 -2.0436
  192SLPC   H2Y22226   3.454   6.425   6.705 -0.2147 -0.7745 -0.9534
  192SLPC   C2322227   3.850   6.489   7.017 -0.4046 -0.4892 -0.5073
  192SLPC   H3R22228   3.744   6.507   6.987 -0.9991 -1.5412  0.8857
  192SLPC   H3S22229   3.919   6.573   6.995 -0.4485 -0.4176 -0.3742
  192SLPC   C2422230   3.863   6.472   7.169 -0.0821  0.1297 -0.7605
  192SLPC   H4R22231   3.967   6.464   7.207  0.3284 -0.1557 -1.8972
  192SLPC   H4S22232   3.807   6.383   7.206  0.1751 -0.1969 -1.1519
  192SLPC   C2522233   3.803   6.587   7.243  0.2749 -0.1836  0.2522
  192SLPC   H5R22234   3.696   6.565   7.261 -0.3269  2.0804 -0.4056
  192SLPC   H5S22235   3.816   6.685   7.192 -0.7413 -0.8643 -1.3577
  192SLPC   C2622236   3.860   6.597   7.386 -0.2249  1.0321 -0.4770
  192SLPC   H6R22237   3.813   6.684   7.436 -2.3549 -1.1355  1.4225
  192SLPC   H6S22238   3.971   6.601   7.381 -0.1062 -1.2065 -0.1498
  192SLPC   C2722239   3.804   6.489   7.487 -0.3303 -0.1194  0.6548
  192SLPC   H7R22240   3.839   6.393   7.443 -1.8958 -1.8798  3.1705
  192SLPC   H7S22241   3.694   6.494   7.499 -0.4837 -0.6599 -0.4425
  192SLPC   C2822242   3.872   6.500   7.622  0.4851  0.3937 -0.4549
  192SLPC   H8R22243   3.979   6.500   7.595  0.6021  0.4868 -0.0040
  192SLPC   H8S22244   3.859   6.406   7.679 -0.7899  0.8074 -0.0387
  192SLPC   C2922245   3.846   6.611   7.705 -0.0880 -0.7237  0.6664
  192SLPC   H9R22246   3.867   6.712   7.667  0.7758 -0.4681  1.7986
  192SLPC  C21022247   3.773   6.609   7.826  0.1563  0.2011 -0.1231
  192SLPC  H10R22248   3.762   6.707   7.875  2.0621  0.8048 -0.8551
  192SLPC  C21122249   3.715   6.489   7.898 -0.5551 -0.1119  0.0671
  192SLPC  H11R22250   3.719   6.408   7.823  0.2958  1.4870 -1.6411
  192SLPC  H11S22251   3.608   6.510   7.919 -0.6358 -1.6963  1.3676
  192SLPC  C21222252   3.781   6.464   8.029 -0.1719 -0.4765 -0.5057
  192SLPC  H12R22253   3.890   6.456   8.017 -0.1431  0.6911 -1.0807
  192SLPC  C21322254   3.719   6.431   8.151  0.6279 -0.4820  0.1585
  192SLPC  H13R22255   3.767   6.406   8.247 -1.0107 -0.5659  0.9735
  192SLPC  C21422256   3.566   6.418   8.172 -0.2053 -0.6021 -0.7781
  192SLPC  H14R22257   3.542   6.338   8.246  0.4128  1.1963  1.4519
  192SLPC  H14S22258   3.509   6.391   8.081 -1.8044  2.9986 -0.9477
  192SLPC  C21522259   3.508   6.541   8.238  0.1277 -0.1883 -0.6209
  192SLPC  H15R22260   3.470   6.616   8.166  0.4443 -0.7633 -1.3976
  192SLPC  H15S22261   3.575   6.595   8.308 -0.0416  0.9310 -1.3172
  192SLPC  C21622262   3.374   6.504   8.314 -0.2201 -0.4939  0.4990
  192SLPC  H16R22263   3.384   6.417   8.383  2.9132 -1.4572 -1.0535
  192SLPC  H16S22264   3.299   6.488   8.234  0.5303  0.4861 -0.4140
  192SLPC  C21722265   3.315   6.607   8.402  0.8138 -0.2444  0.1761
  192SLPC  H17R22266   3.220   6.573   8.448  1.0414  1.0001  1.6236
  192SLPC  H17S22267   3.374   6.639   8.491 -1.4607 -0.0288  1.6360
  192SLPC  C21822268   3.276   6.744   8.328 -0.2050  0.3587 -0.8318
  192SLPC  H18R22269   3.213   6.720   8.240  0.1037  0.3873 -1.0605
  192SLPC  H18S22270   3.373   6.792   8.302  0.7984 -0.4871  1.1959
  192SLPC  H18T22271   3.221   6.800   8.407 -0.0977 -1.7474  0.7886
  192SLPC   C3322272   3.491   6.296   6.863  0.8648  0.8128 -0.4281
  192SLPC   H3X22273   3.583   6.355   6.883 -0.8166  3.2730  0.3713
  192SLPC   H3Y22274   3.506   6.189   6.888 -0.4446  0.7486  0.1165
  192SLPC   C3422275   3.387   6.346   6.963 -0.1689 -0.3441 -0.3373
  192SLPC   H4X22276   3.290   6.291   6.964 -0.8882  0.8889  0.2711
  192SLPC   H4Y22277   3.363   6.447   6.922  2.0834  1.2835  2.2358
  192SLPC   C3522278   3.454   6.344   7.100 -0.1973 -0.2343  0.7041
  192SLPC   H5X22279   3.534   6.421   7.103 -0.9547  0.6390 -1.0969
  192SLPC   H5Y22280   3.505   6.247   7.118 -1.0713 -0.5736  1.3994
  192SLPC   C3622281   3.354   6.372   7.220  0.3974 -0.0752 -0.4195
  192SLPC   H6X22282   3.295   6.280   7.238 -0.3304  0.8019  1.8854
  192SLPC   H6Y22283   3.293   6.454   7.177  1.2298 -0.2803 -2.0406
  192SLPC   C3722284   3.421   6.398   7.355  0.8062 -0.3936 -0.7466
  192SLPC   H7X22285   3.507   6.467   7.342 -0.0264  0.0650 -4.0618
  192SLPC   H7Y22286   3.466   6.302   7.391  0.4048  0.0412  0.9742
  192SLPC   C3822287   3.317   6.467   7.457  0.0574  0.2720  0.1283
  192SLPC   H8X22288   3.223   6.408   7.446 -1.6572  2.9580  0.1004
  192SLPC   H8Y22289   3.302   6.573   7.428 -3.1888 -0.3180 -0.5873
  192SLPC   C3922290   3.375   6.445   7.601 -0.4604 -0.2516 -0.2955
  192SLPC   H9X22291   3.308   6.495   7.674  1.1806 -0.0093  1.0747
  192SLPC   H9Y22292   3.478   6.486   7.615 -1.2151  0.5977  3.2621
  192SLPC  C31022293   3.382   6.310   7.651  0.6328 -0.1583 -0.5777
  192SLPC  H10X22294   3.473   6.249   7.633  0.2239 -0.7156 -0.7743
  192SLPC  H10Y22295   3.288   6.259   7.621  0.4254 -0.8477  1.1898
  192SLPC  C31122296   3.384   6.300   7.806 -0.1428 -0.0528  0.1532
  192SLPC  H11X22297   3.325   6.387   7.843  0.8344  0.1348  1.3201
  192SLPC  H11Y22298   3.486   6.321   7.846 -0.1125  1.1175 -0.5030
  192SLPC  C31222299   3.320   6.174   7.865 -0.5335  0.1545 -0.2315
  192SLPC  H12X22300   3.383   6.090   7.829 -2.5964 -2.2405  1.5581
  192SLPC  H12Y22301   3.230   6.142   7.809 -0.7174  0.5782 -0.1773
  192SLPC  C31322302   3.304   6.178   8.017 -0.0696 -1.4748 -1.0980
  192SLPC  H13X22303   3.246   6.271   8.038  0.9397 -1.3278  1.2064
  192SLPC  H13Y22304   3.399   6.190   8.075 -0.8035  1.4602 -0.3758
  192SLPC  C31422305   3.226   6.062   8.089  0.3029  0.0890  0.2684
  192SLPC  H14X22306   3.288   5.971   8.075 -1.2040 -0.6168 -2.0937
  192SLPC  H14Y22307   3.138   6.038   8.026  0.6280 -2.6532  0.7773
  192SLPC  C31522308   3.192   6.087   8.234 -0.1355  0.1878 -0.2997
  192SLPC  H15X22309   3.280   6.112   8.296 -1.5249 -1.9241  2.6359
  192SLPC  H15Y22310   3.142   5.998   8.278 -0.0968  0.0337 -0.5690
  192SLPC  C31622311   3.102   6.210   8.256  0.1896 -0.1800  0.4957
  192SLPC  H16X22312   3.017   6.220   8.186 -0.4801  1.8540  1.5811
  192SLPC  H16Y22313   3.171   6.296   8.243  0.5931 -0.4121  1.0569
  192SLPC  C31722314   3.049   6.230   8.402 -0.3764  0.0850 -0.2905
  192SLPC  H17X22315   3.134   6.236   8.472 -1.5459 -1.7051  1.3392
  192SLPC  H17Y22316   2.999   6.136   8.436 -1.8273  1.1759  0.6144
  192SLPC  C31822317   2.944   6.340   8.422 -0.1516  0.0650  0.0107
  192SLPC  H18X22318   2.899   6.340   8.523 -0.5539  3.9168 -0.1114
  192SLPC  H18Y22319   2.858   6.332   8.351 -0.3016  0.9039  0.0994
  192SLPC  H18Z22320   2.983   6.442   8.402  3.0531 -1.0877  0.0912
  193SOD    SOD22321   4.873   0.798  14.894 -0.0636 -0.4106  0.0464
  194SOD    SOD22322   0.526   0.622   4.795  0.0716  0.0720  0.1888
  195SOD    SOD22323   0.352   4.851  13.596  0.0291  0.0613  0.3314
  196SOD    SOD22324   4.062   3.916   0.290 -0.1084 -0.3180  0.2376
  197SOD    SOD22325   3.189   5.713  11.968  0.2721  0.4271 -0.2882
  198SOD    SOD22326   1.032   0.873   1.328 -0.1149 -0.2490 -0.5004
  199SOD    SOD22327   5.428   4.879   3.886  0.0990 -0.1743 -0.1186
  200SOD    SOD22328   4.758   4.103  12.075  0.1374  0.0412  0.0949
  201SOD    SOD22329   4.125   3.229  13.413 -0.0438  0.1863  0.5427
  202SOD    SOD22330   4.953   3.856  11.032  0.1840 -0.2070 -0.6585
  203SOD    SOD22331   0.344   3.000  11.858 -0.4277  0.0997  0.1318
  204SOD    SOD22332   5.103   5.552  13.167  0.3008  0.1685  0.5022
  205SOD    SOD22333   2.395   6.759   1.974 -0.0965 -0.4220  0.3238
  206SOD    SOD22334   2.416   4.126   4.614 -0.0789  0.3281 -0.3870
  207SOD    SOD22335   0.640   5.978  16.633  0.5664 -0.6537  0.3121
  208SOD    SOD22336   3.746   5.874   5.630  0.0974 -0.0959  0.4549
  209SOD    SOD22337   1.545   3.759   5.545  0.3152 -0.2226  0.2448
  210SOD    SOD22338   5.394   6.140   5.878  0.3631 -0.2844  0.7225
  211SOD    SOD22339   2.835   3.546  17.179 -0.1098 -0.0350  0.0994
  212SOD    SOD22340   4.650   5.262  15.505  0.5842  0.1506  0.4671
  213SOD    SOD22341   5.574   3.224  11.776  0.1969  0.1368 -0.1076
  214SOD    SOD22342   4.506   4.983   5.121 -0.3037 -0.3088 -0.2649
  215SOD    SOD22343   0.894   4.051  14.851 -0.4621  0.2870 -0.1518
  216SOD    SOD22344   0.847   4.401   1.188 -0.0672  0.0522  0.1659
  217SOD    SOD22345   5.530   0.201  16.040 -0.1488  0.5942 -0.1628
  218SOD    SOD22346   5.715   2.384  16.414  0.3196 -0.2292 -0.0850
  219SOD    SOD22347   5.398   2.060   4.572  0.1045 -0.0025  0.2439
  220SOD    SOD22348   0.494   5.632  11.047  0.1072 -0.1585  0.2850
  221SOD    SOD22349   2.048   4.976  10.352 -0.0924 -0.0548 -0.2953
  222SOD    SOD22350   4.302   3.773   5.424  0.1903  0.4426 -0.2411
  223SOD    SOD22351   1.426   3.438   2.220 -0.2015 -0.3546  0.1275
  224SOD    SOD22352   1.503   5.949   3.263  0.1118  0.3224  0.8206
  225SOD    SOD22353   6.796   0.040   2.312 -0.1350  0.3605  0.5141
  226SOD    SOD22354   2.545   4.191  14.120 -0.1174  0.4629  0.0724
  227SOD    SOD22355   5.972   0.990  14.545  0.2588  0.7263  0.4817
  228SOD    SOD22356   5.381   2.871   0.918 -0.2880 -0.4663  0.0434
  229SOD    SOD22357   4.955   1.924  11.104 -0.0187  0.4871 -0.0123
  230SOD    SOD22358   1.271   4.112   2.765 -0.3331  0.5212 -0.4108
  231SOD    SOD22359   1.742   6.235  16.837  0.1242 -0.0979  0.1801
  232SOD    SOD22360   5.257   3.491   3.948 -0.0043  0.0077 -0.2862
  233SOD    SOD22361   4.098   1.545  13.464 -0.0007 -0.1704 -0.1533
  234SOD    SOD22362   6.079   6.028  14.377  0.2429 -0.0113  0.5683
  235SOD    SOD22363   3.690   4.807  15.899  0.1012  0.0354 -0.0473
  236SOD    SOD22364   2.199   2.093   3.332  0.2808  0.5083 -0.3290
  237SOD    SOD22365   5.052   4.742  10.730  0.1998 -0.2662 -0.3181
  238SOD    SOD22366   1.061   4.991   4.798  0.5582  0.0164  0.5102
  239SOD    SOD22367   1.853   0.067  13.311  0.2111 -0.1829 -0.2818
  240SOD    SOD22368   5.050   4.243  13.340 -0.2831 -0.0889  0.0926
  241SOD    SOD22369   3.708   5.678  13.958 -0.0529  0.2282  0.3486
  242SOD    SOD22370   2.915   1.828   4.409  0.4210  0.1057  0.2739
  243SOD    SOD22371   4.158   5.422   5.619  0.0290 -0.1187 -0.4170
  244SOD    SOD22372   0.777   3.735  14.397 -0.0155 -0.0284 -0.2551
  245SOD    SOD22373   3.127   3.866   2.807 -0.1161 -0.1240  0.4513
  246SOD    SOD22374   5.519   0.683   6.671  0.0787 -0.3536 -0.5946
  247SOD    SOD22375   0.830   6.078  11.718 -0.1077  0.3915 -0.0621
  248SOD    SOD22376   4.335   4.088   1.801  0.0769 -0.1993 -0.4487
  249SOD    SOD22377   5.850   5.502   6.205 -0.2549 -0.0794  0.6898
  250SOD    SOD22378   4.550   2.736   2.663 -0.6348 -0.4467  0.2004
  251SOD    SOD22379   3.578   6.010   0.910 -0.8134 -0.0516 -0.2384
  252SOD    SOD22380   1.191   2.108  11.311  0.1019 -0.2634 -0.2057
  253SOD    SOD22381   6.052   2.594   2.743 -0.2539 -0.0493 -0.2693
  254SOD    SOD22382   1.698   6.505   3.403 -0.6931  0.1218 -0.0932
  255SOD    SOD22383   5.915   1.635   1.388  0.1653  0.1204  0.0439
  256SOD    SOD22384   1.854   1.680  12.113  0.0600  0.0286 -0.2458
  257SOD    SOD22385   0.537   1.993   5.362  0.2981 -0.2885 -0.1060
  258SOD    SOD22386   6.529   6.597  11.900  0.0916  0.3217  0.0331
  259SOD    SOD22387   0.794   5.974  14.113  0.3474  0.5551  0.0540
  260SOD    SOD22388   1.881   0.416   2.241  0.4101 -0.1286 -0.0566
  261SOD    SOD22389   6.386   2.001  16.410  0.5168 -0.3756  0.6788
  262SOD    SOD22390   1.119   0.510  16.387 -0.3561 -0.2041 -0.0277
  263SOD    SOD22391   6.031   4.658   5.112 -0.2946  0.1182  0.2669
  264SOD    SOD22392   1.825   4.528  15.291 -0.1512  0.1553  0.3257
  265SOD    SOD22393   2.370   0.741   2.813  0.0837  0.4002 -0.3131
  266CLA    CLA22394   2.998   0.926  13.103  0.4703  0.1272 -0.2436
  267CLA    CLA22395   1.702   6.002  16.450 -0.5667 -0.0901  0.2387
  268CLA    CLA22396   0.445   0.502   1.950 -0.1214  0.1975 -0.2863
  269CLA    CLA22397   4.898   3.954   2.261 -0.0217  0.1495  0.0785
  270CLA    CLA22398   1.979   4.316   2.808  0.4849 -0.3950 -0.1293
  271CLA    CLA22399   1.762   3.951   5.546 -0.4161 -0.1209 -0.0312
  272CLA    CLA22400   4.001   1.803   0.045 -0.1091  0.0608  0.0008
  273CLA    CLA22401   4.340   5.794   0.078 -0.2864  0.2172  0.0674
  274CLA    CLA22402   5.322   0.784  17.174 -0.5563 -0.0294  0.1108
  275CLA    CLA22403   6.316   0.825  16.561 -0.0841 -0.2357 -0.0547
  276CLA    CLA22404   5.271   1.252  14.452  0.5210 -0.0342 -0.0249
  277CLA    CLA22405   3.242   3.108  13.628  0.1891 -0.0610  0.2222
  278CLA    CLA22406   6.092   4.213   3.165 -0.1429  0.0915 -0.2928
  279CLA    CLA22407   3.502   2.775   2.885  0.3682 -0.4543  0.2247
  280CLA    CLA22408   0.759   2.950  12.616  0.2857 -0.4104  0.0119
  281CLA    CLA22409   3.074   4.985  14.382  0.0845  0.5179 -0.5018
  282CLA    CLA22410   4.493   3.396  16.287 -0.0956  0.1904 -0.1432
  283CLA    CLA22411   1.911   4.330  15.458 -0.0543  0.2444 -0.1898
  284CLA    CLA22412   5.623   4.146   4.384  0.0574 -0.3245 -0.0599
  285CLA    CLA22413   0.951   5.514   1.706  0.6358  0.0855 -0.0371
  286CLA    CLA22414   1.899   1.693   3.699 -0.2560 -0.2661 -0.2472
  287CLA    CLA22415   1.391   1.549   0.504  0.3125 -0.4868 -0.5679
  288CLA    CLA22416   4.298   3.949  15.873  0.0071  0.0405 -0.1532
  289CLA    CLA22417   4.813   0.121   3.876 -0.2014  0.0695  0.2300
  290CLA    CLA22418   3.144   4.870  15.857  0.5256 -0.0340  0.0576
  291CLA    CLA22419   0.333   6.346  12.110  0.0111 -0.2272 -0.2184
  292CLA    CLA22420   1.334   1.614  11.648  0.2241  0.4784  0.2638
  293CLA    CLA22421   3.237   5.607  13.720 -0.2653  0.0596  0.2087
  294CLA    CLA22422   6.455   5.167   4.716 -0.3888  0.2234  0.3261
  295CLA    CLA22423   5.751   4.333   5.326 -0.2061 -0.0231  0.2386
  296CLA    CLA22424   0.505   4.267  17.084 -0.3491 -0.1530 -0.2439
  297CLA    CLA22425   3.034   1.645  13.985  0.1604 -0.0875 -0.2988
  298CLA    CLA22426   2.659   6.649   0.859  0.3621  0.1348 -0.1853
  299CLA    CLA22427   2.464   5.493   3.947  0.2839  0.0003 -0.3253
  300CLA    CLA22428   1.023   4.179  12.867 -0.1655 -0.1834  0.2376
  301CLA    CLA22429   2.050   0.471   1.823  0.1381 -0.0839  0.5030
  302CLA    CLA22430   6.393   1.184  11.875 -0.0610 -0.4327  0.1018
  303CLA    CLA22431   3.660   2.724   4.704 -0.1908  0.1194 -0.2493
  304CLA    CLA22432   4.089   6.075   1.813 -0.1749 -0.0405  0.0307
  305CLA    CLA22433   4.051   2.663  14.336  0.0237 -0.2846 -0.1157
  306CLA    CLA22434   0.360   3.308  14.175 -0.2971 -0.3831 -0.3264
  307CLA    CLA22435   4.149   2.749   1.809 -0.1144 -0.3469  0.2715
  308CLA    CLA22436   5.223   1.691  14.263 -0.2440 -0.5923 -0.2573
  309CLA    CLA22437   6.526   0.693  14.327  0.1940  0.0788  0.0135
  310CLA    CLA22438   1.243   4.322  14.564 -0.2779 -0.0393 -0.0442
  311CLA    CLA22439   0.596   5.659  11.856 -0.3348 -0.4151 -0.0644
  312CLA    CLA22440   4.465   4.481  13.876 -0.0196 -0.6025 -0.0580
  313CLA    CLA22441   4.952   3.441   2.831 -0.1289  0.3037  0.2253
  314CLA    CLA22442   5.465   5.842  12.859  0.1118  0.3164 -0.3081
  315CLA    CLA22443   1.824   1.021   4.978  0.0032  0.0572 -0.1058
  316CLA    CLA22444   5.648   0.406   2.387 -0.2407 -0.1568  0.1235
  317CLA    CLA22445   5.068   1.812  13.481 -0.7459 -0.0797  0.1084
  318CLA    CLA22446   0.734   3.672  16.794  0.3510  0.0505 -0.0504
  319TIP3   OH222447   3.704   4.322   3.480  0.0596  0.1187  0.3086
  319TIP3    H122448   3.721   4.349   3.390 -0.5540  0.3887  0.2702
  319TIP3    H222449   3.636   4.254   3.473 -0.5853  0.7203  0.6193
  320TIP3   OH222450   6.067   2.376  16.289 -0.3428 -0.1587  0.0275
  320TIP3    H122451   5.983   2.393  16.247  0.3964  0.6705 -1.1588
  320TIP3    H222452   6.124   2.446  16.257  1.0788 -1.3156 -0.0114
  321TIP3   OH222453   4.320   2.183   1.597  0.0693  0.4832  0.2461
  321TIP3    H122454   4.361   2.269   1.598 -0.2326  0.6456 -0.4664
  321TIP3    H222455   4.392   2.122   1.614  0.1158  0.9315  1.6515
  322TIP3   OH222456   3.397   0.732  13.148  0.3772 -0.0068 -0.4974
  322TIP3    H122457   3.308   0.744  13.180 -0.0364 -0.8096 -1.3349
  322TIP3    H222458   3.390   0.665  13.080  1.8109 -0.9804  0.2903
  323TIP3   OH222459   5.808   1.423  12.774 -0.4446 -0.3217 -0.0659
  323TIP3    H122460   5.771   1.509  12.753  0.6185  0.0213 -0.5618
  323TIP3    H222461   5.780   1.406  12.864 -1.0626  0.3229 -0.1309
  324TIP3   OH222462   6.460   5.487  16.466  0.1719  0.3731  0.5046
  324TIP3    H122463   6.458   5.481  16.561  0.3614 -1.0457  0.4300
  324TIP3    H222464   6.384   5.436  16.437  0.8956 -0.3629 -0.1336
  325TIP3   OH222465   3.499   1.782  12.508  0.2613 -0.4406 -0.1785
  325TIP3    H122466   3.486   1.689  12.488  0.4449 -0.8464  1.5015
  325TIP3    H222467   3.482   1.789  12.602  1.4475  0.9939 -0.0471
  326TIP3   OH222468   6.537   3.743  11.095 -0.2931  0.4252 -0.5783
  326TIP3    H122469   6.611   3.801  11.078 -0.3571  0.0940 -2.0913
  326TIP3    H222470   6.504   3.720  11.008  0.4646 -2.8135 -0.0771
  327TIP3   OH222471   0.618   2.642  15.044  0.2897  0.1516  0.4438
  327TIP3    H122472   0.697   2.632  15.096  1.3516  0.0503 -1.1563
  327TIP3    H222473   0.645   2.621  14.955 -1.3611  0.8689 -0.2474
  328TIP3   OH222474   2.071   2.239   4.025 -0.4165 -0.1447 -0.4612
  328TIP3    H122475   2.155   2.275   4.055 -0.1468 -1.7379  0.7816
  328TIP3    H222476   2.006   2.280   4.081 -0.4346  0.8730 -1.2300
  329TIP3   OH222477   1.130   0.414   2.210  0.1260 -0.1835  0.3716
  329TIP3    H122478   1.178   0.489   2.176  1.1206 -0.6998  0.6089
  329TIP3    H222479   1.149   0.343   2.149  0.2778 -0.5912  0.8871
  330TIP3   OH222480   0.989   4.127   1.012 -0.2912 -0.1220  0.1456
  330TIP3    H122481   1.055   4.109   0.945  1.9794  3.2944  1.3140
  330TIP3    H222482   1.017   4.074   1.087  1.1790  1.3049  0.6323
  331TIP3   OH222483   3.053   1.275   5.752  0.1517  0.4288 -0.5736
  331TIP3    H122484   3.092   1.356   5.784  0.5463  0.0479 -0.0923
  331TIP3    H222485   3.014   1.234   5.829  2.2055 -1.1058 -0.3149
  332TIP3   OH222486   4.967   3.444   5.575 -0.0016  0.4284 -0.1600
  332TIP3    H122487   4.986   3.473   5.485 -1.9210  1.7700 -0.1550
  332TIP3    H222488   5.030   3.493   5.628  0.5215  0.3279 -0.6677
  333TIP3   OH222489   3.009   5.246  14.085 -0.1047  0.2676  0.0574
  333TIP3    H122490   3.039   5.316  14.028  0.0638  0.9260  0.9364
  333TIP3    H222491   3.084   5.227  14.141 -0.7581  0.7424  1.1248
  334TIP3   OH222492   1.970   5.261   5.612 -0.3275 -0.6032 -0.0268
  334TIP3    H122493   2.012   5.287   5.694  1.5248 -0.1286 -1.0974
  334TIP3    H222494   2.002   5.323   5.547 -0.9126 -1.6280 -1.3304
  335TIP3   OH222495   3.551   1.347   2.931 -0.0465  0.3460 -0.0103
  335TIP3    H122496   3.479   1.371   2.873 -2.0685 -1.8630  1.5384
  335TIP3    H222497   3.518   1.363   3.019  1.5031 -0.3197  0.7161
  336TIP3   OH222498   2.177   4.567  14.949  0.2165  0.4924  0.1024
  336TIP3    H122499   2.118   4.526  14.885  0.7802 -0.0464 -0.0724
  336TIP3    H222500   2.122   4.633  14.993 -0.6974 -0.4429  0.3913
  337TIP3   OH222501   1.907   0.547  11.572 -0.4146 -0.0708 -0.1277
  337TIP3    H122502   1.941   0.586  11.492 -0.5100  0.9288  0.3148
  337TIP3    H222503   1.874   0.461  11.545 -1.4607  0.7088 -1.3783
  338TIP3   OH222504   5.447   1.869   1.431 -0.4963 -0.3976 -0.2074
  338TIP3    H122505   5.506   1.811   1.383 -0.3832  0.0332 -0.5911
  338TIP3    H222506   5.376   1.888   1.370 -0.6980 -0.3892  0.0283
  339TIP3   OH222507   5.380   3.004  15.002 -0.2528  0.4570  0.5577
  339TIP3    H122508   5.289   3.028  14.984 -0.3508 -0.7421 -0.5506
  339TIP3    H222509   5.429   3.040  14.928 -0.2577 -1.7857 -0.5470
  340TIP3   OH222510   5.620   6.138   0.719  0.3668  0.3981  0.1013
  340TIP3    H122511   5.570   6.219   0.729 -0.0311  0.5022 -2.4411
  340TIP3    H222512   5.598   6.087   0.797 -0.2195  2.2662  1.2119
  341TIP3   OH222513   0.968   4.483  15.720  1.0764 -0.1361 -0.5844
  341TIP3    H122514   0.953   4.483  15.626  1.0299 -0.7281 -0.5805
  341TIP3    H222515   0.900   4.541  15.755  1.2293  0.2577 -0.9317
  342TIP3   OH222516   1.307   0.836  16.504  0.0253 -0.4322 -0.0963
  342TIP3    H122517   1.346   0.867  16.586 -2.2447 -0.8613  1.1833
  342TIP3    H222518   1.375   0.781  16.465  1.0130 -0.5286  1.6874
  343TIP3   OH222519   2.723   2.410   3.561 -0.5806 -0.2181 -0.1793
  343TIP3    H122520   2.692   2.465   3.633 -1.5048 -2.1139  0.9057
  343TIP3    H222521   2.647   2.399   3.505 -0.1261  0.4271 -0.9299
  344TIP3   OH222522   0.101   4.920  16.828  0.3191 -0.6737  0.1642
  344TIP3    H122523   0.097   4.891  16.920 -0.8827 -0.6840  0.1154
  344TIP3    H222524   0.173   4.982  16.826  0.5977 -0.9516  1.0424
  345TIP3   OH222525   1.146   4.435   0.769 -0.1873  0.2800  0.1501
  345TIP3    H122526   1.073   4.373   0.777  1.5819 -2.1112 -1.4844
  345TIP3    H222527   1.106   4.521   0.778 -3.4853 -0.8931 -2.3288
  346TIP3   OH222528   5.107   4.922  13.164 -0.3762 -0.1107 -0.7237
  346TIP3    H122529   5.085   4.838  13.122  2.3602 -0.5169 -1.4658
  346TIP3    H222530   5.094   4.987  13.095  1.4555 -0.4450 -1.4033
  347TIP3   OH222531   4.896   3.147  12.080  0.1785  0.9280 -0.3367
  347TIP3    H122532   4.866   3.059  12.101  1.5262  0.6278  0.3654
  347TIP3    H222533   4.919   3.185  12.165 -3.2204  3.0532 -0.2290
  348TIP3   OH222534   5.652   1.510   0.463 -0.7729  0.2248  0.4377
  348TIP3    H122535   5.653   1.418   0.437 -1.8707 -0.2283  1.8973
  348TIP3    H222536   5.578   1.548   0.415  0.9603  0.8687 -1.7820
  349TIP3   OH222537   2.972   6.160  12.799 -0.1150 -0.8964 -0.6740
  349TIP3    H122538   3.045   6.151  12.738  1.5330 -0.7200  1.2010
  349TIP3    H222539   2.972   6.078  12.849 -0.0295 -0.1543  0.5686
  350TIP3   OH222540   2.584   2.722   3.626 -0.8039  0.3521  0.0329
  350TIP3    H122541   2.602   2.711   3.532 -0.0718 -1.6677  0.3861
  350TIP3    H222542   2.653   2.780   3.657 -1.1231  1.1322 -0.6930
  351TIP3   OH222543   6.024   5.048   1.235  0.3313 -0.4865  0.5436
  351TIP3    H122544   6.028   4.964   1.281  0.9923 -0.8372 -0.1433
  351TIP3    H222545   6.101   5.048   1.179  1.0122  1.1071  1.4424
  352TIP3   OH222546   2.846   3.354  14.962 -0.5442  0.8353 -0.7826
  352TIP3    H122547   2.881   3.442  14.979 -0.2036  1.2811 -3.4961
  352TIP3    H222548   2.861   3.341  14.869  0.1976 -2.4858 -0.2339
  353TIP3   OH222549   0.955   4.340   5.366 -0.6771 -0.2369 -0.0239
  353TIP3    H122550   0.922   4.428   5.351  0.8883  0.6849  1.8072
  353TIP3    H222551   1.049   4.346   5.349 -0.4805 -1.4436  0.5643
  354TIP3   OH222552   3.286   2.071  14.564 -0.2454 -0.5059  0.3322
  354TIP3    H122553   3.230   2.012  14.514  0.7448 -1.0281 -0.1985
  354TIP3    H222554   3.317   2.135  14.500 -0.7793  0.1880  0.7641
  355TIP3   OH222555   5.983   0.157   4.634 -0.5318  0.2547 -0.1381
  355TIP3    H122556   6.065   0.154   4.683 -0.2854  0.2775 -0.5481
  355TIP3    H222557   6.008   0.185   4.546 -1.2386  2.1802  0.2625
  356TIP3   OH222558   1.946   3.691  10.223 -0.3636 -0.3374  0.8363
  356TIP3    H122559   1.882   3.725  10.285  0.1379  1.1764  0.5456
  356TIP3    H222560   2.019   3.662  10.278 -1.5095 -2.6130  1.2117
  357TIP3   OH222561   4.459   3.816   2.509  0.5397  0.3451  0.3622
  357TIP3    H122562   4.526   3.851   2.451  0.9537 -1.3474 -0.2100
  357TIP3    H222563   4.376   3.842   2.468  0.8337  1.0260  0.1938
  358TIP3   OH222564   1.320   1.289  12.133 -0.3178 -0.0481 -0.3413
  358TIP3    H122565   1.226   1.303  12.125 -0.5110 -0.0158  1.8114
  358TIP3    H222566   1.339   1.302  12.226  2.0354  1.2731 -0.9593
  359TIP3   OH222567   0.767   5.355  13.599 -0.4559 -0.3488 -0.2534
  359TIP3    H122568   0.848   5.342  13.552  0.5959  0.5234  1.2521
  359TIP3    H222569   0.792   5.406  13.677 -2.5892  0.8751 -0.3130
  360TIP3   OH222570   4.714   3.358   3.462 -0.0586 -0.3318  0.2660
  360TIP3    H122571   4.696   3.306   3.384  0.9500 -0.2094 -0.0531
  360TIP3    H222572   4.656   3.433   3.454  0.1145 -0.2671 -0.4179
  361TIP3   OH222573   4.612   3.414   0.438  0.3377 -0.3345 -0.1456
  361TIP3    H122574   4.649   3.456   0.516  1.0012  1.6847 -1.5202
  361TIP3    H222575   4.529   3.376   0.468  0.8807 -0.1359  1.6810
  362TIP3   OH222576   6.731   3.830   2.549 -0.1160 -0.2723  0.2308
  362TIP3    H122577   6.636   3.842   2.539 -0.0224  0.6140  0.3780
  362TIP3    H222578   6.742   3.806   2.641  0.1146  3.1299  1.1630
  363TIP3   OH222579   4.035   6.098  15.045 -0.1737  0.4420  0.2116
  363TIP3    H122580   4.118   6.115  15.090 -0.8822  1.6767  1.1209
  363TIP3    H222581   4.028   6.168  14.980 -0.5073  0.3573  0.1528
  364TIP3   OH222582   4.252   4.624  11.374 -0.1975 -0.8973 -0.2281
  364TIP3    H122583   4.253   4.702  11.428  1.4110 -2.2171  1.7429
  364TIP3    H222584   4.344   4.595  11.371 -0.6269 -2.2483 -1.5992
  365TIP3   OH222585   6.391   4.325  16.282 -0.4511 -1.1880 -0.2439
  365TIP3    H122586   6.407   4.233  16.303 -0.5903 -0.9937  0.7335
  365TIP3    H222587   6.313   4.324  16.228 -0.2815 -1.6709 -0.4804
  366TIP3   OH222588   5.639   1.862   0.728 -0.2278  0.1492 -0.0923
  366TIP3    H122589   5.684   1.891   0.649 -0.7458 -1.0887 -0.8580
  366TIP3    H222590   5.709   1.840   0.789  0.1747  1.9009  0.1029
  367TIP3   OH222591   3.866   0.288   4.385 -0.0803  0.1575  0.1117
  367TIP3    H122592   3.862   0.322   4.296  0.0746  1.2153  0.4955
  367TIP3    H222593   3.783   0.244   4.398 -0.1846  0.1740 -0.4883
  368TIP3   OH222594   1.616   4.988  16.013 -0.0854  0.4259 -0.5141
  368TIP3    H122595   1.702   4.958  16.043  0.0545  0.3181 -1.0180
  368TIP3    H222596   1.575   5.026  16.091  1.3211  2.5923 -0.8114
  369TIP3   OH222597   0.136   4.464  16.256  0.0669 -0.0905  0.4095
  369TIP3    H122598   0.090   4.392  16.298  1.5300 -1.2566  0.0662
  369TIP3    H222599   0.209   4.422  16.210  0.0532  1.4557 -1.0495
  370TIP3   OH222600   3.343   5.574  16.962  0.1313  0.3246 -0.1303
  370TIP3    H122601   3.431   5.540  16.948 -0.4860 -1.1257 -0.5667
  370TIP3    H222602   3.288   5.496  16.973 -0.9192  1.2298  1.2483
  371TIP3   OH222603   5.531   3.645  17.195 -0.5521  0.3717  0.3349
  371TIP3    H122604   5.591   3.602  17.257  0.7673 -1.0927 -1.8967
  371TIP3    H222605   5.586   3.710  17.151 -0.9319 -0.0725 -0.7953
  372TIP3   OH222606   2.431   5.687  16.266 -0.1130  0.5190  0.4621
  372TIP3    H122607   2.526   5.690  16.256 -0.2586 -2.1749 -2.6862
  372TIP3    H222608   2.416   5.624  16.337  0.4432 -0.0971  0.0396
  373TIP3   OH222609   0.023   0.056  11.570 -0.0765  0.6332 -0.0509
  373TIP3    H122610   0.087   0.122  11.543  0.8708  0.2153  1.1019
  373TIP3    H222611   0.075  -0.009  11.617 -1.1029 -0.5936 -0.5894
  374TIP3   OH222612   5.478   5.725  14.464 -0.0021  0.5682 -0.0580
  374TIP3    H122613   5.478   5.644  14.516 -0.3963  0.6964  0.1475
  374TIP3    H222614   5.424   5.786  14.515 -0.3234  0.7227 -0.5759
  375TIP3   OH222615   5.828   5.848  15.797  0.2806 -0.1986 -0.1929
  375TIP3    H122616   5.740   5.845  15.835  0.1543 -0.2633 -0.4907
  375TIP3    H222617   5.882   5.799  15.858 -0.0040 -0.6673 -0.3108
  376TIP3   OH222618   4.653   2.212  16.262  0.1892  0.1481  0.4192
  376TIP3    H122619   4.573   2.238  16.308 -1.1336 -1.1426 -1.0625
  376TIP3    H222620   4.642   2.246  16.173  1.7144  0.7468  0.4536
  377TIP3   OH222621   0.694   5.479  15.178 -0.3834 -0.0853  0.0274
  377TIP3    H122622   0.705   5.562  15.132 -0.1991  0.2990  0.7662
  377TIP3    H222623   0.781   5.439  15.175 -0.0019  0.6186  1.3420
  378TIP3   OH222624   4.169   5.223   0.935  0.4712  0.0256  0.9288
  378TIP3    H122625   4.092   5.266   0.899 -0.2091 -1.2219  0.8360
  378TIP3    H222626   4.215   5.189   0.858  2.4492  2.8708  0.7922
  379TIP3   OH222627   5.871   6.285  12.803 -0.2775  0.8888 -0.0995
  379TIP3    H122628   5.841   6.332  12.726 -3.7112  1.8889  1.7233
  379TIP3    H222629   5.817   6.205  12.805 -0.7447  1.2230  1.6082
  380TIP3   OH222630   2.285   4.072   6.290 -0.4989 -0.1979  0.0151
  380TIP3    H122631   2.204   4.021   6.292 -0.3174 -0.5438 -1.2878
  380TIP3    H222632   2.353   4.011   6.317 -0.2005 -0.8205 -2.0754
  381TIP3   OH222633   5.196   1.903   0.557 -0.0674 -0.1395  0.0739
  381TIP3    H122634   5.134   1.970   0.584  0.0514 -0.3052  0.7678
  381TIP3    H222635   5.240   1.876   0.638  2.0622  1.1121 -0.6221
  382TIP3   OH222636   6.581   2.383  13.131  0.0590 -0.0663 -0.2200
  382TIP3    H122637   6.608   2.301  13.173  0.2148  0.0708 -0.0464
  382TIP3    H222638   6.650   2.445  13.155  0.5105 -0.1619 -1.2634
  383TIP3   OH222639   2.760   2.712  12.259 -0.0681 -0.0062 -0.0827
  383TIP3    H122640   2.714   2.683  12.180  0.8067 -0.9565 -0.2429
  383TIP3    H222641   2.718   2.664  12.330 -0.2190  0.1368 -0.0750
  384TIP3   OH222642   6.557   6.713   1.147 -0.0650  0.1929  0.1587
  384TIP3    H122643   6.509   6.750   1.221  0.8796 -1.4926  1.6508
  384TIP3    H222644   6.529   6.765   1.072 -3.3113  0.0303  1.1733
  385TIP3   OH222645   6.795   4.541  16.826 -0.1699 -0.2016 -0.2071
  385TIP3    H122646   6.763   4.628  16.803 -1.0130  0.2415  2.5259
  385TIP3    H222647   6.719   4.484  16.813 -0.6257  0.0378  1.2946
  386TIP3   OH222648   3.862   6.305   3.198  0.1921  0.6700  0.0859
  386TIP3    H122649   3.859   6.209   3.189  0.9825  0.7797 -1.4581
  386TIP3    H222650   3.798   6.337   3.134  1.2563  1.2441 -0.6921
  387TIP3   OH222651   2.643   1.023   1.554 -0.0073 -0.4163 -0.2643
  387TIP3    H122652   2.627   0.944   1.504  1.7904 -0.5448 -0.6736
  387TIP3    H222653   2.670   1.088   1.489  1.6897 -0.3975  0.4386
  388TIP3   OH222654   2.208   6.167  16.137 -0.1906 -0.1688 -0.0417
  388TIP3    H122655   2.282   6.210  16.180 -2.3371  2.3613  1.3095
  388TIP3    H222656   2.225   6.074  16.147  2.1954  0.3609  1.2893
  389TIP3   OH222657   1.200   2.355  15.797 -0.1688 -0.6106  0.0532
  389TIP3    H122658   1.254   2.330  15.722  0.7923  1.7476 -0.0655
  389TIP3    H222659   1.123   2.298  15.791  0.8426 -1.8488 -1.5462
  390TIP3   OH222660   6.299   2.012   2.052 -0.0575  0.3899  0.1182
  390TIP3    H122661   6.302   1.960   2.133  1.7230  0.4395  0.1064
  390TIP3    H222662   6.391   2.036   2.035 -0.6055  1.7839 -1.0136
  391TIP3   OH222663   3.561   0.379   4.179  0.2468 -0.9523 -0.2050
  391TIP3    H122664   3.591   0.319   4.247  0.7285 -0.9220 -0.3850
  391TIP3    H222665   3.586   0.337   4.096  3.0632  0.7120 -0.2985
  392TIP3   OH222666   4.793   6.025  11.442  0.0435 -0.4012 -0.9162
  392TIP3    H122667   4.802   5.951  11.383  0.3739 -1.0493 -0.0704
  392TIP3    H222668   4.850   6.004  11.516 -2.4129 -0.9251  0.8990
  393TIP3   OH222669   1.434   1.165   1.102  0.1983 -0.1269 -0.3014
  393TIP3    H122670   1.517   1.142   1.145 -0.2804 -0.9880  0.1733
  393TIP3    H222671   1.399   1.237   1.155 -1.1061 -2.1434  1.6862
  394TIP3   OH222672   5.671   6.493   2.792  0.1290 -0.7879  0.1683
  394TIP3    H122673   5.677   6.577   2.747  2.0375 -1.1433 -0.2742
  394TIP3    H222674   5.616   6.510   2.868 -0.1300  0.6765 -0.3462
  395TIP3   OH222675   6.040   6.499  11.353 -0.2784  0.5349  0.6926
  395TIP3    H122676   6.065   6.585  11.318 -0.7704 -0.2630 -1.7542
  395TIP3    H222677   6.057   6.438  11.281  0.9183 -1.5785  2.6895
  396TIP3   OH222678   5.339   6.536  15.941 -0.6225  0.5072  0.1723
  396TIP3    H122679   5.254   6.511  15.904  0.0338 -0.3323 -0.8071
  396TIP3    H222680   5.343   6.493  16.026 -1.8656  1.9051  0.9708
  397TIP3   OH222681   0.266   2.413  13.762 -0.2914 -0.4036 -0.2381
  397TIP3    H122682   0.174   2.422  13.737 -0.1129 -0.4927 -0.9397
  397TIP3    H222683   0.273   2.325  13.798 -0.5306 -0.3144  0.0249
  398TIP3   OH222684   2.296   3.390  12.166  0.3214  0.1698 -0.3419
  398TIP3    H122685   2.366   3.445  12.201  1.0761 -1.2795  0.4698
  398TIP3    H222686   2.312   3.386  12.072  1.8107 -0.7921 -0.0618
  399TIP3   OH222687   6.131   1.559   1.310  0.2017  0.4795  0.4599
  399TIP3    H122688   6.171   1.510   1.239  0.4176 -0.6419  1.3474
  399TIP3    H222689   6.191   1.633   1.324 -0.0910  0.9854 -0.8260
  400TIP3   OH222690   3.734   3.052  14.646  0.4378  0.2471 -0.1825
  400TIP3    H122691   3.794   3.126  14.652 -0.3298  0.9534 -1.1806
  400TIP3    H222692   3.680   3.058  14.725 -0.0952  1.1663 -0.6104
  401TIP3   OH222693   4.565   6.493  13.791  0.1417  0.2214  0.1819
  401TIP3    H122694   4.471   6.509  13.781  0.9526  3.7662 -2.5211
  401TIP3    H222695   4.588   6.438  13.715  0.5656  0.9835 -0.2527
  402TIP3   OH222696   0.732   0.529   3.174 -0.2895 -0.5059 -0.0791
  402TIP3    H122697   0.723   0.587   3.099  0.8583 -0.3155 -0.0661
  402TIP3    H222698   0.811   0.558   3.219 -1.6018  0.1233  1.8644
  403TIP3   OH222699   1.789   4.947  17.029 -0.1405 -0.0877  0.8104
  403TIP3    H122700   1.766   5.031  17.067  0.5372  1.2121 -1.5933
  403TIP3    H222701   1.721   4.931  16.963  0.4523 -0.8366  0.3783
  404TIP3   OH222702   1.589   0.557   5.853 -0.3500 -0.1043  0.2175
  404TIP3    H122703   1.552   0.602   5.930 -0.0644 -1.4443  1.1540
  404TIP3    H222704   1.538   0.477   5.846  0.7353 -0.7724 -0.0036
  405TIP3   OH222705   2.683   3.885  11.773  0.6576 -0.1683 -0.2837
  405TIP3    H122706   2.588   3.888  11.784  0.7966  1.5771  0.6089
  405TIP3    H222707   2.712   3.826  11.842  0.1323 -1.6578 -1.3144
  406TIP3   OH222708   2.441   6.790  13.693 -0.2260  0.4867 -0.1145
  406TIP3    H122709   2.493   6.805  13.772 -0.1875 -0.7015  0.0966
  406TIP3    H222710   2.352   6.814  13.717 -0.4086 -0.8718  0.6310
  407TIP3   OH222711   4.921   4.399  16.441  0.1411  0.6233  0.3187
  407TIP3    H122712   4.942   4.370  16.353 -1.4323  0.5237 -0.0435
  407TIP3    H222713   4.833   4.438  16.433 -0.7298 -0.8810  2.1293
  408TIP3   OH222714   2.403   2.314   0.399  0.4796  0.1893 -0.0413
  408TIP3    H122715   2.448   2.335   0.318 -0.1074  0.3804 -0.3217
  408TIP3    H222716   2.329   2.260   0.372 -0.2070  0.9696  0.2755
  409TIP3   OH222717   2.545   5.892   6.018 -0.4201 -0.3772 -0.3481
  409TIP3    H122718   2.606   5.836   6.067 -2.0307 -0.8387  1.2129
  409TIP3    H222719   2.599   5.963   5.984  0.8631 -0.2981  1.7274
  410TIP3   OH222720   2.688   6.623   3.381  0.1912  0.2999 -0.7051
  410TIP3    H122721   2.603   6.591   3.351  0.8143 -0.8174 -1.3155
  410TIP3    H222722   2.727   6.664   3.304  1.3626 -1.6612 -1.1868
  411TIP3   OH222723   6.047   0.368  15.369 -0.3577 -0.6506 -0.7780
  411TIP3    H122724   6.063   0.448  15.420 -1.6997 -0.6217 -0.3764
  411TIP3    H222725   5.953   0.371  15.349 -0.4556 -2.2155 -0.6231
  412TIP3   OH222726   1.479   3.412  10.500  0.7352 -0.0380  0.1606
  412TIP3    H122727   1.430   3.475  10.555  0.4144 -0.4800  0.3825
  412TIP3    H222728   1.570   3.423  10.528  0.8224  1.0532 -0.5114
  413TIP3   OH222729   3.571   5.598  15.529 -0.0318  0.3996  0.2079
  413TIP3    H122730   3.573   5.656  15.605 -1.1695 -0.2513  0.7568
  413TIP3    H222731   3.543   5.653  15.456 -1.0797  0.5570  0.7199
  414TIP3   OH222732   5.575   6.404   4.075 -0.0172 -0.2277 -0.5624
  414TIP3    H122733   5.507   6.374   4.013  0.0334 -3.1475  0.7198
  414TIP3    H222734   5.657   6.379   4.033  0.1987  1.2927 -1.0727
  415TIP3   OH222735   3.001   4.682  11.687  0.0377  0.0763 -0.2449
  415TIP3    H122736   2.989   4.665  11.780  1.4444  0.5119  0.0220
  415TIP3    H222737   3.060   4.612  11.658  3.0619  2.4150  0.1185
  416TIP3   OH222738   4.943   4.083  16.015  0.0895  0.2840 -0.1058
  416TIP3    H122739   4.971   3.991  16.014  0.3248  0.3433  0.5398
  416TIP3    H222740   4.855   4.082  15.978  0.6868  0.0018 -1.5237
  417TIP3   OH222741   6.307   0.091   2.166 -0.3853 -0.4831  0.1035
  417TIP3    H122742   6.234   0.096   2.104  0.0323  0.2111 -0.3404
  417TIP3    H222743   6.284   0.155   2.234  0.3516  0.5696 -0.6248
  418TIP3   OH222744   1.050   0.118  16.170  0.0160  0.5166 -0.0692
  418TIP3    H122745   1.082   0.113  16.079  2.7130 -0.6000  0.8878
  418TIP3    H222746   0.956   0.130  16.161  0.2880  0.9739 -3.0366
  419TIP3   OH222747   2.667   4.539  14.027  0.5148  0.1522  0.7336
  419TIP3    H122748   2.682   4.631  14.003 -0.8015  0.0243 -0.6753
  419TIP3    H222749   2.591   4.541  14.085 -1.4916 -0.2921 -1.7796
  420TIP3   OH222750   4.735   3.265   4.083  0.0090 -0.0612 -0.9067
  420TIP3    H122751   4.720   3.321   4.006  2.3878  0.9310 -0.6800
  420TIP3    H222752   4.725   3.176   4.049  3.2295  0.2692 -2.9559
  421TIP3   OH222753   4.187   4.986  12.365  0.2508  0.0009  0.0939
  421TIP3    H122754   4.211   4.995  12.273 -0.4274 -1.0674 -0.1950
  421TIP3    H222755   4.092   4.976  12.364  0.3312 -0.9032  0.8432
  422TIP3   OH222756   4.489   0.630  14.352  0.5657  0.0483 -0.3491
  422TIP3    H122757   4.557   0.567  14.329  0.7973 -0.3125  1.2343
  422TIP3    H222758   4.519   0.713  14.315  1.4480 -0.2848 -0.3981
  423TIP3   OH222759   3.162   1.443   1.680  0.0754 -0.2893 -0.6213
  423TIP3    H122760   3.157   1.495   1.600 -0.1901 -0.9391 -1.0271
  423TIP3    H222761   3.101   1.371   1.667 -0.0030 -0.3821  0.1863
  424TIP3   OH222762   1.809   3.340   3.705 -0.4449 -0.5048  0.0701
  424TIP3    H122763   1.897   3.353   3.669 -0.6243 -1.1653 -0.6123
  424TIP3    H222764   1.780   3.256   3.669 -2.5660  1.1329 -2.2458
  425TIP3   OH222765   2.214   3.517   5.623 -0.3183  0.3880  0.0930
  425TIP3    H122766   2.220   3.523   5.528 -0.2263  0.2828  0.0909
  425TIP3    H222767   2.300   3.546   5.654 -0.3606  0.4568  0.1455
  426TIP3   OH222768   2.037   2.701  13.779  0.4706  0.4163  0.2850
  426TIP3    H122769   2.064   2.621  13.734 -3.1873 -0.9213  0.3303
  426TIP3    H222770   2.036   2.768  13.711  0.2103 -0.3692 -0.4910
  427TIP3   OH222771   6.649   6.433   1.428 -0.0687 -0.5875 -0.1456
  427TIP3    H122772   6.602   6.479   1.498  1.7045 -0.1906  0.8107
  427TIP3    H222773   6.638   6.340   1.448 -0.3972 -0.4936  0.1163
  428TIP3   OH222774   1.362   3.860  15.232  0.3311  0.2377  0.5764
  428TIP3    H122775   1.402   3.864  15.318 -0.1314 -2.8089  0.9888
  428TIP3    H222776   1.275   3.823  15.247  0.8372 -1.8597 -1.3326
  429TIP3   OH222777   0.675   0.021  16.623  0.3271 -0.0137  0.3169
  429TIP3    H122778   0.663   0.052  16.713 -0.5984  1.6720 -0.3793
  429TIP3    H222779   0.747  -0.043  16.629  0.3763  0.1977  2.2178
  430TIP3   OH222780   6.605   0.621  11.854 -0.3723  0.1196  0.2752
  430TIP3    H122781   6.594   0.527  11.837  0.2146  0.0128  0.4500
  430TIP3    H222782   6.523   0.648  11.897 -0.9327 -0.0985 -0.6574
  431TIP3   OH222783   3.121   1.717   3.148 -0.1066  0.2940 -0.5049
  431TIP3    H122784   3.180   1.696   3.221 -0.9882 -1.2521 -0.2097
  431TIP3    H222785   3.084   1.802   3.171  0.0691  0.0955  0.5770
  432TIP3   OH222786   2.432   1.685  12.480  0.0981 -0.0858 -0.6462
  432TIP3    H122787   2.447   1.776  12.455  2.9680 -0.8738 -1.9899
  432TIP3    H222788   2.416   1.688  12.574  0.2256  1.8043 -0.6711
  433TIP3   OH222789   1.544   2.855  14.716  0.1713 -0.3281 -0.2943
  433TIP3    H122790   1.546   2.946  14.687 -1.5394 -1.3466 -3.9363
  433TIP3    H222791   1.635   2.835  14.738  0.5383  2.2647  0.7577
  434TIP3   OH222792   4.234   1.068  14.766 -0.2931  0.1539  0.2668
  434TIP3    H122793   4.236   1.069  14.671 -0.1515  0.7078  0.2712
  434TIP3    H222794   4.196   0.983  14.789 -1.7239  0.6134 -0.3110
  435TIP3   OH222795   6.069   3.851   0.319 -0.0390  0.4147 -0.6587
  435TIP3    H122796   6.042   3.764   0.349 -2.3935  1.3922  0.1155
  435TIP3    H222797   6.092   3.898   0.399  0.2114  0.8568 -0.9899
  436TIP3   OH222798   1.126   4.398  12.102  0.5736  0.6966 -0.4182
  436TIP3    H122799   1.079   4.412  12.020 -1.2192  0.9340  0.6178
  436TIP3    H222800   1.070   4.338  12.152  1.8297  0.2359  0.4658
  437TIP3   OH222801   4.096   1.115  11.358  0.0896  0.2727  0.0126
  437TIP3    H122802   4.015   1.065  11.346  1.1692 -1.6530  0.4940
  437TIP3    H222803   4.161   1.068  11.304  1.1580  1.0901  0.5640
  438TIP3   OH222804   4.055   3.464  13.419 -0.4363 -0.0834 -0.0940
  438TIP3    H122805   4.015   3.540  13.462  0.1627  0.0583  0.2070
  438TIP3    H222806   4.026   3.471  13.328  0.1486  0.8752 -0.2221
  439TIP3   OH222807   2.664   6.445   5.981  0.1253 -0.1796  0.3860
  439TIP3    H122808   2.730   6.513   5.977 -0.8437  0.7484 -0.0109
  439TIP3    H222809   2.580   6.491   5.974 -0.5549 -1.3757  0.3773
  440TIP3   OH222810   6.412   3.894  12.270 -0.5167  0.4646  0.2268
  440TIP3    H122811   6.412   3.862  12.180 -0.2075  0.7638  0.1156
  440TIP3    H222812   6.340   3.957  12.273  0.9000  2.1814 -0.4573
  441TIP3   OH222813   3.471   2.732  15.946  0.0133 -0.2479 -0.5275
  441TIP3    H122814   3.438   2.648  15.978 -0.2373 -0.7038 -1.9589
  441TIP3    H222815   3.567   2.722  15.950  0.0544  0.6555  2.5129
  442TIP3   OH222816   5.278   2.801  12.717  0.3015  0.4859  0.2582
  442TIP3    H122817   5.359   2.807  12.666  0.5626  1.2274  0.7457
  442TIP3    H222818   5.247   2.712  12.703 -0.3348  1.0573 -2.2746
  443TIP3   OH222819   6.072   1.347   6.662 -0.6136 -0.0016 -0.1704
  443TIP3    H122820   6.080   1.281   6.731 -2.2874  0.0031  0.0292
  443TIP3    H222821   6.122   1.422   6.694  0.7708 -0.9159 -0.1204
  444TIP3   OH222822   6.699   5.921   1.568  1.1233  0.3776 -0.3276
  444TIP3    H122823   6.725   5.883   1.484  0.7003 -0.8451  0.0799
  444TIP3    H222824   6.762   5.887   1.631 -0.2166 -1.0068  0.3203
  445TIP3   OH222825   5.063   2.293  13.138  0.6041 -0.1583  0.0840
  445TIP3    H122826   5.002   2.324  13.205  0.5999 -0.1392  0.0714
  445TIP3    H222827   5.074   2.199  13.157 -0.1155 -0.3553 -0.4500
  446TIP3   OH222828   2.947   4.696  12.863  0.4199  0.4241  0.3455
  446TIP3    H122829   3.027   4.699  12.916  0.0297  2.3095  0.8786
  446TIP3    H222830   2.877   4.718  12.924 -0.4713 -0.8279 -0.2055
  447TIP3   OH222831   3.338   5.879   3.283  0.0995  0.2563  0.2872
  447TIP3    H122832   3.394   5.954   3.300  0.4885  0.1890 -0.6311
  447TIP3    H222833   3.379   5.835   3.208  0.2820 -1.2765  1.2575
  448TIP3   OH222834   1.967   3.521   4.366  0.4019 -0.1172  0.0489
  448TIP3    H122835   2.021   3.500   4.290 -0.1794 -0.0629 -0.3814
  448TIP3    H222836   1.877   3.503   4.338  0.3521 -2.2232  1.4545
  449TIP3   OH222837   2.875   1.533   3.870 -0.0453 -0.5023  1.2713
  449TIP3    H122838   2.814   1.600   3.900  0.5980  1.5923 -1.8077
  449TIP3    H222839   2.822   1.454   3.861 -1.6918  0.5644  1.3876
  450TIP3   OH222840   5.036   5.767   6.071  0.4485 -0.2151  0.0544
  450TIP3    H122841   5.016   5.837   6.134  2.5386  0.4632 -0.0032
  450TIP3    H222842   5.050   5.689   6.125 -0.3891 -0.2615  0.2191
  451TIP3   OH222843   1.569   5.403   4.915  0.1781 -0.4192  0.2850
  451TIP3    H122844   1.588   5.464   4.986 -2.4456  0.3143  0.4289
  451TIP3    H222845   1.577   5.456   4.835  0.0574 -0.4392  0.2591
  452TIP3   OH222846   6.740   5.673   3.210  0.5723 -0.0832  0.0749
  452TIP3    H122847   6.813   5.629   3.255  0.3551 -0.2873  0.2290
  452TIP3    H222848   6.713   5.611   3.142 -0.1867 -0.4862  0.7365
  453TIP3   OH222849   0.435   0.498  15.232 -0.7779 -0.7974  0.1961
  453TIP3    H122850   0.443   0.409  15.197 -0.9772 -1.6986  2.3545
  453TIP3    H222851   0.355   0.496  15.284  1.6640 -0.8063  4.1872
  454TIP3   OH222852   2.416   3.606   3.621 -0.2933 -0.7879  0.5843
  454TIP3    H122853   2.362   3.573   3.693  0.0073 -1.7141  0.3912
  454TIP3    H222854   2.489   3.651   3.664 -0.9033 -0.0486  0.8472
  455TIP3   OH222855   3.588   5.060  12.870  0.4194  0.1433 -0.7429
  455TIP3    H122856   3.578   5.096  12.782  0.4701 -0.1286 -0.8622
  455TIP3    H222857   3.680   5.032  12.873  0.1949 -0.6078 -0.8912
  456TIP3   OH222858   0.235   4.371   5.305  0.3746  0.0380 -0.4034
  456TIP3    H122859   0.272   4.344   5.389 -1.3969 -0.9054  0.1008
  456TIP3    H222860   0.141   4.354   5.314  0.0945  0.4531 -2.3756
  457TIP3   OH222861   2.511   2.784   5.726 -0.0636 -0.5641 -0.5368
  457TIP3    H122862   2.591   2.798   5.778  0.4102 -1.7634 -0.9317
  457TIP3    H222863   2.446   2.842   5.767  0.8849  0.1133  0.0542
  458TIP3   OH222864   2.756   2.711  14.678 -0.0544  0.0434  0.2291
  458TIP3    H122865   2.790   2.643  14.620  0.5272  2.2119 -2.0294
  458TIP3    H222866   2.815   2.785  14.666 -2.1201  1.8322  0.7255
  459TIP3   OH222867   0.254   6.383  17.240 -0.1946  0.0811 -0.1357
  459TIP3    H122868   0.269   6.460  17.185 -0.0784  0.7834  0.8608
  459TIP3    H222869   0.174   6.343  17.205 -0.1305  0.5294 -0.8007
  460TIP3   OH222870   2.970   0.705   3.129 -0.3362 -0.2714  0.6279
  460TIP3    H122871   3.025   0.627   3.128 -0.0176 -0.0559  1.0117
  460TIP3    H222872   3.032   0.777   3.114 -0.6212 -0.0937  0.3178
  461TIP3   OH222873   5.590   1.060  11.585  0.9409  0.1206 -0.2364
  461TIP3    H122874   5.655   1.086  11.520  0.9984 -2.4086 -1.2553
  461TIP3    H222875   5.639   1.050  11.667  1.6630 -0.7992 -0.7763
  462TIP3   OH222876   2.807   5.775  13.092  0.0076 -0.6338 -0.1203
  462TIP3    H122877   2.713   5.776  13.113  0.6625  0.8102  3.1404
  462TIP3    H222878   2.841   5.699  13.140  0.7903 -0.1540  0.0852
  463TIP3   OH222879   1.514   1.445  15.218 -0.1660 -0.1722 -0.2372
  463TIP3    H122880   1.555   1.385  15.280 -1.2465 -0.9558 -0.2858
  463TIP3    H222881   1.434   1.474  15.261  0.0459  0.7784 -0.4653
  464TIP3   OH222882   1.479   4.010   4.066  0.1358 -0.5102 -0.5295
  464TIP3    H122883   1.461   3.945   4.134 -1.4281 -0.8365 -1.2335
  464TIP3    H222884   1.479   4.094   4.112 -1.5234 -0.6737 -0.2059
  465TIP3   OH222885   0.689   6.345  13.069  0.0407  0.4064 -0.1756
  465TIP3    H122886   0.735   6.273  13.025 -2.0161 -0.5561 -0.8055
  465TIP3    H222887   0.708   6.421  13.015  1.0193  0.0482 -0.3427
  466TIP3   OH222888   1.827   3.444   0.327 -0.7175 -0.4191 -0.2590
  466TIP3    H122889   1.800   3.438   0.418 -3.1435 -0.4429 -0.9393
  466TIP3    H222890   1.921   3.426   0.328 -0.5368  0.4964  2.3288
  467TIP3   OH222891   6.059   5.405   4.021 -0.2383  0.2738 -0.7200
  467TIP3    H122892   6.038   5.481   3.966 -1.6252 -0.3388 -1.0821
  467TIP3    H222893   6.051   5.330   3.962  1.5075 -0.1219 -0.4589
  468TIP3   OH222894   3.729   1.995   0.970  0.0875  0.2015  0.2203
  468TIP3    H122895   3.796   1.972   1.035  1.1848  0.0431 -0.9419
  468TIP3    H222896   3.779   2.019   0.891 -1.2015  0.9287 -0.4006
  469TIP3   OH222897   2.717   0.650   5.997 -0.0666  0.2386  0.2770
  469TIP3    H122898   2.655   0.578   6.007 -0.9637  1.2403  2.1878
  469TIP3    H222899   2.795   0.621   6.044 -0.5380  0.6314  1.3094
  470TIP3   OH222900   5.233   2.106  11.948 -0.0665  0.5157 -0.4828
  470TIP3    H122901   5.294   2.035  11.968 -1.2677  0.0558  1.6612
  470TIP3    H222902   5.159   2.062  11.905  0.1126  0.7679 -1.0535
  471TIP3   OH222903   0.333   1.809  12.812  0.2357  0.5200  0.3893
  471TIP3    H122904   0.246   1.828  12.777  0.9105  2.8376 -0.1066
  471TIP3    H222905   0.365   1.736  12.759 -0.9402  0.4295 -0.1955
  472TIP3   OH222906   2.396   2.920  14.756  0.4561 -0.4408  0.2130
  472TIP3    H122907   2.373   2.922  14.663 -0.0480  2.7070  0.3349
  472TIP3    H222908   2.478   2.969  14.761  0.6390 -0.8554  1.3966
  473TIP3   OH222909   5.561   1.048  16.057  0.5030 -0.5626 -0.1718
  473TIP3    H122910   5.601   1.121  16.011  0.0645 -0.8236 -0.9974
  473TIP3    H222911   5.626   1.020  16.122  0.6603  0.5559  0.1503
  474TIP3   OH222912   5.318   6.522  14.891  0.7691 -0.7531 -0.0461
  474TIP3    H122913   5.277   6.582  14.953 -1.1382 -2.0131 -0.0841
  474TIP3    H222914   5.305   6.564  14.805  0.0125 -0.8991 -0.0047
  475TIP3   OH222915   2.538   0.642   1.647  0.1775 -0.2331  0.6637
  475TIP3    H122916   2.631   0.633   1.669  0.3338  0.8300  0.4511
  475TIP3    H222917   2.502   0.696   1.717 -0.8233 -2.6890  2.0974
  476TIP3   OH222918   2.088   0.764  11.658  0.1276 -0.1744  0.0038
  476TIP3    H122919   2.053   0.676  11.648 -0.5552  0.0670  0.2286
  476TIP3    H222920   2.034   0.819  11.601  0.8241  0.0309 -0.4657
  477TIP3   OH222921   4.289   3.318   0.918  0.6076  0.8172  0.4656
  477TIP3    H122922   4.358   3.254   0.901  1.1210  1.5589 -0.2689
  477TIP3    H222923   4.212   3.265   0.939  1.1049 -0.0390  0.1593
  478TIP3   OH222924   4.244   0.241   6.118 -0.9027 -0.5391  0.5570
  478TIP3    H122925   4.190   0.275   6.190 -0.2840 -1.9842  1.7023
  478TIP3    H222926   4.194   0.263   6.039 -1.9823  0.3195  1.4630
  479TIP3   OH222927   1.811   6.809   3.915  0.3532  0.3803  0.2682
  479TIP3    H122928   1.805   6.864   3.993 -0.4601  2.8191 -1.4858
  479TIP3    H222929   1.786   6.866   3.842 -1.5197 -2.5682 -1.4975
  480TIP3   OH222930   4.658   0.825   1.798  0.8012 -0.1106  0.3907
  480TIP3    H122931   4.563   0.833   1.809  0.3561 -3.9728 -0.0994
  480TIP3    H222932   4.670   0.818   1.703  1.3784 -1.3823  0.5454
  481TIP3   OH222933   0.585   2.782   0.285  0.1003 -0.1246  0.1045
  481TIP3    H122934   0.607   2.693   0.258 -0.0722 -0.3714  0.7892
  481TIP3    H222935   0.553   2.824   0.205  0.0848 -0.7063 -0.1915
  482TIP3   OH222936   0.331   4.087  15.449 -0.0766 -0.6563  0.0470
  482TIP3    H122937   0.264   4.155  15.449  1.1362  0.5778 -1.0298
  482TIP3    H222938   0.343   4.065  15.357  0.6753 -1.1777  0.2611
  483TIP3   OH222939   2.893   6.128  16.174  0.4182  0.3867 -0.6567
  483TIP3    H122940   2.936   6.162  16.096 -0.1111  0.4916 -0.9023
  483TIP3    H222941   2.861   6.042  16.149  0.7195  0.1954 -0.3908
  484TIP3   OH222942   6.628   0.962   2.875  0.1493 -0.5710 -0.5353
  484TIP3    H122943   6.580   0.888   2.836  2.1885 -1.1486 -2.0422
  484TIP3    H222944   6.712   0.924   2.900  0.8226  1.0358 -0.3658
  485TIP3   OH222945   1.637   3.955  11.463 -0.4907 -0.2647  0.3100
  485TIP3    H122946   1.644   4.041  11.505 -0.1939  0.6368 -1.5220
  485TIP3    H222947   1.705   3.902  11.506  0.5076  0.9352  0.2629
  486TIP3   OH222948   0.706   4.267  16.451  0.3578 -0.0608 -0.2191
  486TIP3    H122949   0.664   4.302  16.529  1.4691  0.4210  0.1744
  486TIP3    H222950   0.721   4.344  16.396  0.0317 -0.3325 -0.6865
  487TIP3   OH222951   4.813   0.637  14.193  0.4589 -0.1613 -0.0095
  487TIP3    H122952   4.785   0.547  14.211 -0.7406  0.3214  0.5812
  487TIP3    H222953   4.803   0.646  14.098  0.8922 -0.7494 -0.1158
  488TIP3   OH222954   3.321   4.993  10.736  0.3054  0.5991  0.2658
  488TIP3    H122955   3.297   4.951  10.653  2.2246  0.2418 -0.1289
  488TIP3    H222956   3.291   4.931  10.803 -2.4635  1.4962 -0.0706
  489TIP3   OH222957   4.518   1.736   2.044  0.3182 -0.4680 -0.0141
  489TIP3    H122958   4.516   1.685   1.963 -0.1198 -0.7004  0.1390
  489TIP3    H222959   4.486   1.822   2.018 -1.0632 -0.9162  0.1584
  490TIP3   OH222960   5.676   3.210  15.724 -0.1505 -0.4675  0.1649
  490TIP3    H122961   5.750   3.165  15.683 -0.2334 -0.6982  0.2671
  490TIP3    H222962   5.611   3.141  15.739  0.1066 -0.4920  1.1991
  491TIP3   OH222963   1.345   1.494  16.235 -0.0539  0.0032  0.4994
  491TIP3    H122964   1.440   1.500  16.226 -0.1403  2.2325  0.8768
  491TIP3    H222965   1.315   1.463  16.149  0.9215  0.2814  0.0556
  492TIP3   OH222966   1.915   5.482   4.178  0.5691 -0.2422  0.2476
  492TIP3    H122967   1.989   5.540   4.158  0.2962 -0.3176 -1.0080
  492TIP3    H222968   1.945   5.429   4.251  0.6875  1.7717  1.7162
  493TIP3   OH222969   5.805   2.091  14.343 -0.4742 -0.3231 -0.3507
  493TIP3    H122970   5.785   2.135  14.426 -1.3528 -0.1418 -0.6461
  493TIP3    H222971   5.736   2.120  14.284  0.1633 -0.4369 -1.1551
  494TIP3   OH222972   0.628   3.744  15.980 -0.0475 -0.2453  0.1680
  494TIP3    H122973   0.629   3.827  15.932 -1.1577 -0.8344 -0.8978
  494TIP3    H222974   0.676   3.763  16.061  1.5240  0.8757 -0.9720
  495TIP3   OH222975   4.233   4.984  11.345  0.6180 -0.7675  0.0615
  495TIP3    H122976   4.177   4.907  11.329 -0.9335  0.5058 -0.7567
  495TIP3    H222977   4.219   5.040  11.269 -0.2242  1.4717  1.8251
  496TIP3   OH222978   0.176   0.608   2.899  0.1788  0.0069  0.5420
  496TIP3    H122979   0.199   0.618   2.807 -1.7143 -0.5005 -0.0014
  496TIP3    H222980   0.254   0.570   2.939  0.2591 -1.8154 -1.2797
  497TIP3   OH222981   3.162   0.077   2.100 -0.0709  0.5160  0.5513
  497TIP3    H122982   3.167  -0.012   2.065 -1.1387  0.6577  0.0167
  497TIP3    H222983   3.247   0.116   2.077  0.3585 -0.3261  0.6956
  498TIP3   OH222984   1.325   5.455  11.415 -0.1029 -0.2707 -0.1588
  498TIP3    H122985   1.416   5.480  11.425 -0.6379  1.2339  1.1380
  498TIP3    H222986   1.316   5.434  11.322  1.2462  0.8534 -0.5612
  499TIP3   OH222987   0.859   0.595  13.925  0.2481  0.1923 -0.0833
  499TIP3    H122988   0.814   0.679  13.930  0.4233  0.3486 -1.0827
  499TIP3    H222989   0.947   0.614  13.956  0.3495  0.4202 -0.5110
  500TIP3   OH222990   4.648   0.150  14.025  0.5878  0.6359  0.0795
  500TIP3    H122991   4.694   0.148  14.108  0.7743 -0.1132 -0.0442
  500TIP3    H222992   4.659   0.063  13.988  0.7092  1.0336 -0.8450
  501TIP3   OH222993   3.561   6.698  14.636 -0.0409 -0.5288 -0.8764
  501TIP3    H122994   3.586   6.614  14.676 -1.2124 -0.3646  0.2495
  501TIP3    H222995   3.588   6.764  14.700 -0.0725 -0.1243 -1.2799
  502TIP3   OH222996   4.790   4.315   4.796 -0.2513 -0.1515 -0.3110
  502TIP3    H122997   4.703   4.332   4.833 -0.4820  1.1489 -1.3962
  502TIP3    H222998   4.838   4.397   4.808  0.6910 -0.7179 -0.1109
  503TIP3   OH222999   5.167   3.834  13.517  0.0308  0.0086 -0.4796
  503TIP3    H123000   5.260   3.832  13.498 -0.0021  1.0585 -0.7498
  503TIP3    H223001   5.154   3.761  13.578  1.2828  0.7607  0.7159
  504TIP3   OH223002   2.621   3.382  11.735  0.8125 -0.2659 -0.3535
  504TIP3    H123003   2.614   3.468  11.694 -2.1107  0.0248  0.6605
  504TIP3    H223004   2.691   3.338  11.686  0.8770  1.8980 -2.2898
  505TIP3   OH223005   1.326   5.202   3.002 -0.0661  0.1964 -0.2683
  505TIP3    H123006   1.254   5.251   3.043 -0.1599 -0.4766  0.3644
  505TIP3    H223007   1.298   5.111   3.005  0.4634  0.0175 -0.7527
  506TIP3   OH223008   0.548   5.900  11.401 -0.2008 -0.0438 -0.3248
  506TIP3    H123009   0.588   5.862  11.323 -0.2188 -0.5385 -0.0939
  506TIP3    H223010   0.581   5.847  11.473 -0.6410  0.0532 -0.0539
  507TIP3   OH223011   5.234   1.397   3.365  0.2553  0.3329 -0.6154
  507TIP3    H123012   5.325   1.423   3.347 -0.1612  1.2555 -1.4905
  507TIP3    H223013   5.183   1.476   3.345 -0.7310 -0.1682 -0.0905
  508TIP3   OH223014   4.467   1.792   4.043  0.5850  0.4190 -0.2226
  508TIP3    H123015   4.393   1.852   4.044  1.6279  1.7307  1.4160
  508TIP3    H223016   4.436   1.713   4.088  0.3259  1.1407  0.8607
  509TIP3   OH223017   5.649   2.219  16.775  0.0783  0.2152 -0.0202
  509TIP3    H123018   5.575   2.239  16.717  0.9072  0.2560 -1.0806
  509TIP3    H223019   5.705   2.297  16.771  0.8912 -0.3783 -0.3494
  510TIP3   OH223020   2.771   3.390   1.984  0.2521  0.0354 -0.1392
  510TIP3    H123021   2.751   3.484   1.989  2.0931  0.4895 -0.8052
  510TIP3    H223022   2.767   3.360   2.075  1.9631  1.2817  0.3681
  511TIP3   OH223023   4.777   1.325  12.502 -0.3084 -0.0025 -0.0660
  511TIP3    H123024   4.744   1.329  12.592  0.3502  0.1052  0.1695
  511TIP3    H223025   4.862   1.369  12.505  0.5876 -1.6794 -0.3403
  512TIP3   OH223026   4.038   1.548  17.159 -0.2084 -0.9229  0.5257
  512TIP3    H123027   4.128   1.562  17.129 -1.4767  0.8976 -2.6019
  512TIP3    H223028   4.019   1.623  17.215 -1.2341  1.0761 -2.4214
  513TIP3   OH223029   3.747   1.058  13.390  0.5435 -0.1808  0.0699
  513TIP3    H123030   3.707   0.974  13.411 -0.2654 -0.3763 -2.1365
  513TIP3    H223031   3.841   1.043  13.398  0.3492 -0.7574  1.5099
  514TIP3   OH223032   2.135   5.488   0.649  0.2745  0.3742  0.0444
  514TIP3    H123033   2.185   5.493   0.730  0.9842  2.3046 -0.4943
  514TIP3    H223034   2.199   5.461   0.583 -0.2793 -1.0998  0.0961
  515TIP3   OH223035   3.825   4.388   0.988 -0.1289 -0.3495 -0.2829
  515TIP3    H123036   3.827   4.303   0.943  0.3787 -0.3406 -0.2728
  515TIP3    H223037   3.822   4.453   0.918  0.6732 -0.3358 -0.3068
  516TIP3   OH223038   5.630   1.177  13.411 -0.2289 -0.6515  0.4736
  516TIP3    H123039   5.675   1.186  13.495 -0.1291 -0.2206  0.3770
  516TIP3    H223040   5.574   1.100  13.422 -0.9783 -0.0044  1.2866
  517TIP3   OH223041   5.661   3.058  16.933 -0.1801  0.3055 -0.1188
  517TIP3    H123042   5.712   3.137  16.947 -0.2306  0.1396  1.0310
  517TIP3    H223043   5.691   2.997  17.000 -1.6099  0.0736  0.3274
  518TIP3   OH223044   6.193   0.528  14.142 -0.6625  0.3820  0.1229
  518TIP3    H123045   6.138   0.474  14.198 -1.2455  0.9125  0.0825
  518TIP3    H223046   6.152   0.615  14.147  0.3419  0.8453  0.3064
  519TIP3   OH223047   0.860   1.494   3.452 -0.9101 -0.4440 -0.4139
  519TIP3    H123048   0.814   1.448   3.523  1.6896 -1.2226  0.8514
  519TIP3    H223049   0.919   1.428   3.415 -1.0938  0.4055 -2.2610
  520TIP3   OH223050   2.796   2.468  13.915  0.2438 -0.7049  0.3349
  520TIP3    H123051   2.888   2.475  13.890  0.6117 -1.8763  1.3386
  520TIP3    H223052   2.749   2.509  13.842  1.6052  0.9108  0.3398
  521TIP3   OH223053   1.220   2.104   3.167  0.0782 -0.1010  0.3231
  521TIP3    H123054   1.266   2.032   3.125  0.3410  0.6972 -0.8008
  521TIP3    H223055   1.256   2.108   3.255 -0.1542 -1.5203  0.4914
  522TIP3   OH223056   0.711   0.660  12.016  0.5350  0.4289  0.1089
  522TIP3    H123057   0.787   0.603  12.004  1.6749  1.5280  2.0265
  522TIP3    H223058   0.637   0.599  12.026  1.7313 -0.7331  2.0797
  523TIP3   OH223059   0.849   4.579   0.818 -0.9417 -0.2915 -0.2748
  523TIP3    H123060   0.864   4.484   0.810  0.3015 -0.2276  1.1376
  523TIP3    H223061   0.879   4.600   0.906 -1.6169  1.3598 -0.4353
  524TIP3   OH223062   1.327   2.290   3.513  0.1151  0.4760  0.4330
  524TIP3    H123063   1.416   2.321   3.497 -0.4222  0.7640 -2.2926
  524TIP3    H223064   1.332   2.195   3.501  0.3055  0.3283  1.6158
  525TIP3   OH223065   2.903   3.068  12.041  0.3998 -0.8069 -0.2695
  525TIP3    H123066   2.867   3.156  12.025 -0.0945 -0.8870  0.3709
  525TIP3    H223067   2.861   3.013  11.975  0.4568 -0.6187 -0.4615
  526TIP3   OH223068   1.869   3.793   2.451  0.1448 -0.2409  0.0444
  526TIP3    H123069   1.908   3.842   2.378 -0.4239  0.4968  0.2285
  526TIP3    H223070   1.775   3.802   2.437  0.0354  0.1835  1.0700
  527TIP3   OH223071   3.570   1.088   3.141  0.7852 -0.0993  0.2599
  527TIP3    H123072   3.579   1.017   3.077 -2.2187 -0.6963  0.3989
  527TIP3    H223073   3.595   1.047   3.224 -0.9807 -1.0475  0.3489
  528TIP3   OH223074   3.142   1.219   5.197  0.4955 -0.1017  0.2898
  528TIP3    H123075   3.052   1.201   5.173  0.6665 -0.2809 -0.2208
  528TIP3    H223076   3.171   1.139   5.242 -0.3962  0.9127  2.7860
  529TIP3   OH223077   0.883   5.605   0.077  0.3003 -0.5989 -0.1911
  529TIP3    H123078   0.966   5.569   0.045  1.0857  0.6067  0.4179
  529TIP3    H223079   0.898   5.700   0.078 -1.2511 -0.3416 -0.5085
  530TIP3   OH223080   3.853   4.240   6.644  0.1976 -0.3523  0.0636
  530TIP3    H123081   3.837   4.298   6.718 -0.5805  0.5732 -0.8134
  530TIP3    H223082   3.810   4.283   6.570 -0.5631 -2.1367 -0.5571
  531TIP3   OH223083   0.460   2.883  16.847 -0.7207  0.0154  0.2191
  531TIP3    H123084   0.387   2.824  16.830 -0.4200 -0.2094 -0.3120
  531TIP3    H223085   0.450   2.953  16.783 -0.8338  0.3178  0.5682
  532TIP3   OH223086   3.630   0.125   0.139  0.2415  0.4584  0.2200
  532TIP3    H123087   3.577   0.109   0.217 -0.1810  2.0390  0.2770
  532TIP3    H223088   3.586   0.198   0.095  1.7721  1.0895 -0.2856
  533TIP3   OH223089   5.684   3.531   1.554 -0.0746  0.1701 -0.3820
  533TIP3    H123090   5.622   3.483   1.499 -1.0614  1.6048 -0.5664
  533TIP3    H223091   5.767   3.526   1.507 -0.8601  1.2116 -1.9325
  534TIP3   OH223092   1.667   3.819  11.812 -0.4953 -0.4007  0.2574
  534TIP3    H123093   1.616   3.808  11.732 -0.9000 -1.4936  0.6626
  534TIP3    H223094   1.602   3.812  11.882  0.2307 -1.9595  0.7876
  535TIP3   OH223095   4.303   4.926   2.712  0.3720  0.1756  0.3190
  535TIP3    H123096   4.269   4.981   2.642  0.1006  0.5583  0.7502
  535TIP3    H223097   4.236   4.929   2.780  0.8704  0.2427  0.8140
  536TIP3   OH223098   4.342   5.421   0.526  0.2856 -0.0575  0.1039
  536TIP3    H123099   4.296   5.425   0.442  0.4911 -0.0168 -0.0083
  536TIP3    H223100   4.411   5.488   0.518 -0.2234  0.5369  0.6198
  537TIP3   OH223101   3.448   2.813  15.494  0.2665  0.2446 -0.3105
  537TIP3    H123102   3.498   2.742  15.534 -1.0848 -0.8446 -0.5345
  537TIP3    H223103   3.393   2.846  15.565  0.0017  0.2590 -0.5238
  538TIP3   OH223104   3.327   0.555   5.051 -0.6661 -0.7520 -0.1894
  538TIP3    H123105   3.404   0.504   5.074 -0.6327 -0.8858 -0.5920
  538TIP3    H223106   3.338   0.638   5.098  0.2508 -0.3572 -1.0713
  539TIP3   OH223107   2.122   1.881   2.892  0.0143 -0.4587 -0.1103
  539TIP3    H123108   2.071   1.944   2.841  1.4610  1.1618  0.3888
  539TIP3    H223109   2.080   1.880   2.978  0.9618  1.1200  0.4005
  540TIP3   OH223110   0.766   0.980  12.351  0.8334 -0.0914 -0.6417
  540TIP3    H123111   0.784   0.895  12.311  1.7136  0.6254 -1.8256
  540TIP3    H223112   0.798   1.043  12.287 -0.4656  1.1468 -0.0909
  541TIP3   OH223113   2.125   1.173  14.435  0.1506 -0.0459 -0.7828
  541TIP3    H123114   2.211   1.203  14.404  0.5727  0.7170  1.0126
  541TIP3    H223115   2.064   1.239  14.402  0.6589  1.0493  0.4071
  542TIP3   OH223116   2.670   2.750   3.351 -0.5146 -0.3578 -0.3034
  542TIP3    H123117   2.606   2.749   3.280 -1.8884 -1.2939  0.9072
  542TIP3    H223118   2.708   2.662   3.351 -0.7387 -0.4616  0.2922
  543TIP3   OH223119   0.669   3.456  17.174  0.0935 -0.1015 -0.1930
  543TIP3    H123120   0.625   3.501  17.246 -0.4877  0.6438 -1.0053
  543TIP3    H223121   0.631   3.368  17.174 -0.6995  0.2372 -0.2786
  544TIP3   OH223122   3.325   5.258   3.659  0.0214  0.2198 -0.4157
  544TIP3    H123123   3.360   5.217   3.580  0.1069 -1.9998  0.7335
  544TIP3    H223124   3.273   5.189   3.700  1.2422  0.8423  2.2621
  545TIP3   OH223125   0.649   3.719   3.954  0.2822  0.1045  0.4108
  545TIP3    H123126   0.627   3.812   3.961  2.9646  0.8143  0.0771
  545TIP3    H223127   0.565   3.675   3.941 -1.1122  2.3870  1.4026
  546TIP3   OH223128   5.067   5.203  14.911 -0.2368 -0.5907 -0.1416
  546TIP3    H123129   5.103   5.261  14.978 -2.5595  1.0078 -0.2475
  546TIP3    H223130   5.078   5.115  14.948  0.0059  0.1570  1.6326
  547TIP3   OH223131   6.249   3.333  11.758  0.0729  0.1845 -0.1289
  547TIP3    H123132   6.204   3.351  11.676  2.6479 -0.3692 -1.7315
  547TIP3    H223133   6.317   3.270  11.735  0.8444  0.0088  2.4376
  548TIP3   OH223134   1.072   1.438  12.109  0.1548 -0.6413 -0.1849
  548TIP3    H123135   0.999   1.472  12.057  1.0220 -1.0749 -1.7028
  548TIP3    H223136   1.042   1.446  12.200 -0.9532  1.1315 -0.6751
  549TIP3   OH223137   2.735   0.112   0.313 -0.1587 -0.6671  0.8445
  549TIP3    H123138   2.709   0.086   0.224  2.2985 -0.6195  0.0853
  549TIP3    H223139   2.785   0.037   0.346  1.3269  0.4298  1.1221
  550TIP3   OH223140   4.126   1.744   5.666 -0.3404 -0.8468 -0.7153
  550TIP3    H123141   4.085   1.781   5.588 -1.4811 -2.1215 -0.7399
  550TIP3    H223142   4.142   1.820   5.722  0.7373  0.1141 -2.2735
  551TIP3   OH223143   6.687   0.327  16.036  0.3867 -0.4889 -0.3803
  551TIP3    H123144   6.642   0.314  16.119 -0.3255 -0.4913 -0.7612
  551TIP3    H223145   6.637   0.396  15.992  1.9365  0.8994  0.0279
  552TIP3   OH223146   1.375   4.378  13.352 -0.0962  0.1791 -0.4644
  552TIP3    H123147   1.420   4.300  13.318  1.3798  1.0148 -0.4451
  552TIP3    H223148   1.363   4.435  13.276  1.2128  1.0831  0.0006
  553TIP3   OH223149   5.172   3.219  17.072  1.0000 -0.2288 -0.3073
  553TIP3    H123150   5.232   3.159  17.028 -1.2588 -2.6151 -0.2229
  553TIP3    H223151   5.188   3.204  17.166 -0.0327 -1.2336 -0.2763
  554TIP3   OH223152   2.856   1.401   3.273  0.2099  0.0714 -0.1523
  554TIP3    H123153   2.845   1.481   3.222  1.3408 -0.0726 -0.6510
  554TIP3    H223154   2.932   1.418   3.329  0.3161 -0.5623 -0.0999
  555TIP3   OH223155   5.261   0.244   1.411  0.3830 -0.2153 -0.1260
  555TIP3    H123156   5.256   0.180   1.339 -0.7376 -1.6375  1.1789
  555TIP3    H223157   5.317   0.202   1.476  0.9259  0.8280  0.0856
  556TIP3   OH223158   1.247   3.780   2.384  0.7570  0.2393 -0.3729
  556TIP3    H123159   1.327   3.771   2.436  0.9903  1.2308 -0.5568
  556TIP3    H223160   1.276   3.814   2.300  0.4996 -2.3012 -1.5545
  557TIP3   OH223161   4.478   0.483  15.940  0.1121 -0.1767  0.4601
  557TIP3    H123162   4.569   0.456  15.935  0.5904  1.5565 -0.4879
  557TIP3    H223163   4.472   0.534  16.021 -0.1680 -0.8154  0.8490
  558TIP3   OH223164   3.509   2.347   4.066 -0.5241  0.5948  0.4407
  558TIP3    H123165   3.491   2.255   4.085  1.2215  0.0936 -0.2309
  558TIP3    H223166   3.435   2.375   4.011 -0.0481 -0.9967 -1.0569
  559TIP3   OH223167   1.376   0.561   4.138  0.0623 -0.2105  0.2023
  559TIP3    H123168   1.394   0.612   4.216 -1.1630 -0.7860  0.8737
  559TIP3    H223169   1.448   0.498   4.134  0.0123 -0.3253  0.9948
  560TIP3   OH223170   5.588   6.386   2.121  0.5801  0.0345 -0.1863
  560TIP3    H123171   5.556   6.476   2.131  0.9641  0.2503 -0.9026
  560TIP3    H223172   5.514   6.339   2.082  0.1443 -0.1146  0.8190
  561TIP3   OH223173   6.311   0.002   1.850  0.3796 -0.5680 -0.3562
  561TIP3    H123174   6.387  -0.038   1.893  0.4016 -0.1711 -0.0258
  561TIP3    H223175   6.238  -0.053   1.877  0.2603  0.2028  0.9199
  562TIP3   OH223176   5.579   5.811   3.207 -0.2668  0.6294  0.1494
  562TIP3    H123177   5.516   5.795   3.137  0.6630 -0.3477 -0.4720
  562TIP3    H223178   5.661   5.831   3.161  0.0169  1.3521  0.9558
  563TIP3   OH223179   2.768   4.153  11.085  0.2353 -0.1078  0.0736
  563TIP3    H123180   2.819   4.223  11.044  0.2929 -0.9768 -1.4103
  563TIP3    H223181   2.739   4.099  11.011 -1.6531 -0.4173  1.0282
  564TIP3   OH223182   2.820   6.085   5.910 -0.0039 -0.6358  0.6124
  564TIP3    H123183   2.850   6.000   5.942  1.6178 -0.1196  0.5137
  564TIP3    H223184   2.894   6.119   5.860 -0.0153  1.5976  2.0807
  565TIP3   OH223185   3.074   5.220   0.219  0.2520  0.1571  0.1413
  565TIP3    H123186   3.094   5.262   0.303  1.9238 -2.1346  0.9422
  565TIP3    H223187   3.014   5.149   0.242 -0.6662  0.5924 -0.8683
  566TIP3   OH223188   4.158   5.141  16.903  0.2983 -0.4869 -0.0115
  566TIP3    H123189   4.136   5.189  16.983 -1.1038  1.2985 -1.4211
  566TIP3    H223190   4.247   5.170  16.882 -0.0988  0.6261 -0.2066
  567TIP3   OH223191   6.597   3.284   0.991 -0.2342  0.0233 -0.1179
  567TIP3    H123192   6.551   3.200   0.988 -0.2682  0.0741 -1.0639
  567TIP3    H223193   6.683   3.262   1.028 -0.1618 -0.4668 -0.5679
  568TIP3   OH223194   2.868   1.545  12.666 -0.4293  0.4376  0.0443
  568TIP3    H123195   2.863   1.496  12.749  0.1173  0.7860  0.2846
  568TIP3    H223196   2.780   1.538  12.630 -0.7693  0.5750  0.8228
  569TIP3   OH223197   1.094   3.323   2.477 -0.3693 -0.1784 -0.0744
  569TIP3    H123198   1.029   3.263   2.514  0.2024  0.5426  2.1320
  569TIP3    H223199   1.066   3.409   2.507  0.1152  0.4294 -1.3420
  570TIP3   OH223200   2.346   2.334   4.090  0.1578 -0.3210  0.1409
  570TIP3    H123201   2.429   2.298   4.121  1.5715  1.7885 -1.0985
  570TIP3    H223202   2.334   2.415   4.139 -0.9480 -0.3735 -0.0209
  571TIP3   OH223203   6.115   3.211   0.332 -0.3749 -0.8752 -0.5589
  571TIP3    H123204   6.149   3.125   0.357 -0.1447 -0.7429 -0.4152
  571TIP3    H223205   6.190   3.256   0.294 -1.1455 -1.7234 -3.1715
  572TIP3   OH223206   2.331   1.468   6.125  0.2548 -0.2793  0.7628
  572TIP3    H123207   2.237   1.459   6.135  0.2297 -0.5664  0.2893
  572TIP3    H223208   2.365   1.464   6.215 -0.0686 -1.5121  0.8392
  573TIP3   OH223209   1.251   0.139   2.820 -0.3010 -0.2466  0.2040
  573TIP3    H123210   1.261   0.119   2.913  1.8847 -1.0007 -0.1758
  573TIP3    H223211   1.315   0.084   2.776 -0.2772  1.1880 -1.6314
  574TIP3   OH223212   4.477   4.152  11.047  0.1552 -0.0093  0.1085
  574TIP3    H123213   4.554   4.164  10.992  0.5110 -2.5470 -0.0268
  574TIP3    H223214   4.509   4.106  11.125 -1.3397 -2.1006 -0.4463
  575TIP3   OH223215   1.229   6.295   3.836 -0.5356  1.0363 -0.3402
  575TIP3    H123216   1.232   6.203   3.861  0.3178  1.2947  0.5031
  575TIP3    H223217   1.136   6.311   3.816 -0.8922  0.2971  0.6611
  576TIP3   OH223218   6.031   1.723  14.605  0.0482 -0.0527 -1.3847
  576TIP3    H123219   5.983   1.687  14.679 -0.3444  3.1026 -0.0332
  576TIP3    H223220   5.993   1.681  14.528  0.3581 -3.2509  0.1560
  577TIP3   OH223221   0.338   4.654   5.087 -0.0927  0.0356 -0.0204
  577TIP3    H123222   0.250   4.655   5.123  0.4089  1.3247  1.2244
  577TIP3    H223223   0.338   4.581   5.025 -3.4025  2.7801 -3.5028
  578TIP3   OH223224   2.730   1.903   4.291  0.8996  0.4067 -0.0611
  578TIP3    H123225   2.654   1.954   4.318  0.8882  0.8600 -0.9162
  578TIP3    H223226   2.780   1.963   4.236  0.2842 -0.8684 -2.0615
  579TIP3   OH223227   1.600   3.270   1.449 -0.1652  0.4454 -0.1435
  579TIP3    H123228   1.542   3.194   1.446  0.9676 -0.4543  0.2441
  579TIP3    H223229   1.615   3.284   1.543  0.1751  0.7089 -0.2374
  580TIP3   OH223230   3.365   3.777  13.381 -0.3306  0.1624 -0.6468
  580TIP3    H123231   3.302   3.839  13.418 -0.1261  0.2363 -0.4212
  580TIP3    H223232   3.383   3.810  13.293  0.9222  1.2697  0.0137
  581TIP3   OH223233   4.823   1.431   2.689 -1.0769  0.4164  0.3062
  581TIP3    H123234   4.778   1.365   2.636 -1.6499  1.3516 -0.4017
  581TIP3    H223235   4.832   1.391   2.775 -1.8060 -0.4188  0.0052
  582TIP3   OH223236   0.199   2.175  13.872 -0.3089 -0.5830 -0.1258
  582TIP3    H123237   0.163   2.181  13.960  1.7606  0.6656  0.6865
  582TIP3    H223238   0.125   2.190  13.814 -1.4377 -0.0188  1.4357
  583TIP3   OH223239   2.946   4.224  10.392 -0.0476 -0.0828  0.5160
  583TIP3    H123240   2.912   4.196  10.307 -1.6953  2.7539  0.1693
  583TIP3    H223241   3.039   4.240  10.377 -0.7598  2.6257 -1.4107
  584TIP3   OH223242   6.168   4.652   0.482  0.3859 -0.0551  0.4161
  584TIP3    H123243   6.209   4.571   0.511  1.6067  0.7919  1.0834
  584TIP3    H223244   6.178   4.652   0.387 -0.1786 -0.9770  0.3490
  585TIP3   OH223245   6.441   1.735  12.217  0.2082 -0.3871  0.6067
  585TIP3    H123246   6.492   1.660  12.250  1.3724 -0.1368 -0.5651
  585TIP3    H223247   6.473   1.747  12.127 -1.1123  0.5156  0.2527
  586TIP3   OH223248   1.561   1.810  16.781  0.2664  0.0823  0.2396
  586TIP3    H123249   1.543   1.849  16.696 -0.7046 -0.7356  0.0551
  586TIP3    H223250   1.498   1.851  16.840  0.2793 -0.0684  0.3583
  587TIP3   OH223251   5.178   6.438   2.719  0.1387  0.2108 -0.3236
  587TIP3    H123252   5.172   6.361   2.662 -1.5841 -0.5700  0.8718
  587TIP3    H223253   5.236   6.498   2.672  0.7878 -1.4437 -1.6981
  588TIP3   OH223254   4.461   3.536   3.513  0.1231  0.1671  0.5472
  588TIP3    H123255   4.509   3.576   3.440  1.1921 -1.8986  0.0915
  588TIP3    H223256   4.482   3.592   3.588  1.3167  0.6879 -0.1469
  589TIP3   OH223257   1.502   1.892   2.052 -0.3713  0.6862  0.3909
  589TIP3    H123258   1.446   1.967   2.034  1.3751  1.4820 -1.9542
  589TIP3    H223259   1.544   1.913   2.136 -0.9968  1.6295  0.4740
  590TIP3   OH223260   5.004   5.018   3.743 -0.0506 -0.2189  0.0882
  590TIP3    H123261   4.987   5.100   3.790  0.8136 -0.3940  0.7212
  590TIP3    H223262   4.932   5.011   3.680 -1.5016 -0.2259  1.7083
  591TIP3   OH223263   2.456   5.765   1.183 -0.5719  0.3220  0.2500
  591TIP3    H123264   2.425   5.718   1.260 -0.0924  0.6825  0.6626
  591TIP3    H223265   2.530   5.712   1.151  0.4782  1.2074  1.1777
  592TIP3   OH223266   2.433   6.259  13.883  0.2040 -0.0587 -0.1579
  592TIP3    H123267   2.502   6.269  13.817  0.4165  0.6061  0.1606
  592TIP3    H223268   2.351   6.264  13.833  0.3184  2.1097 -0.1900
  593TIP3   OH223269   4.786   1.066   1.953 -0.6240  0.1998  0.1329
  593TIP3    H123270   4.717   1.072   1.888  1.2705 -1.1639 -2.0531
  593TIP3    H223271   4.804   0.973   1.962  0.5175  0.4895  1.1184
  594TIP3   OH223272   3.601   0.476  15.879 -0.3645  0.0661 -0.5067
  594TIP3    H123273   3.647   0.555  15.849 -2.3972  0.8399 -1.7087
  594TIP3    H223274   3.528   0.509  15.931  0.8321 -1.1715  2.0331
  595TIP3   OH223275   6.112   2.162  16.850  0.8562 -0.3025  0.2287
  595TIP3    H123276   6.163   2.240  16.827 -1.2633  0.8777 -0.7010
  595TIP3    H223277   6.082   2.128  16.765 -1.3164  0.0554  0.8258
  596TIP3   OH223278   3.778   5.722  12.164 -0.3238  0.0337 -0.5198
  596TIP3    H123279   3.862   5.768  12.169  0.4062 -1.1776 -1.5492
  596TIP3    H223280   3.746   5.722  12.254  0.9952  0.0980 -0.0390
  597TIP3   OH223281   1.402   0.605   3.792  0.2155  0.5132 -0.0691
  597TIP3    H123282   1.443   0.613   3.879 -1.2347 -1.4970  0.8417
  597TIP3    H223283   1.355   0.687   3.781  1.0919  1.1325  0.6761
  598TIP3   OH223284   4.790   3.798   5.191 -0.7035  0.3407  0.3260
  598TIP3    H123285   4.734   3.872   5.169  0.1296  1.0529  0.5587
  598TIP3    H223286   4.879   3.830   5.174 -0.2460 -0.0936  1.8693
  599TIP3   OH223287   5.460   5.036  12.968 -0.1876 -0.2224  0.8410
  599TIP3    H123288   5.535   5.031  12.910 -0.7025 -0.3863  0.1819
  599TIP3    H223289   5.395   5.087  12.919 -1.5341 -2.4577  0.2262
  600TIP3   OH223290   4.362   5.132  11.549  0.5491 -0.0429  0.2382
  600TIP3    H123291   4.395   5.202  11.493 -0.6832 -0.2115 -0.7342
  600TIP3    H223292   4.306   5.080  11.491 -2.5763  1.0795  2.1261
  601TIP3   OH223293   1.505   2.198   5.424 -0.3157 -0.1005 -0.2695
  601TIP3    H123294   1.515   2.104   5.437 -1.3421 -0.4283 -1.7793
  601TIP3    H223295   1.501   2.234   5.513 -0.5467 -1.5393  0.3168
  602TIP3   OH223296   5.956   1.773   4.203  0.3778 -0.0404 -0.5182
  602TIP3    H123297   5.892   1.812   4.263 -0.2257 -0.1698 -1.0734
  602TIP3    H223298   5.904   1.747   4.127  0.7045 -2.3459  0.0217
  603TIP3   OH223299   2.260   5.210  14.042  0.3638 -0.3319  0.0240
  603TIP3    H123300   2.287   5.298  14.066 -0.8230  0.1582 -0.4285
  603TIP3    H223301   2.198   5.222  13.971 -1.9272 -1.3559  1.7736
  604TIP3   OH223302   4.175   1.666   1.114  0.3498 -0.3505  0.7753
  604TIP3    H123303   4.166   1.756   1.083 -0.9483 -1.0058 -0.8370
  604TIP3    H223304   4.164   1.612   1.036  1.4762 -1.9128  1.6624
  605TIP3   OH223305   3.571   1.689  16.747  0.2024  0.1162  0.0110
  605TIP3    H123306   3.626   1.723  16.818 -2.1581  3.2749  0.4328
  605TIP3    H223307   3.574   1.757  16.679  0.7001 -1.8883 -2.0357
  606TIP3   OH223308   4.007   0.109  15.352 -0.2497 -0.0239  0.2145
  606TIP3    H123309   4.005   0.136  15.260  2.2845 -3.9462 -1.0865
  606TIP3    H223310   3.993   0.015  15.350  0.7509 -0.3256  3.8269
  607TIP3   OH223311   5.564   0.355   3.728  0.3337  0.3429  0.0371
  607TIP3    H123312   5.638   0.357   3.667 -1.6615 -1.1106 -2.5027
  607TIP3    H223313   5.498   0.412   3.688 -0.6019  0.2452  1.3893
  608TIP3   OH223314   0.952   3.142   6.089  0.0106 -0.0503  0.0660
  608TIP3    H123315   0.964   3.206   6.159 -2.9560 -0.8433  1.3945
  608TIP3    H223316   0.937   3.059   6.134 -2.3855 -0.4953 -1.4218
  609TIP3   OH223317   3.361   0.986  13.538  0.2388  0.0897 -0.5801
  609TIP3    H123318   3.396   0.968  13.450  1.2947  0.4493 -0.2435
  609TIP3    H223319   3.344   1.081  13.538  1.8501  0.4009  0.1515
  610TIP3   OH223320   5.058   5.796   3.642  0.0606 -0.2289 -0.0461
  610TIP3    H123321   5.060   5.889   3.665  0.5781  0.2541 -1.8937
  610TIP3    H223322   5.119   5.789   3.568 -0.6213 -1.8769 -0.4799
  611TIP3   OH223323   3.690   2.804   0.705  0.3235  0.4491  0.5205
  611TIP3    H123324   3.706   2.878   0.645 -1.3412  0.8200  0.5257
  611TIP3    H223325   3.774   2.793   0.750  0.7221  2.1011  0.2514
  612TIP3   OH223326   5.559   2.809   3.809 -0.2264  0.0468 -0.1806
  612TIP3    H123327   5.463   2.804   3.808 -0.2558  0.5646 -0.3370
  612TIP3    H223328   5.584   2.780   3.896 -0.3487 -2.8883 -1.0613
  613TIP3   OH223329   2.810   0.603  16.760 -1.0514  0.0649  0.4472
  613TIP3    H123330   2.841   0.613  16.850 -0.2909 -0.4884  0.2513
  613TIP3    H223331   2.715   0.613  16.766 -1.0017  0.0573  1.3070
  614TIP3   OH223332   2.755   2.985   1.754 -0.5475  0.3774  0.4299
  614TIP3    H123333   2.785   2.933   1.828  1.4922  0.3809 -0.3555
  614TIP3    H223334   2.817   2.965   1.684 -1.8121  1.1859 -0.9590
  615TIP3   OH223335   4.218   5.703   0.360  0.1245  0.0545 -0.4502
  615TIP3    H123336   4.158   5.628   0.355 -1.6073  1.4453 -0.8577
  615TIP3    H223337   4.223   5.736   0.271  0.3031  0.8850 -0.1364
  616TIP3   OH223338   1.381   1.888   5.063 -0.2745  0.9741 -0.0495
  616TIP3    H123339   1.465   1.911   5.103 -0.1280 -0.8880  0.7489
  616TIP3    H223340   1.333   1.971   5.060  1.5707  2.0668 -0.5208
  617TIP3   OH223341   6.093   6.321   1.374 -0.1692  0.0642 -0.7029
  617TIP3    H123342   6.189   6.317   1.375 -0.0887  1.4996 -1.6632
  617TIP3    H223343   6.070   6.340   1.284 -1.3585  0.1631 -0.3908
  618TIP3   OH223344   2.085   0.233  14.024  0.3378 -0.3678  0.6081
  618TIP3    H123345   2.046   0.281  14.097 -0.5891  1.4557 -1.0231
  618TIP3    H223346   2.144   0.295  13.983 -1.8598 -0.0724 -2.3366
  619TIP3   OH223347   0.433   4.523  15.483  0.1152 -0.9210 -0.2386
  619TIP3    H123348   0.408   4.597  15.428 -0.0169 -1.5551 -1.0295
  619TIP3    H223349   0.440   4.561  15.571 -0.0422  0.0131 -0.6165
  620TIP3   OH223350   2.081   6.663   2.405  0.1384 -0.2212 -0.7041
  620TIP3    H123351   2.041   6.576   2.404  1.1190 -0.6873 -2.1073
  620TIP3    H223352   2.034   6.711   2.337  0.6874 -0.1753 -1.0529
  621TIP3   OH223353   5.048   0.739  15.832  0.0693 -0.3133  0.3275
  621TIP3    H123354   5.084   0.655  15.858  1.1628  0.0681  0.0661
  621TIP3    H223355   5.120   0.785  15.790 -0.6370  0.5801  0.0563
  622TIP3   OH223356   3.763   3.710  14.057  0.4530  0.1830  0.3193
  622TIP3    H123357   3.707   3.784  14.034 -1.0429 -1.7258 -2.5053
  622TIP3    H223358   3.710   3.657  14.117 -0.2096 -0.8295 -1.1362
  623TIP3   OH223359   0.373   0.699   3.323  0.0490  0.0193 -0.2886
  623TIP3    H123360   0.294   0.645   3.314 -1.1632  1.6421  0.2165
  623TIP3    H223361   0.364   0.766   3.255  1.3621 -0.2176 -0.7040
  624TIP3   OH223362   2.814   4.543  16.857 -0.4850 -0.3153  0.2052
  624TIP3    H123363   2.745   4.516  16.796  0.3686  0.1212 -0.9660
  624TIP3    H223364   2.876   4.592  16.803  0.4305 -0.1723  1.3716
  625TIP3   OH223365   2.818   5.717   3.317  0.5326 -0.8277  0.1005
  625TIP3    H123366   2.877   5.791   3.303 -0.1821 -0.2233  0.2278
  625TIP3    H223367   2.837   5.688   3.406 -0.0501  0.0052  0.5091
  626TIP3   OH223368   3.895   6.534  11.689 -0.0427 -1.0363  0.3316
  626TIP3    H123369   3.965   6.600  11.690 -0.5050 -0.5512  0.4506
  626TIP3    H223370   3.835   6.564  11.621 -0.3060 -1.2840  0.4559
  627TIP3   OH223371   3.455   2.761  15.040  0.5713 -0.2572  0.2470
  627TIP3    H123372   3.388   2.762  14.972  0.6080  0.0310  0.2123
  627TIP3    H223373   3.536   2.739  14.992  0.1984 -2.4366  0.5749
  628TIP3   OH223374   3.644   1.012   1.769 -0.3332  0.0484  0.2884
  628TIP3    H123375   3.686   0.980   1.690 -0.8144  1.5734 -0.5836
  628TIP3    H223376   3.686   0.963   1.840  0.1282 -1.2834 -0.8903
  629TIP3   OH223377   1.597   2.657  13.363  0.1538  0.0666 -0.3202
  629TIP3    H123378   1.594   2.736  13.310  1.5348  0.9402  0.8767
  629TIP3    H223379   1.607   2.586  13.300 -0.9022  0.8526 -1.3873
  630TIP3   OH223380   0.038   0.165   5.238  0.8311 -0.2701 -0.0388
  630TIP3    H123381   0.059   0.195   5.327 -0.3664 -0.6466  0.3745
  630TIP3    H223382   0.049   0.070   5.241 -1.1599 -0.5057  0.2603
  631TIP3   OH223383   4.777   5.250  13.709 -0.1601  0.0893  0.5248
  631TIP3    H123384   4.761   5.156  13.713  1.6021 -0.2255  0.5651
  631TIP3    H223385   4.847   5.260  13.644 -0.6988  1.4188  0.1234
  632TIP3   OH223386   2.873   2.499  15.654 -0.3987 -0.2089  0.1629
  632TIP3    H123387   2.927   2.422  15.635  0.5043  0.4502  0.0069
  632TIP3    H223388   2.860   2.496  15.749  1.0382  0.3345  0.3985
  633TIP3   OH223389   3.881   2.507  13.096  0.4138  0.0275  0.2773
  633TIP3    H123390   3.917   2.442  13.156  1.1308  1.5607  1.5273
  633TIP3    H223391   3.870   2.459  13.013  1.0151 -1.6489  1.1379
  634TIP3   OH223392   6.281   6.765  16.703 -0.3607 -0.4726 -0.3804
  634TIP3    H123393   6.222   6.699  16.667 -0.6033 -0.1651 -0.5381
  634TIP3    H223394   6.231   6.846  16.703 -0.2950 -0.4196  0.4365
  635TIP3   OH223395   0.006   2.033  16.926 -0.1329  0.4389 -0.1491
  635TIP3    H123396   0.034   1.942  16.930 -2.0743 -0.3348 -3.1845
  635TIP3    H223397   0.073   2.077  16.874 -0.2984  0.3153 -0.4635
  636TIP3   OH223398   2.686   2.333  14.143 -0.1794 -0.7817  0.2489
  636TIP3    H123399   2.602   2.356  14.184 -0.0879  0.4629 -0.2178
  636TIP3    H223400   2.700   2.403  14.079  2.5429  0.5980  2.2199
  637TIP3   OH223401   5.983   5.305   5.355 -0.0427  0.1035 -0.0342
  637TIP3    H123402   6.004   5.393   5.387  0.5552 -0.4763  1.2111
  637TIP3    H223403   5.923   5.319   5.282 -0.9763  1.4873  0.9861
  638TIP3   OH223404   3.970   6.451   2.396 -0.5638 -0.1588 -0.3429
  638TIP3    H123405   3.887   6.498   2.394 -0.9510 -0.7864  0.4599
  638TIP3    H223406   4.030   6.504   2.344 -1.3023  0.6152 -0.4055
  639TIP3   OH223407   4.910   5.152  13.214 -0.3298  0.1599  0.3325
  639TIP3    H123408   4.921   5.163  13.308  0.6752 -1.4733  0.4188
  639TIP3    H223409   4.824   5.112  13.205 -1.0125  1.5624  0.4506
  640TIP3   OH223410   6.544   1.408  15.770  0.5451 -0.3416 -0.5824
  640TIP3    H123411   6.454   1.442  15.768  0.3665 -0.4441  2.9067
  640TIP3    H223412   6.598   1.484  15.748 -0.1963  0.9071  1.6731
  641TIP3   OH223413   1.707   1.465  11.549  0.1918  0.2488 -0.2757
  641TIP3    H123414   1.774   1.504  11.605 -0.6875  0.4747  0.6371
  641TIP3    H223415   1.644   1.427  11.610  0.7127 -2.0743 -1.1229
  642TIP3   OH223416   6.356   0.062   4.425 -0.1946  0.1956 -0.0452
  642TIP3    H123417   6.304   0.091   4.350  0.1152  1.5713  0.2610
  642TIP3    H223418   6.302  -0.006   4.466 -1.0633  0.5274 -0.6166
  643TIP3   OH223419   0.050   0.221   4.977 -0.2943  0.2729 -0.9181
  643TIP3    H123420   0.098   0.146   4.940  0.5627  0.4369 -0.1468
  643TIP3    H223421   0.065   0.215   5.071  0.6141  1.9854 -0.9347
  644TIP3   OH223422   5.591   4.647  16.490 -0.3747  0.4789 -0.0216
  644TIP3    H123423   5.607   4.741  16.496  1.5692  0.3755 -2.3995
  644TIP3    H223424   5.653   4.608  16.552 -1.0501  0.7435  0.8259
  645TIP3   OH223425   4.865   6.469  15.767  0.0891  0.7468 -0.0749
  645TIP3    H123426   4.788   6.513  15.802 -0.4446  0.1119 -0.4321
  645TIP3    H223427   4.892   6.524  15.693 -0.2738  0.7533 -0.2067
  646TIP3   OH223428   2.863   4.215  11.326 -0.0651 -0.1672  0.5316
  646TIP3    H123429   2.821   4.198  11.242 -0.1886  1.3954  0.2499
  646TIP3    H223430   2.876   4.310  11.327  2.9680 -0.5377  0.8718
  647TIP3   OH223431   6.753   5.215  14.879  0.2733 -0.0012  0.6585
  647TIP3    H123432   6.667   5.249  14.907  0.3486 -0.2723  1.2370
  647TIP3    H223433   6.792   5.287  14.830 -0.3923  0.0337  0.1784
  648TIP3   OH223434   5.133   1.503  16.398 -0.6682 -0.4424 -0.1239
  648TIP3    H123435   5.089   1.446  16.335  0.2677 -0.9236 -0.3630
  648TIP3    H223436   5.091   1.485  16.481  0.9987 -3.0698  0.2118
  649TIP3   OH223437   4.218   0.334  11.765  0.8987  0.7407 -0.1285
  649TIP3    H123438   4.187   0.337  11.855  2.2066  0.1527  0.3560
  649TIP3    H223439   4.312   0.315  11.772  0.9526  0.3527 -1.6149
  650TIP3   OH223440   0.176   3.161  11.402 -0.6786 -0.3873  0.2309
  650TIP3    H123441   0.113   3.173  11.331 -0.3556  1.0414  0.1595
  650TIP3    H223442   0.235   3.093  11.371 -0.7184  0.0211 -0.7486
  651TIP3   OH223443   2.302   5.372   2.236 -0.1695  0.3609 -0.0598
  651TIP3    H123444   2.279   5.297   2.181  0.9294 -0.3987  0.4954
  651TIP3    H223445   2.332   5.333   2.318 -0.7733  1.4530  0.6920
  652TIP3   OH223446   5.632   6.147  12.189  0.2141  0.0184  0.4704
  652TIP3    H123447   5.687   6.222  12.170 -0.2333  0.4908  1.0230
  652TIP3    H223448   5.667   6.112  12.271  1.7643 -1.6533 -0.8558
  653TIP3   OH223449   1.635   4.740  12.636  0.3503  0.3175 -0.0553
  653TIP3    H123450   1.561   4.721  12.693  0.5246  0.8609  0.3537
  653TIP3    H223451   1.599   4.737  12.547 -0.2812  1.0875  0.1665
  654TIP3   OH223452   5.893   2.398  17.215  0.4393 -0.1615  0.3125
  654TIP3    H123453   5.927   2.480  17.178  0.7199 -0.0866  0.7322
  654TIP3    H223454   5.807   2.421  17.249 -0.1981 -0.4301 -1.0716
  655TIP3   OH223455   5.594   4.885  15.459 -0.6270  0.5353  0.1696
  655TIP3    H123456   5.517   4.912  15.409 -0.9162  0.0987  0.3857
  655TIP3    H223457   5.560   4.828  15.528 -0.3738  1.9689  1.5299
  656TIP3   OH223458   1.464   4.958   4.522  0.2989  0.3702 -0.5067
  656TIP3    H123459   1.491   5.003   4.441 -0.7720  0.1984 -0.9628
  656TIP3    H223460   1.493   5.016   4.592  2.7212 -0.2508 -0.9339
  657TIP3   OH223461   6.106   1.046   0.858  0.1422  0.4203  1.0076
  657TIP3    H123462   6.104   0.961   0.902  1.4427  0.1144  0.5051
  657TIP3    H223463   6.015   1.065   0.838 -0.3754  0.1080  2.9549
  658TIP3   OH223464   1.662   4.846  13.325  0.1116 -0.4743 -0.3557
  658TIP3    H123465   1.668   4.874  13.417 -0.0380  0.6759 -0.6923
  658TIP3    H223466   1.573   4.812  13.317 -0.2891  0.5559 -0.3806
  659TIP3   OH223467   2.375   0.471  15.333  0.3566  0.0575 -0.3067
  659TIP3    H123468   2.383   0.421  15.414 -1.3211  1.1230  0.5388
  659TIP3    H223469   2.290   0.447  15.298 -0.0544  1.5641 -0.3821
  660TIP3   OH223470   1.524   1.981  12.320 -0.0452 -0.5218  0.4053
  660TIP3    H123471   1.512   1.891  12.289 -1.5089 -0.3657  0.4797
  660TIP3    H223472   1.449   1.997  12.378 -0.1549  0.9669 -0.1254
  661TIP3   OH223473   2.018   0.234  17.113 -0.4825  0.2594 -0.9510
  661TIP3    H123474   2.065   0.235  17.195 -2.2107  1.6261  0.0641
  661TIP3    H223475   2.004   0.141  17.094 -0.4842 -0.0514  0.5429
  662TIP3   OH223476   1.149   4.938   5.038  0.4899 -0.2894 -0.3106
  662TIP3    H123477   1.128   4.858   5.085  0.1385  1.4639  2.6769
  662TIP3    H223478   1.244   4.943   5.039  0.5923 -1.5683 -2.1373
  663TIP3   OH223479   0.877   6.262  14.377 -0.5244  0.2231 -0.2285
  663TIP3    H123480   0.927   6.181  14.388 -1.6650 -0.3709  0.7195
  663TIP3    H223481   0.802   6.251  14.435 -1.1517  1.5885 -0.7758
  664TIP3   OH223482   3.725   0.488  11.767  0.7558 -0.3036  0.1418
  664TIP3    H123483   3.686   0.473  11.854  1.4683 -0.3508  0.4541
  664TIP3    H223484   3.735   0.583  11.761 -0.7693 -0.1684 -0.5398
  665TIP3   OH223485   4.214   0.970   1.659 -0.3556 -0.7713 -0.3820
  665TIP3    H123486   4.226   1.002   1.569 -1.6853  0.7379 -0.0310
  665TIP3    H223487   4.165   1.039   1.703 -0.0455 -1.6753  1.4202
  666TIP3   OH223488   4.468   0.533  14.038  0.1901  0.0292  0.0282
  666TIP3    H123489   4.553   0.568  14.010 -0.3326  0.7167 -0.7710
  666TIP3    H223490   4.424   0.511  13.956 -0.1178 -1.0286  0.4699
  667TIP3   OH223491   5.405   6.073   5.380  0.0856  0.8387  0.2345
  667TIP3    H123492   5.447   6.114   5.454  0.8179  0.4815  0.0187
  667TIP3    H223493   5.437   6.121   5.304  0.8543 -0.0426 -0.0098
  668TIP3   OH223494   1.181   3.735   4.116 -0.2723 -0.1626 -0.7250
  668TIP3    H123495   1.102   3.766   4.162 -0.9362 -1.9492 -0.6134
  668TIP3    H223496   1.164   3.756   4.024  0.7869  2.8598 -0.2756
  669TIP3   OH223497   3.455   6.320  11.718 -0.4658 -0.6087 -0.0936
  669TIP3    H123498   3.428   6.359  11.801  1.0783 -0.5055  0.3681
  669TIP3    H223499   3.551   6.321  11.721 -0.4054 -1.1216 -1.6326
  670TIP3   OH223500   5.263   0.088   6.407  0.3255 -0.3964  0.2734
  670TIP3    H123501   5.290   0.175   6.437  0.2951 -0.4084  0.3339
  670TIP3    H223502   5.201   0.058   6.473 -1.1535  0.3586 -0.7373
  671TIP3   OH223503   2.212   6.045  14.562 -0.7193  0.2251  0.3979
  671TIP3    H123504   2.129   6.082  14.591  0.4390  0.6883  3.2556
  671TIP3    H223505   2.266   6.121  14.540  0.5326  0.2086  3.1401
  672TIP3   OH223506   1.943   2.399  16.213 -0.0179  0.3740  0.1149
  672TIP3    H123507   1.948   2.317  16.165 -0.4686  0.1285  0.4889
  672TIP3    H223508   1.993   2.461  16.160  0.4789 -0.1869 -0.0726
  673TIP3   OH223509   3.989   1.277   2.197  0.3066  0.5883 -0.1084
  673TIP3    H123510   4.034   1.201   2.234 -0.9478  0.8490  1.9706
  673TIP3    H223511   4.052   1.349   2.206  1.2413 -0.0322 -1.4875
  674TIP3   OH223512   1.087   1.707   0.212  0.0596 -0.0901  0.7991
  674TIP3    H123513   1.078   1.671   0.300  0.0700 -1.9060  0.0660
  674TIP3    H223514   1.148   1.781   0.223  1.3661 -1.3208  2.0536
  675TIP3   OH223515   6.216   2.604  16.223 -0.0653  0.3375 -0.4779
  675TIP3    H123516   6.197   2.691  16.258 -0.3350 -0.2017  0.7236
  675TIP3    H223517   6.258   2.621  16.138  0.5574  1.6367  0.0800
  676TIP3   OH223518   4.717   5.790   1.360  0.1523 -0.0946  0.0091
  676TIP3    H123519   4.625   5.768   1.374  0.0372  2.0515  3.1181
  676TIP3    H223520   4.765   5.726   1.413  0.3470  0.0613  0.0210
  677TIP3   OH223521   0.750   1.871  14.204  0.0682  0.5223  0.3585
  677TIP3    H123522   0.776   1.939  14.266 -0.0342 -0.0365  1.0257
  677TIP3    H223523   0.670   1.906  14.163 -0.5835  0.3652  1.4559
  678TIP3   OH223524   6.279   1.511  15.352  0.3883 -0.8209 -0.3066
  678TIP3    H123525   6.340   1.538  15.420  0.5329  0.8477 -1.0680
  678TIP3    H223526   6.334   1.483  15.279  0.4441  4.0887 -2.3760
  679TIP3   OH223527   2.765   5.609   4.895 -0.5581 -0.6849  0.1530
  679TIP3    H123528   2.834   5.626   4.831  0.3606 -1.9270  0.7955
  679TIP3    H223529   2.730   5.524   4.871 -2.8273  0.5083 -0.9916
  680TIP3   OH223530   6.248   3.677  12.395 -0.2327 -0.1036 -0.0629
  680TIP3    H123531   6.310   3.740  12.359 -1.6643  1.3242 -0.0743
  680TIP3    H223532   6.212   3.633  12.319 -0.2843  0.0719 -0.1405
  681TIP3   OH223533   2.076   2.593  16.057 -0.0940  0.2372 -0.1186
  681TIP3    H123534   2.107   2.605  15.967 -0.7096  1.4098 -0.1804
  681TIP3    H223535   2.123   2.659  16.107  1.0646 -1.1350  0.6197
  682TIP3   OH223536   5.658   1.442   6.076 -1.3322 -0.3077  0.5275
  682TIP3    H123537   5.724   1.380   6.107 -0.4463  0.4639  0.2331
  682TIP3    H223538   5.691   1.472   5.991 -0.9711  1.6714  1.3360
  683TIP3   OH223539   0.244   4.043   3.977  0.4030 -0.2671  0.9158
  683TIP3    H123540   0.186   3.970   4.001  1.0918 -0.1315  3.0919
  683TIP3    H223541   0.232   4.107   4.047  2.0023  0.4424  0.5563
  684TIP3   OH223542   1.008   5.750  13.488 -0.1012 -0.0460 -0.9140
  684TIP3    H123543   1.052   5.829  13.519 -0.1270 -0.1551 -0.5951
  684TIP3    H223544   0.916   5.774  13.483 -0.6336 -1.0738  2.5942
  685TIP3   OH223545   4.787   3.052   6.544 -0.3696  0.4520 -0.2091
  685TIP3    H123546   4.802   3.144   6.564 -0.6994  0.9451 -2.0674
  685TIP3    H223547   4.701   3.033   6.581 -0.2674  0.8802  0.2442
  686TIP3   OH223548   0.207   6.552   1.003 -0.0506  0.4272 -0.2217
  686TIP3    H123549   0.135   6.608   0.974 -0.3597  0.4179  0.5103
  686TIP3    H223550   0.223   6.578   1.094 -1.2334 -1.7113  0.6472
  687TIP3   OH223551   4.045   4.457  10.494 -0.2430 -0.7829  0.2131
  687TIP3    H123552   3.981   4.393  10.464 -0.7074  0.1970 -0.9418
  687TIP3    H223553   4.085   4.417  10.572 -1.7267 -1.7205  0.5147
  688TIP3   OH223554   6.753   6.210  16.864  0.0121  0.0115 -0.3807
  688TIP3    H123555   6.833   6.228  16.913 -0.2849  1.3955 -0.3979
  688TIP3    H223556   6.756   6.115  16.847  1.1092 -0.1215  0.5345
  689TIP3   OH223557   3.036   3.777   5.491 -0.6629 -0.0952  0.0943
  689TIP3    H123558   3.053   3.800   5.400 -0.2859  1.7499  0.6227
  689TIP3    H223559   3.118   3.740   5.523 -1.1480 -1.8704 -0.6299
  690TIP3   OH223560   5.822   2.915   5.786 -0.5248 -0.3949  0.6657
  690TIP3    H123561   5.908   2.932   5.825 -0.5761 -0.8391  0.9859
  690TIP3    H223562   5.789   3.002   5.761  0.3757 -0.3090 -0.2451
  691TIP3   OH223563   5.185   1.577   1.425  0.0200  0.1894  0.0361
  691TIP3    H123564   5.207   1.628   1.347 -1.6900  2.0276  0.7190
  691TIP3    H223565   5.223   1.491   1.408 -0.3848  0.5141 -2.8664
  692TIP3   OH223566   4.532   5.015   3.864 -0.6276 -0.7082 -0.4145
  692TIP3    H123567   4.479   4.984   3.790  1.0610  0.6287 -2.2299
  692TIP3    H223568   4.512   5.109   3.871  1.8164 -0.0678 -1.4472
  693TIP3   OH223569   5.885   2.747  11.551  0.3330  0.0439 -0.2790
  693TIP3    H123570   5.848   2.720  11.467 -0.4353  0.2429 -0.0109
  693TIP3    H223571   5.867   2.841  11.556 -2.3001 -0.4928  1.4170
  694TIP3   OH223572   4.161   1.749  10.767 -0.0193 -0.1257 -0.4141
  694TIP3    H123573   4.075   1.711  10.783  0.0871 -0.0440  0.3870
  694TIP3    H223574   4.165   1.825  10.825  0.7631 -0.3903 -0.1122
  695TIP3   OH223575   5.579   6.259   5.927  0.2417 -0.1269 -0.3389
  695TIP3    H123576   5.547   6.328   5.985  2.0681 -1.5960  2.5157
  695TIP3    H223577   5.668   6.286   5.905  0.6262 -1.0871  0.0312
  696TIP3   OH223578   2.470   4.672  13.113 -0.2260  0.0628 -0.5222
  696TIP3    H123579   2.504   4.688  13.201 -2.0000 -1.6411  0.5171
  696TIP3    H223580   2.409   4.744  13.096 -0.2940  0.0912 -0.1449
  697TIP3   OH223581   4.292   6.447  13.895 -0.7332 -0.4044  0.3076
  697TIP3    H123582   4.251   6.531  13.876 -1.4799 -0.7449  0.4167
  697TIP3    H223583   4.300   6.445  13.990 -0.0989 -0.1719  0.2637
  698TIP3   OH223584   1.186   2.579  16.189 -0.1750 -0.1138 -0.3087
  698TIP3    H123585   1.116   2.595  16.126 -1.1067  0.1509  0.7680
  698TIP3    H223586   1.160   2.499  16.234  0.3937 -0.2048 -0.1391
  699TIP3   OH223587   1.741   3.499   4.058 -0.3708 -0.1953  0.0530
  699TIP3    H123588   1.665   3.483   4.002 -2.0224  1.1062  1.8595
  699TIP3    H223589   1.714   3.466   4.144  1.8666 -1.5399  0.2749
  700TIP3   OH223590   4.843   5.670  11.931  0.1390  0.0279 -0.2709
  700TIP3    H123591   4.903   5.709  11.868  0.4517 -0.5519 -0.3398
  700TIP3    H223592   4.898   5.612  11.983 -0.3381 -0.4182 -0.2568
  701TIP3   OH223593   5.466   0.639  14.875  0.1011 -0.4325 -0.6368
  701TIP3    H123594   5.395   0.630  14.939 -0.5201 -0.9814 -1.3839
  701TIP3    H223595   5.499   0.550  14.864  1.8685  0.0271  0.7689
  702TIP3   OH223596   1.869   3.752   3.324  0.0049  0.1086  0.5152
  702TIP3    H123597   1.916   3.834   3.341  0.0565 -0.0197  0.9972
  702TIP3    H223598   1.779   3.779   3.306  0.0689  0.2862  0.4563
  703TIP3   OH223599   6.791   4.423   4.922 -0.4069 -0.6529 -0.1083
  703TIP3    H123600   6.808   4.510   4.884 -0.0280 -0.8163 -0.3266
  703TIP3    H223601   6.803   4.435   5.016 -1.0907 -0.3015 -0.0636
  704TIP3   OH223602   5.307   2.786  15.923 -0.1823 -0.1455  0.3926
  704TIP3    H123603   5.272   2.773  16.011  1.2564 -1.1990  0.8376
  704TIP3    H223604   5.234   2.766  15.864 -1.0114  0.0857  1.3289
  705TIP3   OH223605   3.513   4.735   6.185 -0.1661 -0.9583 -0.0550
  705TIP3    H123606   3.585   4.682   6.218  0.8919 -1.3389 -2.8112
  705TIP3    H223607   3.538   4.825   6.206 -0.6271 -1.3424  2.1712
  706TIP3   OH223608   4.008   4.989   4.640  0.0845 -0.2947 -0.4162
  706TIP3    H123609   4.095   4.957   4.662  0.8949  2.4247  0.5451
  706TIP3    H223610   4.010   5.001   4.545  1.5746  1.9519 -0.1327
  707TIP3   OH223611   2.583   3.565  11.541  0.6547  0.1098 -0.6621
  707TIP3    H123612   2.559   3.511  11.465 -2.4348  1.6388 -0.8551
  707TIP3    H223613   2.609   3.649  11.503 -0.2476  0.6607 -0.0561
  708TIP3   OH223614   1.454   0.680   1.480  0.3658 -0.2495 -0.2069
  708TIP3    H123615   1.545   0.708   1.470  0.7104 -1.0312  0.6237
  708TIP3    H223616   1.439   0.680   1.575  0.3141 -2.5591 -0.1641
  709TIP3   OH223617   5.464   0.899   6.584  0.0821  0.3535 -0.3767
  709TIP3    H123618   5.384   0.946   6.605 -0.2374 -0.3678  0.0302
  709TIP3    H223619   5.522   0.965   6.547 -0.5152  0.9774 -0.1932
  710TIP3   OH223620   4.355   0.967   4.669  0.0334  0.0398 -0.2635
  710TIP3    H123621   4.264   0.952   4.645 -0.8462  1.1202  2.1881
  710TIP3    H223622   4.375   0.897   4.731  0.5772  0.3185 -0.1217
  711TIP3   OH223623   5.211   1.588   6.073  0.1939 -0.0240 -0.7571
  711TIP3    H123624   5.116   1.597   6.067  0.0124 -1.3084  0.2388
  711TIP3    H223625   5.244   1.650   6.008 -1.3744 -1.1199 -2.6668
  712TIP3   OH223626   0.410   1.872  13.065 -0.7661 -0.5797  0.1758
  712TIP3    H123627   0.495   1.862  13.023 -0.0190  2.2703  0.9063
  712TIP3    H223628   0.349   1.891  12.993 -0.1258  0.8217 -0.0159
  713TIP3   OH223629   3.041   2.250   0.510  0.3834 -0.3775  0.0179
  713TIP3    H123630   3.101   2.296   0.452 -0.1476  0.8081  0.4037
  713TIP3    H223631   3.079   2.263   0.598  0.5925 -1.2470  0.0672
  714TIP3   OH223632   5.413   1.902  10.818  0.6796 -0.2110 -0.2930
  714TIP3    H123633   5.370   1.958  10.882  1.4483  0.2917 -0.2013
  714TIP3    H223634   5.499   1.943  10.804  0.0684  0.4072 -2.5564
  715TIP3   OH223635   6.135   4.123   1.961 -0.0982 -0.0338 -0.4868
  715TIP3    H123636   6.188   4.190   1.918 -2.0434  2.3463  0.6419
  715TIP3    H223637   6.191   4.086   2.029  0.8960  0.7133 -0.9046
  716TIP3   OH223638   3.996   6.233   3.794 -0.1435 -0.6104 -0.0165
  716TIP3    H123639   3.985   6.328   3.805  0.9158 -0.4448 -0.3748
  716TIP3    H223640   3.968   6.216   3.704 -0.7213 -0.6995  0.1793
  717TIP3   OH223641   4.480   3.988  17.213  0.2407 -0.1129  0.1889
  717TIP3    H123642   4.510   3.921  17.275  0.8590 -0.1336 -0.1249
  717TIP3    H223643   4.510   4.071  17.251 -0.4148 -0.0276  0.5127
  718TIP3   OH223644   5.123   6.547  15.387  0.0762 -0.0096  0.1772
  718TIP3    H123645   5.031   6.548  15.410  0.3004 -0.7481  1.1277
  718TIP3    H223646   5.125   6.571  15.294 -1.4623 -4.6628 -1.1978
  719TIP3   OH223647   6.731   2.022   3.984  0.0199 -0.1353 -0.4974
  719TIP3    H123648   6.686   1.946   4.019  0.0482  0.2761  0.4466
  719TIP3    H223649   6.820   2.015   4.019  0.1712  0.0513 -0.8388
  720TIP3   OH223650   3.916   6.547  13.822 -0.1447 -0.0695 -0.0002
  720TIP3    H123651   3.980   6.560  13.753 -0.1525 -0.8462 -0.1641
  720TIP3    H223652   3.855   6.482  13.786 -0.8630  0.4546  0.2565
  721TIP3   OH223653   6.557   4.991   6.556  0.1556 -0.1441  0.4929
  721TIP3    H123654   6.601   5.071   6.526 -1.4723 -0.0041 -1.6689
  721TIP3    H223655   6.597   4.972   6.641  2.1514  1.7018  0.0157
  722TIP3   OH223656   2.724   4.260   1.824  0.0595 -0.0780  0.1187
  722TIP3    H123657   2.724   4.177   1.776  0.3743  0.2322 -0.4205
  722TIP3    H223658   2.710   4.326   1.757  0.3502  0.3481  0.4778
  723TIP3   OH223659   6.334   2.440  13.349  0.1406 -0.2794 -0.3010
  723TIP3    H123660   6.243   2.464  13.365 -0.1427 -1.1756 -0.5506
  723TIP3    H223661   6.355   2.482  13.265 -0.2221 -0.5476 -0.5285
  724TIP3   OH223662   3.658   2.587  14.403 -0.0061  0.1468  0.0273
  724TIP3    H123663   3.669   2.590  14.308 -1.7142  1.1879 -0.1584
  724TIP3    H223664   3.675   2.677  14.431  2.9178 -0.6679  1.0121
  725TIP3   OH223665   3.439   3.435  11.170  0.2728 -0.7023 -0.3385
  725TIP3    H123666   3.513   3.417  11.228  0.4140  0.4425 -0.1512
  725TIP3    H223667   3.384   3.358  11.177  0.5717 -0.8088  0.8889
  726TIP3   OH223668   5.186   0.503  12.312 -0.0315 -0.8935 -0.3969
  726TIP3    H123669   5.237   0.566  12.261  0.1009 -0.3202  0.4386
  726TIP3    H223670   5.099   0.541  12.318  0.6235  0.2934  1.9922
  727TIP3   OH223671   2.402   1.860  12.870 -0.8762 -0.1169  0.4925
  727TIP3    H123672   2.399   1.931  12.933 -1.8169 -0.3704  0.7389
  727TIP3    H223673   2.340   1.884  12.802  1.4750  1.0418 -1.3159
  728TIP3   OH223674   2.435   1.087   5.587  0.7397 -0.2007  0.7957
  728TIP3    H123675   2.410   1.122   5.501  2.1061  1.4035  1.0357
  728TIP3    H223676   2.356   1.043   5.618 -0.2566  0.5459 -0.6027
  729TIP3   OH223677   4.414   3.784  13.042  0.1791  0.2470  0.2043
  729TIP3    H123678   4.446   3.863  12.999  2.7399 -1.8133 -1.8716
  729TIP3    H223679   4.320   3.784  13.026  0.3651  2.1683 -0.9825
  730TIP3   OH223680   3.835   2.207  11.763  0.3161 -0.6919 -0.2016
  730TIP3    H123681   3.864   2.261  11.837  0.6072  0.0566 -0.8647
  730TIP3    H223682   3.744   2.235  11.747 -0.7938 -2.9332  1.7804
  731TIP3   OH223683   5.466   2.862  11.193  0.0033 -0.1161 -0.7963
  731TIP3    H123684   5.468   2.832  11.284  1.2975 -0.9639 -1.0838
  731TIP3    H223685   5.554   2.845  11.161 -0.7873 -0.9574 -2.5701
  732TIP3   OH223686   5.072   2.609   1.954  0.2346  0.2827 -0.3153
  732TIP3    H123687   5.160   2.587   1.922  0.1642  2.5273 -2.2268
  732TIP3    H223688   5.013   2.558   1.900  0.2805  0.9546 -1.0173
  733TIP3   OH223689   2.045   5.909  16.757 -0.0376  0.1738  0.2563
  733TIP3    H123690   2.128   5.872  16.786 -0.5197  0.5441  2.1653
  733TIP3    H223691   2.062   6.003  16.747  0.1491  0.0351 -0.7522
  734TIP3   OH223692   0.282   3.804  16.611 -0.1532  0.0637  0.1848
  734TIP3    H123693   0.284   3.712  16.635 -0.6737 -0.3872 -1.3981
  734TIP3    H223694   0.344   3.846  16.670  1.1270 -1.5141 -0.0096
  735TIP3   OH223695   1.436   0.475   0.766  0.3593  0.3086  0.0537
  735TIP3    H123696   1.518   0.498   0.724 -0.5131 -0.3904 -2.0968
  735TIP3    H223697   1.370   0.527   0.721 -0.5641 -0.2952  0.6870
  736TIP3   OH223698   1.536   5.306  11.703  0.1847 -0.2359  0.1431
  736TIP3    H123699   1.553   5.354  11.623 -1.5586 -1.4093 -0.9549
  736TIP3    H223700   1.445   5.327  11.726  0.6486  0.0617  1.7953
  737TIP3   OH223701   6.654   2.616   2.890 -0.2594  0.6562  0.3657
  737TIP3    H123702   6.714   2.578   2.826 -2.6946 -0.0027 -1.6228
  737TIP3    H223703   6.624   2.697   2.848 -1.4756  0.4857  0.8948
  738TIP3   OH223704   5.762   5.764  16.132  0.2803 -0.3499 -0.4759
  738TIP3    H123705   5.793   5.683  16.090 -1.1793 -0.4512 -1.3883
  738TIP3    H223706   5.702   5.802  16.068 -0.1684  0.7042  0.5711
  739TIP3   OH223707   3.359   0.530   4.617  0.3500  0.0064 -0.0503
  739TIP3    H123708   3.309   0.470   4.674 -1.0318 -0.2381 -1.4948
  739TIP3    H223709   3.312   0.529   4.534  2.1478  0.6629 -1.0913
  740TIP3   OH223710   1.701   1.813   4.250  0.0620 -0.3722 -0.4751
  740TIP3    H123711   1.768   1.780   4.311  1.0282  0.2512 -1.1877
  740TIP3    H223712   1.745   1.816   4.165 -0.7911  0.3134 -0.9030
  741TIP3   OH223713   0.573   1.332  13.344 -0.0991  0.5842 -0.5184
  741TIP3    H123714   0.612   1.251  13.377  0.5878  0.2407 -2.1564
  741TIP3    H223715   0.490   1.304  13.306 -1.0220  1.0232  1.1339
  742TIP3   OH223716   1.472   3.574   5.406  0.1368 -0.4989  0.5695
  742TIP3    H123717   1.499   3.598   5.317 -4.5252  1.0813 -0.6055
  742TIP3    H223718   1.466   3.478   5.404  0.7034 -0.5203 -0.6344
  743TIP3   OH223719   2.235   0.120   0.755 -0.1171 -0.1783  0.3433
  743TIP3    H123720   2.281   0.142   0.836 -1.2242 -0.5138  1.0757
  743TIP3    H223721   2.293   0.057   0.712  0.5667  0.1354  0.7803
  744TIP3   OH223722   2.042   1.070   4.658  0.1660 -0.3954  0.2999
  744TIP3    H123723   2.104   1.010   4.617  2.9871  1.1759  2.1412
  744TIP3    H223724   2.079   1.088   4.745 -2.3755  1.3447  1.0867
  745TIP3   OH223725   3.554   0.654  13.656 -0.0030  0.2440  0.0143
  745TIP3    H123726   3.476   0.647  13.711  0.4936  0.7508  0.7929
  745TIP3    H223727   3.623   0.612  13.707  0.3729  0.3558 -0.4028
  746TIP3   OH223728   2.540   4.634   5.929  0.4369 -0.4704 -0.0526
  746TIP3    H123729   2.559   4.721   5.964  1.3184 -1.0932  1.0858
  746TIP3    H223730   2.445   4.625   5.938  0.1756  0.8488 -1.3434
  747TIP3   OH223731   0.355   6.757   1.539 -0.3211 -0.3174  0.4672
  747TIP3    H123732   0.267   6.743   1.504 -0.1048  0.2492 -0.3301
  747TIP3    H223733   0.383   6.840   1.500 -0.0858  0.3496  2.0361
  748TIP3   OH223734   5.575   1.671  12.145  0.3704  0.6011  0.0044
  748TIP3    H123735   5.600   1.651  12.236  0.7613  1.5808  0.1157
  748TIP3    H223736   5.655   1.704  12.105  0.1760  0.2525 -0.6834
  749TIP3   OH223737   0.763   4.168  11.978 -0.1262 -0.7209 -0.1531
  749TIP3    H123738   0.754   4.221  11.898 -2.0445  1.0619  1.2040
  749TIP3    H223739   0.677   4.172  12.019  1.2158 -0.5407  2.6987
  750TIP3   OH223740   5.931   1.027   0.371 -0.0492 -0.8125  0.0126
  750TIP3    H123741   5.872   1.020   0.446  0.0731  1.7943  0.3809
  750TIP3    H223742   5.920   1.116   0.339  2.6134 -0.7207 -0.8099
  751TIP3   OH223743   2.082   0.066  12.081 -0.1249 -0.5764  0.0682
  751TIP3    H123744   2.045   0.002  12.142 -1.4444  1.6613  1.6868
  751TIP3    H223745   2.058   0.151  12.118  0.7267  0.8614 -2.5628
  752TIP3   OH223746   0.039   0.626   0.003  0.1994  0.2268  0.2277
  752TIP3    H123747  -0.021   0.644   0.075  1.2714 -0.2372  1.2638
  752TIP3    H223748   0.040   0.530  -0.004  0.6689  0.2372  0.1055
  753TIP3   OH223749   1.063   4.827  14.571  0.5667  0.0990  0.8676
  753TIP3    H123750   1.069   4.802  14.663 -0.6496 -2.7876  0.1963
  753TIP3    H223751   1.129   4.773  14.528  1.4300  1.7520  0.0687
  754TIP3   OH223752   5.030   5.415   1.574 -0.0982 -0.4052  0.0674
  754TIP3    H123753   5.083   5.442   1.649  0.3466 -1.5664  0.1848
  754TIP3    H223754   5.077   5.340   1.537  0.4434  1.0209 -2.2310
  755TIP3   OH223755   2.806   2.971  13.154 -0.8743  0.0994  0.0779
  755TIP3    H123756   2.800   2.968  13.249  1.2313  0.7092  0.2664
  755TIP3    H223757   2.888   2.927  13.134  0.1651  2.5295 -1.2222
  756TIP3   OH223758   1.989   0.937  12.025  0.3782  1.0643 -0.0059
  756TIP3    H123759   1.939   0.864  12.061  0.3571  1.1040  0.0444
  756TIP3    H223760   1.990   1.003  12.094  1.9365  0.3943  0.6372
  757TIP3   OH223761   3.388   2.488  15.508 -0.2847 -0.4260  0.6103
  757TIP3    H123762   3.454   2.530  15.563  0.2740 -0.1982 -0.2253
  757TIP3    H223763   3.436   2.458  15.431 -1.1295 -0.3808  0.0537
  758TIP3   OH223764   1.011   0.317   5.707  0.3712  0.0195 -0.1565
  758TIP3    H123765   1.068   0.265   5.650 -0.8127  0.9700 -2.2388
  758TIP3    H223766   0.959   0.369   5.647 -1.6129  0.3107  1.7927
  759TIP3   OH223767   4.979   0.906  12.930 -0.1071 -0.4123  0.0382
  759TIP3    H123768   5.069   0.884  12.909  0.3840 -0.0824  1.7603
  759TIP3    H223769   4.934   0.907  12.845  1.3631 -1.1540 -0.7633
  760TIP3   OH223770   2.713   1.323  12.206 -0.2884 -0.0351 -0.0202
  760TIP3    H123771   2.628   1.310  12.164  0.6074 -0.3243 -1.7998
  760TIP3    H223772   2.762   1.244  12.186  0.8907  0.7350 -0.2235
  761TIP3   OH223773   6.394   4.682   0.322 -0.2310  0.7962 -0.4306
  761TIP3    H123774   6.413   4.639   0.406  0.5703 -0.2385 -1.1313
  761TIP3    H223775   6.479   4.685   0.278 -0.7317  0.9821 -1.3749
  762TIP3   OH223776   4.192   6.594  12.446  0.2468  0.1808 -0.1402
  762TIP3    H123777   4.141   6.667  12.410 -2.0267 -1.2725  0.0591
  762TIP3    H223778   4.250   6.568  12.374  0.4663  1.6126 -0.5002
  763TIP3   OH223779   3.706   0.415  12.471 -0.2404  0.1257 -0.2213
  763TIP3    H123780   3.615   0.425  12.499 -0.5011 -3.4844  0.4602
  763TIP3    H223781   3.753   0.396  12.552  0.7520 -0.1078 -0.8565
  764TIP3   OH223782   4.095   5.450  14.082  0.0354 -0.4690  0.4344
  764TIP3    H123783   4.056   5.365  14.100 -2.5299  0.5312 -0.1585
  764TIP3    H223784   4.163   5.432  14.017  0.3745 -2.2285  1.2538
  765TIP3   OH223785   2.436   0.490  12.787 -0.1996  0.2421 -0.2473
  765TIP3    H123786   2.387   0.480  12.706 -0.8263  2.5022 -0.1866
  765TIP3    H223787   2.444   0.402  12.822  0.5925 -0.8448 -3.0538
  766TIP3   OH223788   0.282   1.207  16.483 -0.2528  0.8166  0.6275
  766TIP3    H123789   0.217   1.274  16.507 -2.5276 -0.2568 -2.1876
  766TIP3    H223790   0.365   1.242  16.514 -1.9383  3.0471  2.8690
  767TIP3   OH223791   6.665   5.338  16.208  0.8239 -0.5454 -0.0403
  767TIP3    H123792   6.613   5.262  16.235  0.9321 -0.5519  0.1541
  767TIP3    H223793   6.723   5.354  16.282 -0.3974  0.8121  0.6583
  768TIP3   OH223794   2.465   2.670   2.870  0.8391  0.0357 -0.0273
  768TIP3    H123795   2.393   2.663   2.808 -1.5092  1.7331  2.4273
  768TIP3    H223796   2.540   2.697   2.817 -1.0520  1.1975 -2.1596
  769TIP3   OH223797   1.363   5.888   2.180  0.2894 -0.3122 -0.2399
  769TIP3    H123798   1.287   5.893   2.121  0.3742  0.8802 -0.2622
  769TIP3    H223799   1.436   5.921   2.128  0.3559  0.7968  0.5397
  770TIP3   OH223800   0.185   0.925  16.817  0.1180 -0.0271 -0.3615
  770TIP3    H123801   0.211   0.869  16.744 -0.2351 -1.7701  0.8126
  770TIP3    H223802   0.253   0.992  16.822  0.6114 -0.4151 -1.7257
  771TIP3   OH223803   3.258   2.713   5.573 -0.3187  0.3936  0.3557
  771TIP3    H123804   3.232   2.650   5.640 -1.0197  0.7700  0.4502
  771TIP3    H223805   3.202   2.789   5.590  0.7015  1.1429  0.4106
  772TIP3   OH223806   0.936   3.805   4.208  0.2240  0.2918  0.3391
  772TIP3    H123807   0.857   3.767   4.247  0.8135  0.1366  1.4120
  772TIP3    H223808   0.903   3.866   4.142 -0.7854 -0.1225  0.4524
  773TIP3   OH223809   1.711   5.845  15.898  0.5782  0.0020 -0.2627
  773TIP3    H123810   1.750   5.787  15.963  2.8473 -0.3032 -1.8264
  773TIP3    H223811   1.633   5.798  15.868  0.1499 -0.3742  1.3945
  774TIP3   OH223812   5.655   6.304   3.053 -0.3073 -0.0965 -0.0164
  774TIP3    H123813   5.577   6.324   3.002  0.7459  0.7947 -1.3373
  774TIP3    H223814   5.633   6.331   3.142 -1.7277 -0.4676 -0.2444
  775TIP3   OH223815   2.386   2.564   5.820 -0.3479 -0.1362  0.3176
  775TIP3    H123816   2.390   2.622   5.744 -1.5076 -1.6228 -0.9111
  775TIP3    H223817   2.478   2.544   5.840 -0.0932 -1.0570 -1.7195
  776TIP3   OH223818   2.956   4.734   4.569 -0.1342  0.0172 -0.2165
  776TIP3    H123819   2.956   4.698   4.657 -1.8143 -1.6658 -0.8953
  776TIP3    H223820   2.886   4.798   4.569 -1.0126 -0.9385 -0.7074
  777TIP3   OH223821   5.461   6.306   4.883 -0.4019 -1.3107  0.2100
  777TIP3    H123822   5.518   6.361   4.937 -1.9110 -1.3817  1.9076
  777TIP3    H223823   5.518   6.236   4.851  1.4727  0.9841 -1.7025
  778TIP3   OH223824   6.101   3.869  13.525  0.3243 -0.4421 -0.0331
  778TIP3    H123825   6.117   3.804  13.593  0.5141 -0.8115 -0.4304
  778TIP3    H223826   6.186   3.911  13.513 -0.2125  1.1849  1.5545
  779TIP3   OH223827   2.191   3.623  15.197 -0.3377 -0.0361  0.2947
  779TIP3    H123828   2.243   3.649  15.273 -0.1924 -1.2305  0.6072
  779TIP3    H223829   2.114   3.579  15.234 -2.0271  2.4823 -0.1326
  780TIP3   OH223830   2.590   0.820   2.819  0.1701 -0.1830  0.3783
  780TIP3    H123831   2.610   0.908   2.789  2.5694 -0.1210  2.0158
  780TIP3    H223832   2.672   0.787   2.856 -0.9156 -2.7415  0.6783
  781TIP3   OH223833   2.922   6.397   5.415  0.0094 -0.0853 -0.3353
  781TIP3    H123834   2.968   6.313   5.420  0.6412  0.3177  0.5930
  781TIP3    H223835   2.991   6.461   5.396  0.0238  0.6942  2.2629
  782TIP3   OH223836   1.075   2.907  14.974  0.6980 -0.3920 -0.0059
  782TIP3    H123837   1.134   2.982  14.980  0.2669  0.1994 -2.3646
  782TIP3    H223838   0.988   2.946  14.965  0.3295 -1.1948  0.0401
  783TIP3   OH223839   0.238   5.348   5.314 -0.1625 -0.6595  0.3347
  783TIP3    H123840   0.145   5.326   5.315  0.1089 -1.8045  1.2102
  783TIP3    H223841   0.277   5.291   5.379  1.1092  0.0727  0.2327
  784TIP3   OH223842   0.352   1.765  12.438  0.1284  0.5538  0.3027
  784TIP3    H123843   0.328   1.857  12.435  0.3599  0.6307  0.8417
  784TIP3    H223844   0.357   1.744  12.531  1.7200  0.4352  0.2001
  785TIP3   OH223845   6.011   0.304   0.224  0.4013  0.4186  0.4432
  785TIP3    H123846   6.019   0.276   0.315 -1.4160  0.2808  0.5725
  785TIP3    H223847   6.099   0.336   0.201  1.9607 -3.2320  0.9747
  786TIP3   OH223848   3.009   0.702  10.488 -0.1738  0.2762 -0.2182
  786TIP3    H123849   3.038   0.792  10.500  0.0002  0.0712  0.9782
  786TIP3    H223850   2.914   0.704  10.506  0.1559 -0.1039  1.7809
  787TIP3   OH223851   6.090   1.251   1.352 -0.2225 -0.0221  0.1953
  787TIP3    H123852   6.009   1.206   1.332 -0.1902  0.4598 -1.0603
  787TIP3    H223853   6.098   1.319   1.284  1.7509 -0.7525 -0.3515
  788TIP3   OH223854   1.491   0.440   3.039 -0.2130  0.6398 -0.0356
  788TIP3    H123855   1.480   0.494   2.961 -2.2027 -1.7264 -1.4900
  788TIP3    H223856   1.541   0.364   3.008 -2.9777 -1.4397  0.3777
  789TIP3   OH223857   6.296   5.679   1.878  0.2267  0.3372  0.4031
  789TIP3    H123858   6.337   5.709   1.797 -2.6216  0.7630 -0.9455
  789TIP3    H223859   6.308   5.584   1.877  0.6626  0.3974 -0.2825
  790TIP3   OH223860   5.208   0.397  16.893  0.5161  0.2032  0.0948
  790TIP3    H123861   5.203   0.451  16.971 -1.0626  0.6471 -0.2970
  790TIP3    H223862   5.235   0.457  16.824  2.6364 -0.3391  0.4224
  791TIP3   OH223863   5.421   3.763  13.437 -0.5276  0.2063 -0.2252
  791TIP3    H123864   5.487   3.805  13.382 -0.4351 -0.2995 -0.5013
  791TIP3    H223865   5.460   3.681  13.464  0.5624  1.7233  2.9914
  792TIP3   OH223866   1.211   2.399   2.531  0.4437  0.7540  0.5832
  792TIP3    H123867   1.237   2.428   2.618  2.1037 -1.1965  0.7610
  792TIP3    H223868   1.175   2.478   2.490  0.0973  1.8130  2.8249
  793TIP3   OH223869   6.040   5.954  14.834  0.4065  0.2641  0.6133
  793TIP3    H123870   6.098   5.942  14.910  1.0778 -0.3165  0.0124
  793TIP3    H223871   6.089   6.011  14.775  1.9320 -3.1608 -1.5226
  794TIP3   OH223872   5.142   3.386   3.092  0.6176 -0.4505 -0.0908
  794TIP3    H123873   5.089   3.350   3.164 -0.8796 -1.5184 -1.6720
  794TIP3    H223874   5.077   3.424   3.032  1.8872  0.9475 -0.6042
  795TIP3   OH223875   1.895   3.576  12.172 -0.0387 -0.0563 -0.3866
  795TIP3    H123876   1.984   3.601  12.150  0.3413  0.1554  1.2891
  795TIP3    H223877   1.840   3.632  12.117  0.8470  0.2086 -1.0213
  796TIP3   OH223878   4.925   0.397   2.677  0.1504 -0.1854  0.4860
  796TIP3    H123879   4.999   0.337   2.674 -1.1936 -1.8582 -0.1374
  796TIP3    H223880   4.939   0.448   2.757  2.5387  0.3113 -0.2095
  797TIP3   OH223881   0.661   5.160  10.929 -0.1816  0.4255 -0.7500
  797TIP3    H123882   0.751   5.188  10.918 -0.1949  0.2054 -1.4940
  797TIP3    H223883   0.648   5.155  11.023  1.1117 -1.2117 -0.6309
  798TIP3   OH223884   3.669   3.411  17.083  0.1634  0.7860  0.8326
  798TIP3    H123885   3.739   3.406  17.018 -0.1236  0.0986  0.5700
  798TIP3    H223886   3.632   3.499  17.073  0.7684  1.0339  0.7489
  799TIP3   OH223887   4.645   5.521  16.941 -0.0651 -0.9516  0.7305
  799TIP3    H123888   4.739   5.538  16.941 -0.0297 -1.1158  0.0294
  799TIP3    H223889   4.616   5.545  16.853 -0.2108 -3.4233  0.0737
  800TIP3   OH223890   0.257   0.617  13.391  0.2321  0.1295  0.5856
  800TIP3    H123891   0.324   0.683  13.371 -2.2898  2.6440  0.0260
  800TIP3    H223892   0.192   0.664  13.443 -1.1440 -2.2107  1.0364
  801TIP3   OH223893   3.372   3.052  12.324 -0.3454 -0.6238  0.1461
  801TIP3    H123894   3.293   3.062  12.270 -0.0605 -0.9828 -0.3319
  801TIP3    H223895   3.355   2.975  12.377  0.0315 -1.1918 -0.5527
  802TIP3   OH223896   0.097   6.514   3.493 -0.0198 -0.8670  0.3237
  802TIP3    H123897   0.143   6.483   3.571  0.6323 -0.6073  0.0476
  802TIP3    H223898   0.044   6.587   3.524  0.6193 -0.4475  0.4280
  803TIP3   OH223899   4.063   4.727  14.150  0.4156  1.0388 -0.1475
  803TIP3    H123900   4.154   4.738  14.176 -0.0964  1.8755  1.3391
  803TIP3    H223901   4.022   4.811  14.173 -0.9832  0.2413  0.2709
  804TIP3   OH223902   5.142   4.937   1.140  0.3708 -0.1121  0.1415
  804TIP3    H123903   5.137   4.851   1.099  0.8905  0.2995 -0.7927
  804TIP3    H223904   5.075   4.935   1.209  0.4433 -1.2886  0.1845
  805TIP3   OH223905   1.311   3.630   3.482  0.5244 -0.2271 -0.1314
  805TIP3    H123906   1.404   3.649   3.488  0.3469  0.1027  1.9912
  805TIP3    H223907   1.287   3.601   3.570 -1.4062 -0.1265 -0.6046
  806TIP3   OH223908   0.251   6.004  15.102  0.0516  0.1272 -0.5801
  806TIP3    H123909   0.309   5.998  15.026 -0.1774  0.6293 -0.8019
  806TIP3    H223910   0.236   5.913  15.128 -1.5107 -0.1786 -2.4204
  807TIP3   OH223911   3.438   0.443  12.506  0.5286 -0.1201 -0.3233
  807TIP3    H123912   3.392   0.508  12.451  3.8239  1.2102 -1.6057
  807TIP3    H223913   3.396   0.360  12.483 -2.7146  1.2705  0.1647
  808TIP3   OH223914   2.015   5.011   3.328  0.3486 -0.7762  0.1649
  808TIP3    H123915   1.999   4.998   3.422 -1.6865 -1.1555 -0.2163
  808TIP3    H223916   2.066   5.092   3.325  1.7863 -1.5896  1.6882
  809TIP3   OH223917   3.572   2.312   5.635 -0.1567 -0.0283  0.4215
  809TIP3    H123918   3.493   2.364   5.646  0.5484  1.0034  0.6204
  809TIP3    H223919   3.558   2.235   5.690 -1.3998 -0.2908 -0.2464
  810TIP3   OH223920   2.047   6.286  10.925  0.1902  0.1624  0.2779
  810TIP3    H123921   2.127   6.338  10.912 -0.1151  0.8751  1.2233
  810TIP3    H223922   1.992   6.340  10.981 -0.3594 -0.9517  0.8246
  811TIP3   OH223923   2.302   0.508  14.965  0.0078  1.1276  0.0380
  811TIP3    H123924   2.390   0.476  14.945 -0.3338  0.9217 -1.1750
  811TIP3    H223925   2.259   0.434  15.007  0.5354  1.3586  1.0038
  812TIP3   OH223926   6.797   1.087   3.140  0.0767  0.2737 -0.6072
  812TIP3    H123927   6.748   1.091   3.058 -0.0159 -1.9616 -0.7098
  812TIP3    H223928   6.880   1.046   3.116  0.9192  1.5689  0.0555
  813TIP3   OH223929   2.184   1.259   0.842  0.3251 -0.0282 -0.3124
  813TIP3    H123930   2.218   1.263   0.753 -0.9446 -1.0868 -0.8631
  813TIP3    H223931   2.130   1.180   0.843  0.4550 -0.1133  1.4423
  814TIP3   OH223932   3.678   6.491   3.743 -0.0671 -0.3388  0.2113
  814TIP3    H123933   3.645   6.444   3.819  1.0619 -2.0286 -0.3234
  814TIP3    H223934   3.629   6.456   3.669 -0.0171  0.1502 -0.0593
  815TIP3   OH223935   5.239   0.776  15.568  0.0620 -0.2306 -0.4480
  815TIP3    H123936   5.278   0.811  15.648 -1.4866  0.0218  0.1975
  815TIP3    H223937   5.185   0.847  15.534 -0.8357 -0.9993 -0.6625
  816TIP3   OH223938   5.660   3.777  12.379  0.1353  0.0150 -0.0790
  816TIP3    H123939   5.600   3.771  12.453  0.0238 -0.8010 -0.2312
  816TIP3    H223940   5.654   3.691  12.336  0.6704  0.2644 -0.6646
  817TIP3   OH223941   2.601   1.606   2.775  0.1688 -0.0003 -0.3113
  817TIP3    H123942   2.637   1.548   2.842 -0.9675  0.7644  0.9792
  817TIP3    H223943   2.592   1.550   2.697  1.7311 -0.8303  0.0730
  818TIP3   OH223944   5.476   5.302   3.618  0.6318 -0.1227 -0.0141
  818TIP3    H123945   5.467   5.373   3.681  1.4492 -1.1357  1.2730
  818TIP3    H223946   5.395   5.306   3.566 -0.2115  0.5208  1.3127
  819TIP3   OH223947   3.966   4.947  12.069 -0.6794  0.1075  0.5981
  819TIP3    H123948   3.887   4.996  12.091 -0.1416  1.4526 -0.4305
  819TIP3    H223949   4.038   5.001  12.103 -0.1609 -0.7664  0.9049
  820TIP3   OH223950   1.932   0.660  16.097  0.0520  0.7251  0.4016
  820TIP3    H123951   1.869   0.597  16.132  0.8714 -0.0288  0.5656
  820TIP3    H223952   1.891   0.745  16.108 -0.3280  0.3697  1.8462
  821TIP3   OH223953   6.056   3.493   0.499  0.2775  0.4311 -0.3547
  821TIP3    H123954   6.014   3.579   0.500  1.4268  1.0014 -1.0511
  821TIP3    H223955   6.026   3.453   0.418  1.1079  0.8584 -0.8769
  822TIP3   OH223956   6.722   4.042   4.247 -0.6361  0.2170 -0.0550
  822TIP3    H123957   6.723   3.995   4.330 -1.3790 -0.4046 -0.3909
  822TIP3    H223958   6.662   3.992   4.192  3.0027 -1.7987 -2.3675
  823TIP3   OH223959   0.239   3.708  15.952 -0.0628  0.2039  0.4504
  823TIP3    H123960   0.202   3.772  16.013  1.9274  0.6909  1.1738
  823TIP3    H223961   0.244   3.627  16.002  0.8412  0.4069  0.6901
  824TIP3   OH223962   0.526   3.813   2.959  0.4125  0.2762 -0.4745
  824TIP3    H123963   0.443   3.851   2.930 -0.4394 -1.2629 -0.1110
  824TIP3    H223964   0.531   3.834   3.052 -0.5757 -1.3891 -0.0313
  825TIP3   OH223965   3.728   2.666  16.191 -0.3891  0.2123 -0.2293
  825TIP3    H123966   3.820   2.693  16.191 -0.8688  2.2517  3.8940
  825TIP3    H223967   3.683   2.739  16.147 -0.3186  0.4564  0.0999
  826TIP3   OH223968   6.295   0.037   3.650  0.2128  0.2386 -0.6250
  826TIP3    H123969   6.249  -0.004   3.577 -0.3780 -1.1392  0.5034
  826TIP3    H223970   6.261   0.127   3.652  0.0826  0.2205 -1.9179
  827TIP3   OH223971   2.645   1.778   0.225  0.0943  0.0801  0.9173
  827TIP3    H123972   2.678   1.785   0.315  1.8139  0.0395  0.3233
  827TIP3    H223973   2.609   1.864   0.206  2.7082  1.1565  0.5560
  828TIP3   OH223974   0.619   2.795  12.136 -0.0748  0.0471  0.4454
  828TIP3    H123975   0.652   2.885  12.141  0.7172 -0.0298 -2.4752
  828TIP3    H223976   0.688   2.742  12.176  1.0112  0.4190 -0.9019
  829TIP3   OH223977   4.037   3.557   1.457 -0.2230  0.0586  0.0736
  829TIP3    H123978   4.003   3.481   1.504  0.0608 -0.1455 -0.0498
  829TIP3    H223979   4.090   3.520   1.386  0.6774  0.3657  0.5638
  830TIP3   OH223980   1.525   4.337   5.916  0.2392  0.1671 -0.1683
  830TIP3    H123981   1.602   4.354   5.970  0.4410 -1.6620  0.1432
  830TIP3    H223982   1.470   4.280   5.970 -0.8017  0.5348 -0.8325
  831TIP3   OH223983   1.288   1.747   4.339  0.7964 -0.3142 -0.3099
  831TIP3    H123984   1.356   1.725   4.275  2.4664 -0.6244  1.5274
  831TIP3    H223985   1.230   1.670   4.340  1.1078 -0.5625 -0.9732
  832TIP3   OH223986   3.994   0.773  14.135  0.0379  0.0355 -0.2879
  832TIP3    H123987   4.024   0.687  14.166  0.4190  0.1586 -0.3086
  832TIP3    H223988   4.020   0.775  14.043  1.7635  0.9376  0.1902
  833TIP3   OH223989   1.739   3.481  16.850  0.1506 -0.0251  0.6949
  833TIP3    H123990   1.763   3.392  16.827 -0.2964 -0.3393  1.4233
  833TIP3    H223991   1.782   3.536  16.784 -0.0978 -0.8142 -0.1361
  834TIP3   OH223992   5.408   3.951  13.687  0.0518 -1.2053  0.5844
  834TIP3    H123993   5.395   3.954  13.593  1.8652  0.7706  0.3524
  834TIP3    H223994   5.338   4.005  13.724  1.6987  1.4358  0.0275
  835TIP3   OH223995   4.161   5.881  11.525 -0.3618  0.0785  0.2438
  835TIP3    H123996   4.169   5.836  11.440 -0.3829 -0.9792  0.7934
  835TIP3    H223997   4.121   5.965  11.503 -0.0812 -0.0601 -0.8415
  836TIP3   OH223998   0.279   4.404   5.816 -0.5246  0.4268 -0.6619
  836TIP3    H123999   0.216   4.374   5.882  1.3863 -1.9752  0.1504
  836TIP3    H224000   0.365   4.386   5.856  0.6677 -0.0591 -3.3529
  837TIP3   OH224001   3.674   0.024   2.917 -0.2194  0.5095  0.0224
  837TIP3    H124002   3.716   0.108   2.938 -0.2076  0.3953  0.4583
  837TIP3    H224003   3.665   0.025   2.822  1.3330  0.2745 -0.1380
  838TIP3   OH224004   2.247   3.255  16.244  0.1582 -0.5082 -0.2381
  838TIP3    H124005   2.179   3.317  16.218 -0.0304 -0.8302 -0.5125
  838TIP3    H224006   2.305   3.249  16.168  0.8031  0.1933  0.2048
  839TIP3   OH224007   3.442   6.758  11.277 -0.4566  0.3501 -0.0666
  839TIP3    H124008   3.532   6.726  11.277 -1.2240 -1.9784  1.0400
  839TIP3    H224009   3.392   6.686  11.240 -1.8976  1.5023 -0.3902
  840TIP3   OH224010   3.990   3.536   5.227 -0.3339 -0.0241  0.7061
  840TIP3    H124011   4.029   3.599   5.166 -1.2792 -0.0696  0.0488
  840TIP3    H224012   3.901   3.569   5.241 -0.8383 -1.2108  0.3528
  841TIP3   OH224013   0.098   2.949  14.323 -0.1234  0.5756 -0.2931
  841TIP3    H124014   0.004   2.967  14.321 -0.1088  0.9159  1.6123
  841TIP3    H224015   0.135   3.012  14.260 -0.8587  2.4710  1.1238
  842TIP3   OH224016   1.449   4.674   5.766 -0.4022  0.4852  0.9994
  842TIP3    H124017   1.394   4.596   5.778  0.2906 -0.0549  0.7471
  842TIP3    H224018   1.519   4.664   5.831 -1.2477  1.7590  2.1054
  843TIP3   OH224019   5.606   4.491  14.479 -0.1385 -0.1017  0.3195
  843TIP3    H124020   5.536   4.556  14.489 -1.1146 -0.8353 -1.4765
  843TIP3    H224021   5.685   4.543  14.465 -0.7099  0.7171  0.0722
  844TIP3   OH224022   0.968   0.061  15.641  0.4050 -0.2339  0.3792
  844TIP3    H124023   1.036   0.012  15.596  0.3606  0.9310 -1.0062
  844TIP3    H224024   0.972   0.031  15.732  2.0802 -0.9150  0.0902
  845TIP3   OH224025   5.966   4.460   0.602  0.0210 -0.0982  0.1113
  845TIP3    H124026   5.991   4.371   0.624 -1.4397 -0.3493  0.7781
  845TIP3    H224027   6.048   4.510   0.608  0.3091 -0.8353  2.6302
  846TIP3   OH224028   1.589   5.172  15.811 -0.0532  0.3988  0.2080
  846TIP3    H124029   1.554   5.083  15.817  1.1622 -0.0401  0.9175
  846TIP3    H224030   1.622   5.179  15.721 -0.7927  0.3858 -0.0704
  847TIP3   OH224031   5.434   4.604   0.532  0.4870  0.2287 -0.5885
  847TIP3    H124032   5.472   4.663   0.467  1.0844  0.0167 -0.4382
  847TIP3    H224033   5.402   4.530   0.481  0.0078  0.5497 -0.7476
  848TIP3   OH224034   5.218   5.985   1.849  0.3066  0.2784  1.0223
  848TIP3    H124035   5.280   5.990   1.922  1.2971 -1.3541  0.3319
  848TIP3    H224036   5.260   6.031   1.777  0.0516  0.4869  1.0064
  849TIP3   OH224037   2.260   5.935  13.358 -0.1051 -0.2799  0.5581
  849TIP3    H124038   2.230   5.947  13.268  3.4008  0.5672 -0.5757
  849TIP3    H224039   2.296   5.847  13.360  0.4193 -0.0591  0.9445
  850TIP3   OH224040   3.293   0.887   5.892  0.1990 -0.4799  0.2444
  850TIP3    H124041   3.218   0.944   5.877  1.8220  1.2561 -1.5297
  850TIP3    H224042   3.301   0.883   5.987 -0.9588  0.8697  0.4209
  851TIP3   OH224043   2.703   6.569  16.155 -0.0052  0.2313  0.2607
  851TIP3    H124044   2.684   6.572  16.062  0.1797 -0.0341  0.2149
  851TIP3    H224045   2.670   6.652  16.189 -1.4780 -0.3396  0.2287
  852TIP3   OH224046   5.253   1.244  16.693  0.4514 -0.2876 -0.4247
  852TIP3    H124047   5.196   1.307  16.648  1.1535  0.1132 -0.7727
  852TIP3    H224048   5.315   1.216  16.626  0.6021 -0.7938 -0.0762
  853TIP3   OH224049   3.578   4.309   1.608  0.3267 -0.1033  0.2310
  853TIP3    H124050   3.642   4.239   1.594  0.3551  0.0505 -0.4158
  853TIP3    H224051   3.512   4.296   1.540 -0.1003  0.0119  0.6128
  854TIP3   OH224052   6.007   2.024  16.630 -0.1776 -0.1960  0.2395
  854TIP3    H124053   6.065   1.957  16.594  0.1614  0.3536 -0.2393
  854TIP3    H224054   5.948   1.975  16.688  1.0092 -0.7133  1.0468
  855TIP3   OH224055   5.690   2.231   4.373 -0.4789 -0.0024 -0.3725
  855TIP3    H124056   5.637   2.152   4.362 -0.7710  0.3197 -1.3697
  855TIP3    H224057   5.635   2.289   4.426  0.7056 -1.3485  2.4488
  856TIP3   OH224058   5.794   2.528   2.360 -0.6316 -0.3534  0.1969
  856TIP3    H124059   5.873   2.474   2.365  1.0439  2.0965  1.4608
  856TIP3    H224060   5.723   2.466   2.341  1.1562 -2.9954  1.8052
  857TIP3   OH224061   5.477   1.036  13.061 -0.1851 -0.0383  0.4362
  857TIP3    H124062   5.467   0.942  13.045  0.9993 -0.0072 -0.5423
  857TIP3    H224063   5.524   1.068  12.984 -2.6401  1.7798 -0.3800
  858TIP3   OH224064   6.709   6.348   4.388 -0.4326 -0.1613 -0.6185
  858TIP3    H124065   6.739   6.439   4.377 -0.8841 -0.0231 -0.7022
  858TIP3    H224066   6.685   6.320   4.300 -2.3441  0.3523 -0.2730
  859TIP3   OH224067   2.010   3.322   5.209  0.4519  0.0868 -0.2123
  859TIP3    H124068   2.044   3.368   5.132  0.6440 -0.2660 -0.3379
  859TIP3    H224069   2.088   3.299   5.259  0.2221  2.3638  1.2716
  860TIP3   OH224070   3.138   0.091   1.186 -0.0803  0.1605  0.4172
  860TIP3    H124071   3.143   0.126   1.275  1.9314 -0.0201  0.4002
  860TIP3    H224072   3.142   0.167   1.129 -0.3536  0.2052  0.4561
  861TIP3   OH224073   4.397   2.391  13.612 -0.5981 -0.0512  0.1087
  861TIP3    H124074   4.308   2.386  13.647 -0.5748  0.2984  0.2263
  861TIP3    H224075   4.442   2.316  13.650 -1.4318 -1.4741 -1.6609
  862TIP3   OH224076   5.715   2.656   5.690  0.1876  0.3427 -0.3161
  862TIP3    H124077   5.775   2.682   5.760 -0.4075 -0.3355  0.4547
  862TIP3    H224078   5.772   2.628   5.618  0.8096 -2.4242  1.1953
  863TIP3   OH224079   3.630   0.961  11.522 -0.1596 -0.0144  0.7280
  863TIP3    H124080   3.681   1.018  11.580 -2.7381  2.4739  0.6441
  863TIP3    H224081   3.552   0.939  11.572 -0.7546 -0.7698 -0.4988
  864TIP3   OH224082   1.379   0.928   4.095  0.3626  0.6807 -0.4427
  864TIP3    H124083   1.463   0.939   4.050  0.6645 -0.3540 -0.1386
  864TIP3    H224084   1.400   0.942   4.187  0.3713 -0.4657 -0.2721
  865TIP3   OH224085   6.057   4.259  12.886  0.4494  0.2243 -0.4457
  865TIP3    H124086   5.988   4.310  12.843  1.2835  1.0671 -0.7949
  865TIP3    H224087   6.068   4.299  12.972  0.0459 -0.3258 -0.1341
  866TIP3   OH224088   4.275   4.123   3.101 -0.2385  0.3708 -0.5088
  866TIP3    H124089   4.186   4.117   3.068 -0.9495  2.4770  0.9106
  866TIP3    H224090   4.311   4.202   3.059  0.4286  0.3988  0.1001
  867TIP3   OH224091   6.684   6.683  12.039  0.1414 -0.5197  0.6403
  867TIP3    H124092   6.736   6.762  12.027 -0.1839 -0.2304  1.1055
  867TIP3    H224093   6.671   6.677  12.134 -1.9650  0.2551  0.4382
  868TIP3   OH224094   3.769   1.845  12.516 -0.3234 -0.6603 -0.0415
  868TIP3    H124095   3.685   1.816  12.552 -1.2185  0.3856 -1.2381
  868TIP3    H224096   3.803   1.905  12.582 -0.8796 -0.4902  0.0972
  869TIP3   OH224097   2.987   2.491  11.774 -0.2135 -0.1466 -0.3290
  869TIP3    H124098   2.966   2.484  11.681 -1.8686 -0.5997  0.0720
  869TIP3    H224099   2.902   2.496  11.818  0.5544  0.7315  1.1159
  870TIP3   OH224100   0.803   0.084  15.936 -0.2144 -0.3022  0.8567
  870TIP3    H124101   0.777   0.169  15.972  0.7476  0.6181 -0.5812
  870TIP3    H224102   0.720   0.036  15.926 -0.7062  0.2526  2.1889
  871TIP3   OH224103   4.367   1.728  11.550  0.0611 -0.3591 -0.1510
  871TIP3    H124104   4.406   1.719  11.637  1.0481  2.6997 -0.2050
  871TIP3    H224105   4.429   1.685  11.492  0.9580  0.2344  0.3441
  872TIP3   OH224106   1.075   2.343   3.445 -0.4123  0.0642 -0.5094
  872TIP3    H124107   1.157   2.330   3.492 -1.3796 -0.0653  1.1909
  872TIP3    H224108   1.100   2.343   3.353  1.7067  1.5357  0.0268
  873TIP3   OH224109   3.731   1.137  11.934  0.0797 -0.5464 -0.2149
  873TIP3    H124110   3.689   1.174  12.012  0.8467 -0.5257  0.1900
  873TIP3    H224111   3.778   1.060  11.966  0.4515 -0.5029 -0.6491
  874TIP3   OH224112   3.698   3.599   5.219  0.5802 -0.0236  0.2318
  874TIP3    H124113   3.697   3.633   5.129 -0.8062  0.3182  0.3677
  874TIP3    H224114   3.677   3.506   5.209 -0.6344  0.2399  0.2870
  875TIP3   OH224115   4.686   1.509   0.303  0.0597  0.3254 -0.0390
  875TIP3    H124116   4.761   1.568   0.305  0.1871  0.1650 -0.0142
  875TIP3    H224117   4.616   1.557   0.349 -0.7306  1.6295 -2.5289
  876TIP3   OH224118   3.526   1.913  10.393 -0.1824  0.2067  0.5446
  876TIP3    H124119   3.576   1.833  10.380  0.9103  0.8309  0.8051
  876TIP3    H224120   3.583   1.968  10.447 -0.1541  1.8626 -1.1200
  877TIP3   OH224121   1.082   0.308  14.250 -0.2644  0.5021  0.7440
  877TIP3    H124122   1.011   0.309  14.186  0.6935 -2.0617 -0.4272
  877TIP3    H224123   1.137   0.383  14.227 -0.2455 -0.0641 -1.0707
  878TIP3   OH224124   0.864   1.553  16.289  0.2080 -0.9471  0.0468
  878TIP3    H124125   0.898   1.495  16.221  0.3902 -0.7926  0.0056
  878TIP3    H224126   0.927   1.546  16.360 -0.0574 -1.2162  0.2540
  879TIP3   OH224127   2.414   4.276  11.345  0.9072  0.4956 -0.0273
  879TIP3    H124128   2.398   4.358  11.392  0.6064  0.4267 -0.0058
  879TIP3    H224129   2.506   4.256  11.361  0.1998 -0.8485  2.6321
  880TIP3   OH224130   5.225   1.430   1.734  0.1498 -0.0644  0.0338
  880TIP3    H124131   5.241   1.424   1.828 -1.1727  0.5919  0.3112
  880TIP3    H224132   5.243   1.521   1.713 -0.8495  0.1033 -0.0977
  881TIP3   OH224133   2.801   2.467  11.970  0.4659  0.1000  0.0410
  881TIP3    H124134   2.849   2.409  12.028  0.3301  0.3814  0.4322
  881TIP3    H224135   2.715   2.426  11.961 -0.0555  0.9000  1.3275
  882TIP3   OH224136   3.401   5.101  17.056  0.3139  0.1598  0.1593
  882TIP3    H124137   3.377   5.141  17.140 -2.4962  1.2855 -1.1105
  882TIP3    H224138   3.360   5.015  17.058  1.6310 -0.4672  0.5939
  883TIP3   OH224139   0.260   5.500  14.087  0.1867 -0.4531  0.7160
  883TIP3    H124140   0.167   5.505  14.066 -0.0837 -1.1867  1.7523
  883TIP3    H224141   0.280   5.586  14.125  0.6467  0.8438 -2.3260
  884TIP3   OH224142   5.927   1.553  15.876 -0.0209 -0.1065 -0.2352
  884TIP3    H124143   5.925   1.482  15.940 -0.4705 -0.5108 -0.6908
  884TIP3    H224144   5.961   1.628  15.924  0.2742 -0.5811  0.3007
  885TIP3   OH224145   2.198   4.524   4.287  0.2199  0.3289 -0.2208
  885TIP3    H124146   2.208   4.445   4.233  0.1485  0.3769 -0.3031
  885TIP3    H224147   2.130   4.575   4.244  0.2860  0.4505 -0.1835
  886TIP3   OH224148   3.581   6.382  11.422 -0.0769 -0.1457  0.2939
  886TIP3    H124149   3.626   6.460  11.455 -0.1776 -0.6049  1.5597
  886TIP3    H224150   3.488   6.405  11.424 -0.2377 -0.8033  2.1648
  887TIP3   OH224151   0.399   4.985  13.773 -0.5365  0.1488  0.3495
  887TIP3    H124152   0.460   5.058  13.774  2.1453 -2.0160 -0.2307
  887TIP3    H224153   0.405   4.947  13.861 -1.1830  0.0057  0.3386
  888TIP3   OH224154   0.746   0.902   1.007 -0.4450  0.3093 -0.0465
  888TIP3    H124155   0.691   0.859   1.073 -1.9366  0.3504 -1.2447
  888TIP3    H224156   0.687   0.962   0.961  0.5833  0.3349 -1.3680
  889TIP3   OH224157   4.179   4.337  11.467  0.8102  0.1451  1.1402
  889TIP3    H124158   4.232   4.379  11.400 -0.8520  0.4297 -0.0233
  889TIP3    H224159   4.088   4.358  11.443  0.0408 -2.4720  1.6410
  890TIP3   OH224160   3.884   3.177  11.379  0.1752 -0.1320  0.4982
  890TIP3    H124161   3.797   3.145  11.357  0.1011 -0.7819  1.7249
  890TIP3    H224162   3.870   3.235  11.454  0.6346  0.8432 -0.1444
  891TIP3   OH224163   4.687   0.252  12.156  0.3117 -0.4456 -0.0045
  891TIP3    H124164   4.691   0.191  12.082 -1.2783  0.7368 -1.0989
  891TIP3    H224165   4.594   0.260  12.176  0.4764  1.7269  0.0226
  892TIP3   OH224166   2.801   3.698   0.446 -0.2400 -0.1627  0.5843
  892TIP3    H124167   2.809   3.627   0.510  0.2140  1.4370  2.3497
  892TIP3    H224168   2.715   3.685   0.407 -0.3563 -1.4165  1.2206
  893TIP3   OH224169   1.098   3.696  11.338  0.0428  0.4443  0.2008
  893TIP3    H124170   1.005   3.698  11.317  0.0564 -0.4761  0.0328
  893TIP3    H224171   1.108   3.761  11.408 -0.5816  1.1168 -0.3249
  894TIP3   OH224172   2.331   2.917   0.338 -0.0640 -0.1062 -0.2755
  894TIP3    H124173   2.248   2.912   0.290 -0.8329 -2.1151  1.1522
  894TIP3    H224174   2.316   2.984   0.405 -0.5686 -0.4781 -0.0094
  895TIP3   OH224175   6.189   0.589  16.705 -0.2415 -0.3753 -0.4552
  895TIP3    H124176   6.223   0.662  16.654  1.7823 -1.2494 -0.4108
  895TIP3    H224177   6.231   0.598  16.791 -1.4539 -0.5143  0.1672
  896TIP3   OH224178   4.267   0.230   1.535 -0.0426 -0.3055 -0.1318
  896TIP3    H124179   4.223   0.290   1.595 -0.5345  0.9318 -1.6993
  896TIP3    H224180   4.202   0.164   1.515 -0.2289 -0.1083 -0.1728
  897TIP3   OH224181   4.841   6.036   5.225 -0.1163 -0.1755 -0.1519
  897TIP3    H124182   4.903   6.015   5.156 -0.8599 -1.2265 -0.5090
  897TIP3    H224183   4.799   5.952   5.247 -0.1550  0.2038  1.3078
  898TIP3   OH224184   4.876   1.849  14.584  0.1660 -0.0265  0.8025
  898TIP3    H124185   4.812   1.835  14.515  1.6687  0.3767 -0.7106
  898TIP3    H224186   4.934   1.772  14.579  0.2387 -0.0337  1.6705
  899TIP3   OH224187   5.888   0.376   3.276  0.1499 -0.3245  0.5684
  899TIP3    H124188   5.804   0.420   3.265  0.0326 -0.5191  0.6868
  899TIP3    H224189   5.944   0.414   3.208  0.0292 -0.0429  0.6259
  900TIP3   OH224190   2.309   5.796   5.919  0.1649 -0.4843 -0.0767
  900TIP3    H124191   2.377   5.843   5.968 -1.3106  3.2434 -1.4050
  900TIP3    H224192   2.251   5.761   5.986  1.5837 -0.8516  0.9770
  901TIP3   OH224193   0.285   6.630   0.145 -0.2123  0.0074  0.2545
  901TIP3    H124194   0.236   6.551   0.121  0.4109  0.0295 -1.1939
  901TIP3    H224195   0.372   6.616   0.107  0.7849  0.1559  2.4242
  902TIP3   OH224196   6.033   2.275  13.508  0.1044  0.5419  0.1084
  902TIP3    H124197   6.023   2.357  13.459 -1.2880  0.4072  0.1463
  902TIP3    H224198   6.094   2.297  13.579  0.5199  1.2753 -0.4637
  903TIP3   OH224199   0.844   6.812   0.803 -0.6879  0.2568 -0.2102
  903TIP3    H124200   0.854   6.906   0.817 -1.8782  0.4882 -0.8164
  903TIP3    H224201   0.933   6.780   0.790 -0.3368  1.4369 -0.8293
  904TIP3   OH224202   2.045   0.585   1.326  0.1745  0.3103 -0.6064
  904TIP3    H124203   2.113   0.572   1.260 -0.6750  1.0077 -1.6486
  904TIP3    H224204   1.978   0.637   1.281 -1.6204 -1.4093  0.0089
  905TIP3   OH224205   3.380   6.025  11.763 -0.1784 -0.3772 -0.2207
  905TIP3    H124206   3.383   6.113  11.726 -1.2986  0.5529  1.8449
  905TIP3    H224207   3.470   5.993  11.755  0.1938  0.8524 -1.1766
  906TIP3   OH224208   2.201   0.925   5.609  0.4642  0.5297  0.2049
  906TIP3    H124209   2.143   0.970   5.547  0.5341 -1.1585 -1.1135
  906TIP3    H224210   2.146   0.860   5.651  1.0829 -0.2072 -0.1088
  907TIP3   OH224211   4.081   6.449   0.300  0.2114  0.4057  0.3023
  907TIP3    H124212   4.127   6.511   0.243  0.8631 -1.8771 -1.7382
  907TIP3    H224213   4.135   6.444   0.378  0.2215  2.2779  0.4502
  908TIP3   OH224214   2.634   6.615   2.832  0.2197  0.5065 -0.1229
  908TIP3    H124215   2.729   6.608   2.835  0.1213 -0.0051  1.9432
  908TIP3    H224216   2.602   6.528   2.855 -0.7738  1.6672  3.0848
  909TIP3   OH224217   1.471   6.668   4.476 -0.6436 -0.1362 -0.0826
  909TIP3    H124218   1.503   6.581   4.498  2.1131  0.6335 -0.8699
  909TIP3    H224219   1.526   6.728   4.527 -1.0203  1.2209 -1.2316
  910TIP3   OH224220   3.919   6.568   5.700  0.1695 -0.2787 -0.1598
  910TIP3    H124221   3.912   6.501   5.632 -1.9017  1.5220 -1.7925
  910TIP3    H224222   3.990   6.624   5.671 -0.2282  0.0745 -0.4428
  911TIP3   OH224223   2.726   1.850  15.470  0.2792  0.0575  0.7826
  911TIP3    H124224   2.746   1.930  15.421  1.7836 -0.2915  0.7818
  911TIP3    H224225   2.678   1.795  15.407 -0.8144  0.9704  0.8026
  912TIP3   OH224226   1.865   6.450   5.111 -0.2947 -0.4627 -0.0554
  912TIP3    H124227   1.867   6.382   5.043  0.6120  0.3979 -0.9113
  912TIP3    H224228   1.793   6.508   5.085 -0.8057 -0.8617  0.4535
  913TIP3   OH224229   6.418   4.812   2.137  0.6294  1.0073 -0.3406
  913TIP3    H124230   6.351   4.793   2.202  0.1355 -0.1018 -1.1603
  913TIP3    H224231   6.423   4.908   2.136 -1.2201  1.1239 -0.5323
  914TIP3   OH224232   2.312   1.540   3.355  0.0756  0.0353 -0.3174
  914TIP3    H124233   2.237   1.482   3.345  0.1114 -0.5296  2.4706
  914TIP3    H224234   2.389   1.483   3.349  0.4698  0.8245 -4.8827
  915TIP3   OH224235   2.419   5.983  15.713  0.1944  0.0079  0.0571
  915TIP3    H124236   2.434   6.010  15.622 -2.4724  0.2461 -0.3422
  915TIP3    H224237   2.448   5.892  15.716 -1.1786 -0.5163 -1.4726
  916TIP3   OH224238   1.130   6.690   5.639  0.1066  0.0833  0.6238
  916TIP3    H124239   1.161   6.612   5.593 -0.1269 -0.5690  1.5636
  916TIP3    H224240   1.210   6.738   5.661  0.1975  0.5969 -0.7955
  917TIP3   OH224241   2.106   0.962   5.082 -0.0325  0.1542 -0.2078
  917TIP3    H124242   2.095   0.868   5.098 -2.8168  0.2423 -1.4293
  917TIP3    H224243   2.023   0.991   5.045  0.9749  3.0140 -0.3957
  918TIP3   OH224244   2.498   2.113   3.080 -0.4633 -0.2672 -0.7410
  918TIP3    H124245   2.576   2.159   3.049 -0.4881  0.3560  0.1161
  918TIP3    H224246   2.525   2.076   3.164  0.0320 -3.0761 -2.0646
  919TIP3   OH224247   1.936   2.292  13.076 -0.0249  0.4088 -0.0183
  919TIP3    H124248   2.016   2.324  13.118  0.3367  0.6926 -0.9160
  919TIP3    H224249   1.962   2.271  12.986 -0.3185 -2.1666  0.4551
  920TIP3   OH224250   5.307   1.651   0.074 -0.2609 -0.1597 -0.3696
  920TIP3    H124251   5.276   1.610  -0.007  1.6014 -0.1310 -1.1225
  920TIP3    H224252   5.371   1.591   0.109 -0.0734  0.4668  0.3771
  921TIP3   OH224253   6.751   6.169  15.619 -0.5332 -0.1971 -0.4114
  921TIP3    H124254   6.816   6.100  15.603  0.3710  0.3892  0.6815
  921TIP3    H224255   6.802   6.250  15.621 -1.2162  0.2088  1.0427
  922TIP3   OH224256   5.240   2.712  11.358  0.3462 -0.2231 -0.0219
  922TIP3    H124257   5.282   2.676  11.436  0.1566 -0.2115  0.0883
  922TIP3    H224258   5.259   2.649  11.288 -0.8872 -1.0983  0.4021
  923TIP3   OH224259   2.095   5.054  13.260 -0.2335 -0.2609 -0.0558
  923TIP3    H124260   2.149   4.990  13.307 -2.1033 -1.1704  0.9431
  923TIP3    H224261   2.084   5.126  13.321 -1.3118 -0.7165  0.3041
  924TIP3   OH224262   5.729   1.790  14.174 -0.6638  0.1379 -0.1258
  924TIP3    H124263   5.644   1.748  14.177 -0.7474  0.3930  1.1459
  924TIP3    H224264   5.720   1.859  14.108 -0.9181 -0.9359 -1.2365
  925TIP3   OH224265   1.886   4.788  16.658 -0.2600  0.0715  0.0250
  925TIP3    H124266   1.854   4.703  16.628 -0.6026  0.7573 -1.6539
  925TIP3    H224267   1.948   4.768  16.728 -0.9189 -1.5139  0.1655
  926TIP3   OH224268   6.650   2.841   2.337 -0.3092  0.5817 -0.0201
  926TIP3    H124269   6.680   2.753   2.314 -0.7345  0.4192  0.0351
  926TIP3    H224270   6.645   2.887   2.253  1.2359  0.9854  0.0863
  927TIP3   OH224271   2.321   6.430   0.380  0.6614 -0.0299 -0.4996
  927TIP3    H124272   2.256   6.365   0.357  1.0954  0.0865 -2.1095
  927TIP3    H224273   2.281   6.479   0.452 -0.5727 -0.6478 -0.7454
  928TIP3   OH224274   4.305   1.866   4.473  0.0338 -0.7433 -0.1706
  928TIP3    H124275   4.378   1.928   4.470  0.4759 -1.2954 -1.4324
  928TIP3    H224276   4.236   1.912   4.520  1.2550 -0.2790  1.1978
  929TIP3   OH224277   6.105   6.090  11.478  0.4327  0.3815  0.1651
  929TIP3    H124278   6.018   6.053  11.466  0.1130  1.0912  0.3057
  929TIP3    H224279   6.152   6.070  11.397  0.5058 -1.0106  0.5406
  930TIP3   OH224280   1.389   5.800  11.385 -0.4448 -0.2118  0.2410
  930TIP3    H124281   1.309   5.768  11.344 -0.5477  1.5541 -1.0049
  930TIP3    H224282   1.460   5.761  11.333 -0.5317 -0.2174  0.1255
  931TIP3   OH224283   5.061   4.982   2.934  0.1901  0.0341 -0.7986
  931TIP3    H124284   5.015   4.939   2.861 -1.6487 -0.0235  0.3513
  931TIP3    H224285   5.035   4.931   3.011  0.2455  1.5188  0.2084
  932TIP3   OH224286   3.276   0.381  16.447  0.0250  0.2416  0.2171
  932TIP3    H124287   3.245   0.343  16.529 -0.9408 -0.7383 -0.5957
  932TIP3    H224288   3.286   0.474  16.466  0.3424 -0.0595  1.6021
  933TIP3   OH224289   5.859   2.383  14.465 -0.2251  0.1631  0.0173
  933TIP3    H124290   5.764   2.376  14.469 -0.1180 -1.8548 -0.1945
  933TIP3    H224291   5.877   2.417  14.377 -0.7616  0.7727  0.1455
  934TIP3   OH224292   6.141   4.871   5.111 -0.3956  0.0115 -0.2289
  934TIP3    H124293   6.119   4.922   5.189 -0.8933 -1.3207  0.5198
  934TIP3    H224294   6.166   4.936   5.046 -1.0254  1.2116  0.7080
  935TIP3   OH224295   5.251   1.307   1.449  0.2139  0.5104  0.0256
  935TIP3    H124296   5.244   1.350   1.534 -0.5625  0.0613  0.1901
  935TIP3    H224297   5.334   1.260   1.452  1.4108  2.4953 -0.3925
  936TIP3   OH224298   1.592   6.084  14.204 -0.0085 -0.1421 -0.0854
  936TIP3    H124299   1.655   6.068  14.134 -0.8729 -0.9726 -0.6829
  936TIP3    H224300   1.507   6.089  14.159 -0.1760  2.9318  0.4430
  937TIP3   OH224301   3.090   2.813   0.324  0.0758  0.3669  0.1654
  937TIP3    H124302   3.108   2.881   0.389  0.6004  0.1746  0.2274
  937TIP3    H224303   3.077   2.734   0.375 -2.1700  0.7407  0.1882
  938TIP3   OH224304   3.242   3.377  12.927 -0.1528  0.1616 -0.1621
  938TIP3    H124305   3.308   3.386  12.858 -0.5722 -1.8781 -0.8561
  938TIP3    H224306   3.291   3.344  13.002  0.4205  2.9725  0.7592
  939TIP3   OH224307   4.412   2.502  12.654 -0.3244 -0.4205  0.2210
  939TIP3    H124308   4.443   2.590  12.632  0.5494 -1.3125 -2.2661
  939TIP3    H224309   4.478   2.467  12.714 -1.8950  1.4440  3.1442
  940TIP3   OH224310   1.045   4.239   2.381 -0.0282 -0.2630  0.1459
  940TIP3    H124311   1.066   4.304   2.314 -0.1573 -0.1853  0.1790
  940TIP3    H224312   1.027   4.159   2.333  0.3089 -0.3200  0.1163
  941TIP3   OH224313   6.107   1.286  15.166  0.0784 -0.7767 -0.1038
  941TIP3    H124314   6.059   1.368  15.182  1.4965 -0.2516  1.6408
  941TIP3    H224315   6.190   1.314  15.127  1.0743 -1.2591  1.6227
  942TIP3   OH224316   1.378   5.422  12.277 -0.1856 -0.0344  0.3899
  942TIP3    H124317   1.316   5.361  12.237 -2.1940  2.2679 -0.1412
  942TIP3    H224318   1.426   5.369  12.340 -1.0671 -2.4126 -0.8646
  943TIP3   OH224319   6.057   6.177   4.239  0.2599  0.0601  0.0843
  943TIP3    H124320   6.046   6.222   4.155 -0.1969  0.7604  0.5121
  943TIP3    H224321   5.978   6.200   4.289  1.7517  1.8495  1.7116
  944TIP3   OH224322   1.933   0.282   2.035 -0.0961 -0.5088 -0.0521
  944TIP3    H124323   1.967   0.356   1.984 -1.8484  0.1011 -0.3457
  944TIP3    H224324   1.932   0.209   1.974 -0.8057 -0.1369 -0.4869
  945TIP3   OH224325   2.050   3.376  15.243  0.3114 -0.5923  0.1631
  945TIP3    H124326   1.984   3.445  15.248  1.8304  0.8193  1.6594
  945TIP3    H224327   2.057   3.355  15.150 -0.0333  1.4315 -0.3323
  946TIP3   OH224328   0.504   0.587   5.292 -0.3744 -0.3808 -0.0133
  946TIP3    H124329   0.559   0.556   5.364 -1.3408 -1.9880  0.0540
  946TIP3    H224330   0.535   0.537   5.216 -2.3329 -1.9990  0.2149
  947TIP3   OH224331   5.765   4.201   4.773 -0.2627  0.1706 -0.1306
  947TIP3    H124332   5.822   4.230   4.844 -0.0694 -0.5655  0.0165
  947TIP3    H224333   5.700   4.270   4.765  0.5654  0.9553 -0.2073
  948TIP3   OH224334   4.994   4.146   4.726 -0.1041 -0.9219  0.6575
  948TIP3    H124335   4.920   4.207   4.730  0.5399 -0.2422  2.6621
  948TIP3    H224336   5.072   4.203   4.726  0.4490 -1.6424 -0.9477
  949TIP3   OH224337   3.305   1.665   3.375 -0.0568  0.3659  0.6241
  949TIP3    H124338   3.314   1.599   3.444  0.7673  0.2966  0.4666
  949TIP3    H224339   3.310   1.749   3.420 -1.6919  0.3325  0.8939
  950TIP3   OH224340   5.583   2.573  14.660 -0.1586  0.2118 -0.0042
  950TIP3    H124341   5.573   2.659  14.619 -1.7946 -0.5374 -1.2493
  950TIP3    H224342   5.553   2.586  14.750 -1.7050  0.6647 -0.5643
  951TIP3   OH224343   5.533   4.030  12.300  0.3531  0.2011 -0.1048
  951TIP3    H124344   5.617   4.014  12.343  0.0272  0.6323  0.7023
  951TIP3    H224345   5.546   4.112  12.252  0.9323 -0.6266 -1.4206
  952TIP3   OH224346   4.807   4.929  12.543 -0.0862 -0.1677  0.5152
  952TIP3    H124347   4.737   4.948  12.479  1.4567  4.4895 -0.0071
  952TIP3    H224348   4.883   4.910  12.489  0.0475 -1.2293  1.0633
  953TIP3   OH224349   0.715   0.707   4.670 -0.1967  0.0584 -0.1517
  953TIP3    H124350   0.802   0.740   4.694 -0.3076  0.0099  0.3352
  953TIP3    H224351   0.682   0.768   4.605 -0.4255  0.9422  0.7780
  954TIP3   OH224352   2.191   3.331  13.018 -0.7751  1.1481 -0.5490
  954TIP3    H124353   2.215   3.417  13.052  0.5668  0.6358 -0.1712
  954TIP3    H224354   2.274   3.290  12.995 -1.3468 -0.3886  0.0651
  955TIP3   OH224355   2.052   0.622  14.052  0.5690 -0.3474 -0.0280
  955TIP3    H124356   2.004   0.654  13.975 -0.3820  0.5905  0.9466
  955TIP3    H224357   2.144   0.639  14.031  0.2782  0.3868 -0.7578
  956TIP3   OH224358   4.032   6.539  16.710  0.1156 -0.3387  0.2201
  956TIP3    H124359   4.047   6.456  16.756  1.7290 -0.6847 -0.8890
  956TIP3    H224360   4.030   6.605  16.779  2.8535 -0.8061  0.7774
  957TIP3   OH224361   2.316   1.092   5.188 -0.1638 -0.3047  0.5444
  957TIP3    H124362   2.233   1.051   5.164 -1.0083  1.5852  0.0905
  957TIP3    H224363   2.292   1.155   5.256  0.6138  1.3950 -0.7175
  958TIP3   OH224364   4.060   0.746  12.560  0.7682 -0.0370  0.0265
  958TIP3    H124365   3.975   0.730  12.601  0.1137  2.2300 -0.3569
  958TIP3    H224366   4.061   0.841  12.545  3.5469  0.0184  0.4194
  959TIP3   OH224367   5.154   6.218   4.494 -0.2067  0.6190  0.3568
  959TIP3    H124368   5.236   6.259   4.466  0.5983 -0.2901  1.3457
  959TIP3    H224369   5.181   6.151   4.557 -1.7279  0.4285  0.8232
  960TIP3   OH224370   1.382   3.721  17.080 -0.1728  0.1088  0.1253
  960TIP3    H124371   1.303   3.761  17.117 -0.0233  0.1864  0.3629
  960TIP3    H224372   1.373   3.732  16.986 -0.8704 -0.6697  0.1041
  961TIP3   OH224373   5.901   1.423  13.276 -0.3661  0.8611  0.2133
  961TIP3    H124374   5.974   1.368  13.304 -0.6736  0.2468 -0.1845
  961TIP3    H224375   5.861   1.454  13.357 -0.3710  0.2607  0.4407
  962TIP3   OH224376   5.187   4.712  11.696  0.3243  0.0955  0.5273
  962TIP3    H124377   5.156   4.793  11.655 -0.9073 -0.6472 -0.0602
  962TIP3    H224378   5.281   4.724  11.706  0.3327  1.1228 -0.6468
  963TIP3   OH224379   4.369   5.547   5.997 -0.6224  0.2001 -0.6446
  963TIP3    H124380   4.460   5.576   5.995 -0.1149 -1.1653  1.2424
  963TIP3    H224381   4.318   5.625   5.977  0.8687  1.6072  0.9024
  964TIP3   OH224382   3.000   6.106   5.285 -0.1823 -0.2251  0.3962
  964TIP3    H124383   2.983   6.041   5.216  0.5017  1.2456 -1.2088
  964TIP3    H224384   3.083   6.080   5.324 -0.5731 -1.0682  0.6623
  965TIP3   OH224385   3.185   2.172   3.257  0.4762  0.2905 -0.0101
  965TIP3    H124386   3.184   2.242   3.324  0.5726  0.5661 -0.2967
  965TIP3    H224387   3.263   2.121   3.277  1.6369  1.5849 -1.1582
  966TIP3   OH224388   4.296   5.064   4.814 -0.1038  0.2485  0.0519
  966TIP3    H124389   4.226   5.107   4.864  0.5267  2.5288 -0.9379
  966TIP3    H224390   4.376   5.089   4.860  0.1801 -1.1029  0.3040
  967TIP3   OH224391   2.792   6.032  15.710  0.5317  0.1484 -0.6459
  967TIP3    H124392   2.771   5.982  15.631  0.4497  0.7283 -0.9990
  967TIP3    H224393   2.718   6.093  15.719  0.6273  0.1976 -0.2178
  968TIP3   OH224394   6.487   0.406   0.437  0.4196  0.4193  1.1135
  968TIP3    H124395   6.571   0.362   0.428 -1.2022 -2.2338 -2.5160
  968TIP3    H224396   6.444   0.393   0.352 -2.8594  3.3888  2.1751
  969TIP3   OH224397   6.446   4.190   1.906 -0.4547 -0.3343 -0.2055
  969TIP3    H124398   6.403   4.173   1.823 -0.4614  2.8109 -0.9363
  969TIP3    H224399   6.492   4.273   1.892  0.0596 -0.0789  2.7158
  970TIP3   OH224400   3.422   1.849   2.795 -0.3552  0.0572  0.0808
  970TIP3    H124401   3.373   1.823   2.717  2.4592 -0.5052 -1.6075
  970TIP3    H224402   3.445   1.766   2.837 -1.7353  0.3570  1.4253
  971TIP3   OH224403   2.937   4.333  16.983  1.4766 -0.2912  0.5025
  971TIP3    H124404   2.959   4.368  17.069 -1.6016  0.4930  1.0477
  971TIP3    H224405   2.898   4.407  16.937 -0.2128 -1.5978 -0.2463
  972TIP3   OH224406   4.396   4.973  12.787 -0.2320 -0.1654 -0.3637
  972TIP3    H124407   4.426   5.042  12.728  0.8554  0.1661  0.5642
  972TIP3    H224408   4.388   4.895  12.732  3.6634 -0.6323 -0.4122
  973TIP3   OH224409   2.945   2.257  16.259 -0.6247  0.1118 -0.1298
  973TIP3    H124410   2.997   2.184  16.290 -0.8235 -0.0185 -0.0960
  973TIP3    H224411   2.857   2.241  16.295  0.1140  2.1897  2.7893
  974TIP3   OH224412   0.732   1.901   5.272  0.0879 -0.1034  0.0533
  974TIP3    H124413   0.756   1.921   5.182  0.1853  1.5985  0.4375
  974TIP3    H224414   0.808   1.928   5.324  0.1140 -1.2643  0.6297
  975TIP3   OH224415   0.464   0.852   4.855 -0.4502 -0.0677  0.3398
  975TIP3    H124416   0.501   0.919   4.798 -1.0434 -0.7166 -0.8170
  975TIP3    H224417   0.412   0.901   4.919  0.0155  0.6436  0.1739
  976TIP3   OH224418   5.101   3.183   0.074 -0.2495 -0.0019 -0.5866
  976TIP3    H124419   5.157   3.149   0.144 -1.4555  3.1462  2.0754
  976TIP3    H224420   5.016   3.141   0.089 -0.8545  1.6039  0.7136
  977TIP3   OH224421   4.161   4.971   3.388 -0.1190 -0.2819 -0.0082
  977TIP3    H124422   4.134   4.895   3.337  0.4210 -0.2881 -0.2902
  977TIP3    H224423   4.088   5.032   3.380 -0.6370 -0.8590  0.3939
  978TIP3   OH224424   4.698   2.941  10.998  0.7734  0.2019 -0.5830
  978TIP3    H124425   4.752   2.976  11.069 -0.5520  0.5205  0.2827
  978TIP3    H224426   4.736   2.855  10.979  2.2128  0.8549 -0.6903
  979TIP3   OH224427   3.751   5.360   0.615 -0.2207  0.5199 -0.1114
  979TIP3    H124428   3.829   5.382   0.564  0.0680  0.2970  0.2370
  979TIP3    H224429   3.678   5.384   0.557  0.1001  0.7886 -0.4115
  980TIP3   OH224430   2.003   4.701   4.182  0.2079  0.2227  0.2387
  980TIP3    H124431   1.969   4.640   4.117  1.0461  0.8584 -0.8179
  980TIP3    H224432   2.025   4.780   4.132 -0.5977  1.2985  1.5337
  981TIP3   OH224433   3.665   4.318  15.351 -0.1309  0.0525 -0.2383
  981TIP3    H124434   3.716   4.302  15.272 -1.5411 -0.6213 -1.0394
  981TIP3    H224435   3.646   4.230  15.386  0.5745  0.3473  0.9132
  982TIP3   OH224436   4.624   3.238  17.198 -0.6451  0.1910  0.0341
  982TIP3    H124437   4.602   3.329  17.213  1.0487  0.6433 -0.1968
  982TIP3    H224438   4.576   3.190  17.266  1.1998  1.5440  2.3560
  983TIP3   OH224439   5.231   3.844  16.914 -0.2822  0.3385  0.3736
  983TIP3    H124440   5.174   3.915  16.882 -0.3964  0.5475  1.0327
  983TIP3    H224441   5.185   3.810  16.991 -0.4925 -0.8214 -0.2656
  984TIP3   OH224442   4.087   5.000  14.744  0.7199 -0.2517 -0.5450
  984TIP3    H124443   4.098   5.019  14.837  0.1326 -2.4666  0.0279
  984TIP3    H224444   4.068   4.906  14.742  1.7625 -0.4253 -2.9952
  985TIP3   OH224445   3.778   1.419   3.302  0.1117  0.1775  0.0226
  985TIP3    H124446   3.734   1.496   3.266 -0.0635  0.9865  1.9128
  985TIP3    H224447   3.860   1.452   3.337 -0.4968 -0.2516  1.9314
  986TIP3   OH224448   1.761   3.573  12.779 -0.4849 -0.6896 -0.4241
  986TIP3    H124449   1.775   3.538  12.691 -2.0798 -0.7159 -0.6800
  986TIP3    H224450   1.685   3.526  12.812  0.1156 -0.6875  0.9870
  987TIP3   OH224451   1.235   0.509   6.508  0.2640 -0.2688  0.1564
  987TIP3    H124452   1.147   0.534   6.480 -0.1225  0.7991  2.2105
  987TIP3    H224453   1.289   0.586   6.489  0.1871  0.1064  1.4170
  988TIP3   OH224454   1.462   1.835   5.375 -0.4525 -0.1075 -0.0212
  988TIP3    H124455   1.531   1.802   5.432  0.2381  0.7538 -0.3493
  988TIP3    H224456   1.486   1.805   5.288 -0.9436 -0.5275 -0.0131
  989TIP3   OH224457   5.757   0.529   0.076 -0.3597 -0.4265 -0.3091
  989TIP3    H124458   5.731   0.581   0.152 -1.1348 -0.4536 -0.5535
  989TIP3    H224459   5.675   0.494   0.041 -0.1668  0.7054 -1.9716
  990TIP3   OH224460   5.507   3.441  16.697 -0.5826 -0.7505 -0.0140
  990TIP3    H124461   5.511   3.481  16.610  0.4851 -1.2539 -0.2055
  990TIP3    H224462   5.471   3.510  16.754  0.1967  0.1077 -0.5504
  991TIP3   OH224463   5.696   3.599   1.196  0.4754 -0.5032 -0.1428
  991TIP3    H124464   5.706   3.650   1.116 -0.6292 -0.5536 -0.3265
  991TIP3    H224465   5.621   3.640   1.241 -0.2464 -1.7817 -0.1665
  992TIP3   OH224466   2.054   2.213  16.016  0.6533  0.1528  0.2430
  992TIP3    H124467   2.030   2.206  15.924  1.5126  0.6368 -0.0299
  992TIP3    H224468   2.150   2.211  16.016  0.6544  0.0009  1.1371
  993TIP3   OH224469   3.445   3.874   4.793 -0.3328  0.0355 -0.1543
  993TIP3    H124470   3.488   3.921   4.864  1.5024  0.3341 -1.4100
  993TIP3    H224471   3.416   3.942   4.732  1.3848 -0.3410 -1.4533
  994TIP3   OH224472   0.946   0.023  14.738 -0.2152 -0.4839  0.5076
  994TIP3    H124473   0.899   0.087  14.685 -0.5645 -1.5247 -0.4536
  994TIP3    H224474   0.991   0.075  14.804 -0.9586  0.7032  0.0899
  995TIP3   OH224475   1.268   0.604   0.592 -0.2476  0.3507 -0.0593
  995TIP3    H124476   1.258   0.699   0.583  0.0530  0.2097 -2.0352
  995TIP3    H224477   1.214   0.567   0.522 -0.1591 -0.9430  0.5378
  996TIP3   OH224478   6.079   6.579  14.557  0.0685 -0.2719 -0.0067
  996TIP3    H124479   6.125   6.535  14.485 -2.3413 -2.5387 -0.2562
  996TIP3    H224480   6.145   6.587  14.625  1.3971 -1.6378 -1.0711
  997TIP3   OH224481   2.545   5.182  15.397 -0.3254 -0.5718 -0.0401
  997TIP3    H124482   2.585   5.158  15.314 -0.4846 -0.3059 -0.1922
  997TIP3    H224483   2.477   5.117  15.411 -3.5090  2.0600 -2.4284
  998TIP3   OH224484   6.359   6.546  11.706 -0.3341 -0.1442 -0.5786
  998TIP3    H124485   6.427   6.529  11.641  0.3740 -1.6087  0.5056
  998TIP3    H224486   6.291   6.480  11.688  0.7729 -1.8939  1.3684
  999TIP3   OH224487   3.310   2.375  16.513  0.6487  0.2651 -0.1866
  999TIP3    H124488   3.232   2.422  16.544 -0.2703 -1.1325 -0.3328
  999TIP3    H224489   3.348   2.337  16.592  0.3908 -0.1970 -0.2776
 1000TIP3   OH224490   1.200   3.885  16.869  0.6209 -0.2320 -0.5551
 1000TIP3    H124491   1.183   3.810  16.926 -0.7148  0.6151  0.1812
 1000TIP3    H224492   1.131   3.880  16.802  2.4733 -1.5180 -2.4510
 1001TIP3   OH224493   2.405   4.843   1.085  0.3295 -0.3384  0.1813
 1001TIP3    H124494   2.311   4.834   1.070  0.4098 -1.3957  0.2752
 1001TIP3    H224495   2.445   4.799   1.011  0.8486  5.1286 -3.0809
 1002TIP3   OH224496   4.522   1.295   3.168 -0.0074 -0.1359  0.1920
 1002TIP3    H124497   4.494   1.318   3.079  0.4514  2.2659  0.6187
 1002TIP3    H224498   4.557   1.206   3.160  0.7090  0.3104 -2.1850
 1003TIP3   OH224499   6.486   6.437  14.273 -0.4459  0.2196  0.3877
 1003TIP3    H124500   6.534   6.519  14.266 -4.0673  2.4379 -0.0521
 1003TIP3    H224501   6.511   6.387  14.195 -0.9712  2.5093 -1.2829
 1004TIP3   OH224502   1.184   3.840   5.228  0.4468  0.1049 -0.0407
 1004TIP3    H124503   1.103   3.788   5.233  1.1909 -1.1236 -0.4713
 1004TIP3    H224504   1.224   3.814   5.145 -0.1119  2.8166 -1.1902
 1005TIP3   OH224505   0.732   2.836   2.250  0.4786 -0.3502  0.2843
 1005TIP3    H124506   0.774   2.921   2.251 -0.8325  0.3256 -0.3093
 1005TIP3    H224507   0.753   2.797   2.335  0.4868  0.8546  0.8456
 1006TIP3   OH224508   1.684   6.646   3.225 -0.2792  0.2587  0.9050
 1006TIP3    H124509   1.759   6.672   3.171  0.0016  1.6643  1.9470
 1006TIP3    H224510   1.620   6.612   3.162  1.9088 -2.6876  0.1656
 1007TIP3   OH224511   1.381   3.511   4.906  0.1529 -0.7374 -0.0072
 1007TIP3    H124512   1.345   3.436   4.857 -1.4833  0.0279 -0.0061
 1007TIP3    H224513   1.446   3.548   4.847  0.9824 -2.1591 -0.0122
 1008TIP3   OH224514   3.239   2.188  16.981  0.0702 -1.1167  0.3320
 1008TIP3    H124515   3.229   2.237  17.063  0.4306 -0.2555 -0.1407
 1008TIP3    H224516   3.289   2.110  17.006  0.0792 -0.9129  0.9494
 1009TIP3   OH224517   3.191   0.305   6.214  0.5064 -0.3573  0.2480
 1009TIP3    H124518   3.214   0.270   6.300 -0.4953  0.9131  1.0655
 1009TIP3    H224519   3.242   0.386   6.207  0.4088 -0.3409 -0.2527
 1010TIP3   OH224520   2.868   3.120   0.841  0.1919 -0.5286  0.0244
 1010TIP3    H124521   2.889   3.173   0.764  1.1751 -1.2460 -0.2155
 1010TIP3    H224522   2.871   3.030   0.810 -0.6429 -0.7663  0.6205
 1011TIP3   OH224523   3.348   3.744   2.156 -0.2367 -0.7358 -0.1482
 1011TIP3    H124524   3.350   3.722   2.062 -0.2140 -1.5904  0.0478
 1011TIP3    H224525   3.416   3.811   2.166  3.1760 -4.0775  0.1052
 1012TIP3   OH224526   5.554   1.597  14.937  0.3172  0.2968  0.2125
 1012TIP3    H124527   5.535   1.643  15.019 -0.2127  0.3810  0.0456
 1012TIP3    H224528   5.469   1.563  14.909  1.0290 -2.6122  1.4144
 1013TIP3   OH224529   1.636   3.337  16.078  0.1221  0.4256 -0.5860
 1013TIP3    H124530   1.625   3.242  16.091 -1.2456  0.7599  0.9154
 1013TIP3    H224531   1.546   3.370  16.073  0.4235  2.1976  3.4834
 1014TIP3   OH224532   5.232   3.248  12.091  0.4301 -0.9898 -0.6017
 1014TIP3    H124533   5.237   3.220  12.182 -2.1534 -1.2572 -0.5007
 1014TIP3    H224534   5.294   3.320  12.084 -1.5276  1.0576  2.1470
 1015TIP3   OH224535   5.866   0.351   4.170  0.0726 -0.2753  0.6149
 1015TIP3    H124536   5.841   0.434   4.211  1.9262  1.3632 -1.4462
 1015TIP3    H224537   5.800   0.336   4.103  1.4484  1.1863 -1.1069
 1016TIP3   OH224538   5.621   4.417  13.688  0.0486 -0.6117 -0.2671
 1016TIP3    H124539   5.572   4.354  13.740  2.5577 -1.1156  1.5746
 1016TIP3    H224540   5.582   4.502  13.711 -0.0557 -1.0120  1.0631
 1017TIP3   OH224541   0.725   2.207  10.547 -0.2234  0.0961  0.1956
 1017TIP3    H124542   0.734   2.276  10.481 -1.2856 -0.3142 -0.3967
 1017TIP3    H224543   0.802   2.152  10.536 -0.8592 -0.5081 -1.3422
 1018TIP3   OH224544   2.696   6.302   5.756  0.0805  0.2355 -0.2052
 1018TIP3    H124545   2.691   6.341   5.843 -0.1413 -0.6458  0.1796
 1018TIP3    H224546   2.775   6.249   5.758 -0.6742 -0.8960 -0.0791
 1019TIP3   OH224547   1.085   1.987   4.132  0.2441  0.2136 -0.2301
 1019TIP3    H124548   1.131   1.942   4.203 -1.0115  0.1105  0.5390
 1019TIP3    H224549   1.093   1.929   4.057 -1.6929 -1.5388  0.8512
 1020TIP3   OH224550   3.900   3.361   0.927 -0.3939  0.2006  0.1841
 1020TIP3    H124551   3.981   3.366   0.875 -0.4880  1.0198  0.1041
 1020TIP3    H224552   3.891   3.268   0.948 -0.9024 -0.3140 -2.1413
 1021TIP3   OH224553   3.570   5.641  11.326 -0.5801 -0.0216 -0.1107
 1021TIP3    H124554   3.654   5.670  11.293 -0.7263  1.4390  0.7745
 1021TIP3    H224555   3.507   5.668  11.259 -0.5082  0.0395 -0.1534
 1022TIP3   OH224556   6.558   4.149   2.293  0.1771  0.5416  0.3121
 1022TIP3    H124557   6.528   4.084   2.356 -1.1797  0.4846 -0.3788
 1022TIP3    H224558   6.642   4.179   2.328  0.4205 -0.9810  1.0544
 1023TIP3   OH224559   3.810   1.662  12.808 -0.9313  0.0234  0.1619
 1023TIP3    H124560   3.847   1.652  12.721 -1.4421 -1.9815  0.1630
 1023TIP3    H224561   3.811   1.757  12.824  1.5760  0.2160 -0.9498
 1024TIP3   OH224562   5.718   2.087   0.946  0.3024  0.2591 -0.3085
 1024TIP3    H124563   5.789   2.030   0.915  0.8126  0.2142  0.9145
 1024TIP3    H224564   5.640   2.032   0.940  0.3972  0.2362 -1.4524
 1025TIP3   OH224565   3.589   5.586   3.731  0.0265  0.4049  0.2701
 1025TIP3    H124566   3.544   5.605   3.649  2.8469  1.9528 -0.9703
 1025TIP3    H224567   3.624   5.498   3.720 -0.5940  0.1530  0.2937
 1026TIP3   OH224568   0.992   4.544  12.665  0.7169  0.2601 -0.5383
 1026TIP3    H124569   1.060   4.611  12.674 -1.5410  2.4471  0.8145
 1026TIP3    H224570   0.965   4.525  12.755 -1.3689  0.4000 -1.1171
 1027TIP3   OH224571   3.912   1.064   5.869  0.2675 -0.2284  0.1493
 1027TIP3    H124572   3.939   1.155   5.853  0.7356 -0.1051  1.5584
 1027TIP3    H224573   3.842   1.048   5.806  0.3217  1.0493 -0.2461
 1028TIP3   OH224574   1.066   6.250   0.925 -0.1152  0.0889 -0.0307
 1028TIP3    H124575   1.048   6.334   0.967 -0.4315  0.0810 -0.1508
 1028TIP3    H224576   1.006   6.188   0.966  0.2189 -0.1136  0.1625
 1029TIP3   OH224577   6.760   2.494  15.815  0.0035  0.0041  0.3962
 1029TIP3    H124578   6.695   2.460  15.754 -0.5869 -0.3484  1.2134
 1029TIP3    H224579   6.715   2.495  15.899  0.6214  1.0291  0.7243
 1030TIP3   OH224580   4.810   0.775  14.682 -0.0724  0.2145 -0.6482
 1030TIP3    H124581   4.848   0.777  14.594  0.2445 -0.4890 -0.5317
 1030TIP3    H224582   4.736   0.836  14.678 -0.3645 -0.1960 -1.5516
 1031TIP3   OH224583   3.517   6.677  17.226  0.1247 -0.0172 -0.0307
 1031TIP3    H124584   3.528   6.599  17.172  0.2042 -0.4066  0.5443
 1031TIP3    H224585   3.455   6.651  17.294  1.0316  0.0556  0.8531
 1032TIP3   OH224586   5.648   5.881  11.018 -0.0477  0.0686  0.0495
 1032TIP3    H124587   5.561   5.883  11.058 -0.4162  0.5621 -0.7683
 1032TIP3    H224588   5.659   5.791  10.987 -0.3540  0.0607 -0.0361
 1033TIP3   OH224589   3.885   4.312   2.795 -0.5427  0.1136  0.1985
 1033TIP3    H124590   3.814   4.341   2.851 -0.2002  1.7771 -0.2094
 1033TIP3    H224591   3.889   4.377   2.724  0.8848 -0.3636 -0.1914
 1034TIP3   OH224592   3.322   3.450  14.187  0.1782 -0.0161  0.3804
 1034TIP3    H124593   3.306   3.393  14.112  0.1366 -1.3816  1.4144
 1034TIP3    H224594   3.260   3.420  14.253  1.9009 -0.4678  1.8209
 1035TIP3   OH224595   5.755   5.992   4.137  0.8588  0.2483 -0.5462
 1035TIP3    H124596   5.734   5.910   4.180 -0.7734  0.8634 -0.1117
 1035TIP3    H224597   5.849   5.989   4.122  0.7540 -1.8171 -0.8126
 1036TIP3   OH224598   4.538   4.524  17.265  0.5207 -0.0236 -0.6276
 1036TIP3    H124599   4.449   4.554  17.245  0.1449 -1.1858 -0.7751
 1036TIP3    H224600   4.575   4.592  17.320 -1.0343 -0.2794  0.7540
 1037TIP3   OH224601   6.567   1.694   1.352  0.0385  0.0677  0.0742
 1037TIP3    H124602   6.658   1.665   1.358 -0.0875 -0.2188  0.6196
 1037TIP3    H224603   6.533   1.652   1.273  0.1334 -0.4878  0.3329
 1038TIP3   OH224604   3.188   0.786  11.735  0.2019  0.1851  0.0299
 1038TIP3    H124605   3.166   0.847  11.805  0.2491  1.0907 -0.7457
 1038TIP3    H224606   3.220   0.708  11.781  0.3685  0.8235  1.0104
 1039TIP3   OH224607   6.334   1.765  12.751 -0.2324  0.1093 -0.6607
 1039TIP3    H124608   6.426   1.758  12.726 -0.0245  0.8520 -0.1179
 1039TIP3    H224609   6.287   1.774  12.668  0.2654  0.5961 -0.8893
 1040TIP3   OH224610   0.689   4.593   5.038 -0.4204  0.4308  0.6893
 1040TIP3    H124611   0.690   4.503   5.006 -0.7970  0.0919  1.6074
 1040TIP3    H224612   0.597   4.616   5.046 -0.3616  0.1590  2.4415
 1041TIP3   OH224613   0.936   3.325  14.203 -0.3064 -0.6722 -0.0912
 1041TIP3    H124614   0.983   3.387  14.146 -1.1314 -0.5627 -0.6569
 1041TIP3    H224615   0.929   3.245  14.150  1.5369 -1.5738  0.9541
 1042TIP3   OH224616   3.352   5.960  14.983 -0.2286 -0.3279  0.7082
 1042TIP3    H124617   3.380   6.045  15.018 -0.3629 -0.9784  2.4243
 1042TIP3    H224618   3.432   5.918  14.954  0.0002 -0.1425  1.0604
 1043TIP3   OH224619   4.343   5.270   3.324  0.3310 -0.6464  0.2827
 1043TIP3    H124620   4.277   5.279   3.256  1.3107  1.5978 -0.4028
 1043TIP3    H224621   4.355   5.175   3.333 -0.1861 -0.9950 -2.3247
 1044TIP3   OH224622   6.346   5.198  12.451  0.1708  0.0456 -0.4730
 1044TIP3    H124623   6.313   5.151  12.375 -0.5659  2.0448 -1.4356
 1044TIP3    H224624   6.288   5.274  12.460  1.7840  1.2057  0.5273
 1045TIP3   OH224625   2.366   3.208   0.223  0.7355  0.3440 -0.2351
 1045TIP3    H124626   2.441   3.263   0.201  1.1041 -0.6166 -1.4026
 1045TIP3    H224627   2.403   3.123   0.243  0.1991  0.6086  1.9886
 1046TIP3   OH224628   0.636   5.907  16.230 -0.0836 -0.0019 -0.1484
 1046TIP3    H124629   0.548   5.902  16.191 -0.1505  1.8990 -0.3162
 1046TIP3    H224630   0.695   5.902  16.155 -0.1475  1.5353 -0.3129
 1047TIP3   OH224631   1.710   2.324  12.036 -0.8607  0.2831  0.1293
 1047TIP3    H124632   1.766   2.266  12.088 -0.9775  0.6325  0.6414
 1047TIP3    H224633   1.746   2.411  12.050 -0.2240  0.2662 -1.2293
 1048TIP3   OH224634   3.860   1.632  14.423 -0.5381  0.3484 -0.9675
 1048TIP3    H124635   3.775   1.591  14.441 -0.5699  0.7561 -0.1555
 1048TIP3    H224636   3.873   1.693  14.495  1.0002 -0.5897 -0.4072
 1049TIP3   OH224637   4.594   4.971  17.041 -0.4464 -0.1135  0.2096
 1049TIP3    H124638   4.524   5.026  17.075 -0.4197 -0.6147  1.0786
 1049TIP3    H224639   4.553   4.924  16.967 -0.3458  1.3594 -0.8016
 1050TIP3   OH224640   6.072   1.999   4.071 -0.2270 -0.4332  0.4809
 1050TIP3    H124641   6.046   1.935   4.137 -1.1111  2.4625  3.0678
 1050TIP3    H224642   6.157   2.032   4.101  0.5460 -0.8666 -1.1862
 1051TIP3   OH224643   5.413   6.238  15.118  0.9299 -0.4312  0.3356
 1051TIP3    H124644   5.462   6.191  15.050  1.0207  0.0173  0.0864
 1051TIP3    H224645   5.332   6.265  15.075  0.3194 -1.4617  0.8451
 1052TIP3   OH224646   2.046   4.852  13.625  0.1073  0.4552 -0.2500
 1052TIP3    H124647   1.968   4.900  13.652  0.2246  0.9289 -0.7500
 1052TIP3    H224648   2.100   4.917  13.581  1.0384  0.2646  0.5873
 1053TIP3   OH224649   0.501   5.575  11.443 -0.0954  0.2147 -0.0145
 1053TIP3    H124650   0.592   5.585  11.468 -0.1566  0.2202  0.2074
 1053TIP3    H224651   0.492   5.483  11.418  0.5768  0.7845 -2.4943
 1054TIP3   OH224652   0.474   0.037  11.800 -0.8310 -0.1280  0.4221
 1054TIP3    H124653   0.519   0.118  11.824 -1.1357 -0.3056  1.5998
 1054TIP3    H224654   0.381   0.058  11.810 -0.9389 -0.4237  0.0689
 1055TIP3   OH224655   2.211   0.805  13.306  0.2235 -0.8169  0.1773
 1055TIP3    H124656   2.180   0.717  13.285 -1.9155 -0.4243  1.5498
 1055TIP3    H224657   2.244   0.798  13.396 -0.7313 -0.0306  0.5937
 1056TIP3   OH224658   4.249   1.752  15.253  0.1354  0.2548  0.1226
 1056TIP3    H124659   4.214   1.808  15.183 -0.2072 -0.5602 -0.3721
 1056TIP3    H224660   4.200   1.778  15.331  1.5838  2.2378  0.4251
 1057TIP3   OH224661   1.043   6.008   4.423  0.4953 -0.1023 -0.3256
 1057TIP3    H124662   1.121   5.959   4.451  0.8632  0.9437  0.4885
 1057TIP3    H224663   1.033   6.076   4.489 -1.1079 -0.2146 -0.4426
 1058TIP3   OH224664   2.031   0.846   4.230 -0.3222 -0.2045 -0.8187
 1058TIP3    H124665   2.034   0.795   4.311 -1.1310  2.0294  0.6945
 1058TIP3    H224666   2.119   0.881   4.220 -0.4297  0.1960 -0.4134
 1059TIP3   OH224667   5.273   1.385   1.156 -0.4674 -0.3007  0.3347
 1059TIP3    H124668   5.192   1.381   1.105 -0.5482  0.0521  0.4318
 1059TIP3    H224669   5.306   1.296   1.155 -0.5657 -0.3328 -0.1759
 1060TIP3   OH224670   2.580   1.092  10.835  0.0527  0.9000 -0.5632
 1060TIP3    H124671   2.660   1.040  10.839 -0.4935 -0.1346 -2.6040
 1060TIP3    H224672   2.517   1.042  10.887  0.5575  1.4391  0.5878
 1061TIP3   OH224673   5.532   2.660  14.943  0.1556 -0.2770  0.3762
 1061TIP3    H124674   5.571   2.748  14.944 -0.3446  0.0023 -1.7402
 1061TIP3    H224675   5.437   2.676  14.941  0.0612 -0.8612  0.1345
 1062TIP3   OH224676   6.643   4.084  15.948 -0.3336 -0.4310  0.1648
 1062TIP3    H124677   6.680   4.087  15.860 -2.0086 -0.1558 -0.5495
 1062TIP3    H224678   6.634   4.175  15.973  0.2815 -0.5110  0.6978
 1063TIP3   OH224679   0.417   0.380  11.682 -0.2518 -0.1248  0.6064
 1063TIP3    H124680   0.338   0.417  11.721 -0.3209  1.1001 -0.6613
 1063TIP3    H224681   0.489   0.422  11.728 -0.3274 -1.1584  1.6862
 1064TIP3   OH224682   0.403   1.110   4.003 -0.0373  0.5213 -0.1674
 1064TIP3    H124683   0.325   1.152   4.039  0.0106  0.3073  0.1920
 1064TIP3    H224684   0.459   1.182   3.974 -0.5387  0.6686 -0.7924
 1065TIP3   OH224685   3.275   1.684  13.129  0.4543 -0.4425  0.1726
 1065TIP3    H124686   3.220   1.612  13.099  0.7404 -0.5865 -0.0186
 1065TIP3    H224687   3.298   1.662  13.219 -2.1633  1.0438  1.2762
 1066TIP3   OH224688   6.590   3.117  15.832  0.3188  0.2755 -0.0718
 1066TIP3    H124689   6.639   3.108  15.750 -0.0437 -0.1804 -0.2403
 1066TIP3    H224690   6.585   3.211  15.846  0.8092  0.3410 -0.3169
 1067TIP3   OH224691   4.842   2.561  16.045  0.1057  0.2667 -0.3130
 1067TIP3    H124692   4.822   2.515  16.127  2.2290  0.2924  0.2252
 1067TIP3    H224693   4.880   2.644  16.072 -0.0671  0.6923 -1.3396
 1068TIP3   OH224694   2.714   0.035   2.644 -0.1135 -0.1149 -0.0531
 1068TIP3    H124695   2.763  -0.032   2.693 -0.9819 -1.0918 -0.5051
 1068TIP3    H224696   2.707  -0.001   2.556  0.6529  1.2306 -0.6811
 1069TIP3   OH224697   1.421   2.522  14.918  0.4064 -0.3928 -0.1893
 1069TIP3    H124698   1.341   2.575  14.909 -0.5154 -2.1252 -2.6203
 1069TIP3    H224699   1.405   2.470  14.996 -0.6874 -0.4670 -0.4554
 1070TIP3   OH224700   2.124   2.891   5.130 -0.3075 -0.4300  0.0125
 1070TIP3    H124701   2.197   2.877   5.191  0.0031  0.4311 -0.1441
 1070TIP3    H224702   2.128   2.816   5.070 -1.0772 -1.6627  1.4935
 1071TIP3   OH224703   0.656   2.689   2.004 -0.4741  0.2540 -0.1616
 1071TIP3    H124704   0.699   2.728   2.079 -0.4905  0.1511 -0.0993
 1071TIP3    H224705   0.573   2.737   1.996  0.0708  1.1013 -0.8609
 1072TIP3   OH224706   2.039   0.741   3.414  0.0230 -0.7007 -0.6769
 1072TIP3    H124707   1.969   0.745   3.480  1.5332  1.7821  0.8567
 1072TIP3    H224708   2.093   0.667   3.442 -0.2044 -0.6300 -0.0382
 1073TIP3   OH224709   5.403   0.646  13.432 -0.2064 -0.1522  0.2072
 1073TIP3    H124710   5.396   0.714  13.499  0.0288 -0.2725  0.3522
 1073TIP3    H224711   5.315   0.608  13.428 -0.7869  1.2520 -1.0322
 1074TIP3   OH224712   2.495   5.666  12.714 -0.2397  0.0594 -0.2363
 1074TIP3    H124713   2.584   5.695  12.736 -0.1391 -0.4502  0.0295
 1074TIP3    H224714   2.500   5.640  12.622 -0.7109  2.3968 -0.9602
 1075TIP3   OH224715   0.936   1.148   1.031  0.2850 -0.6840 -0.0575
 1075TIP3    H124716   0.877   1.084   0.989 -0.7589  0.7800 -0.8766
 1075TIP3    H224717   0.895   1.166   1.116 -0.0962 -0.1670 -0.3493
 1076TIP3   OH224718   2.973   3.825  13.141  0.0430  0.0458 -0.1731
 1076TIP3    H124719   2.879   3.806  13.137  0.1878 -0.5408 -0.7627
 1076TIP3    H224720   2.994   3.861  13.056  0.2685  0.5801  0.1095
 1077TIP3   OH224721   0.457   3.629  15.165 -0.3557  0.4734  0.0402
 1077TIP3    H124722   0.514   3.696  15.128  0.5605 -0.8831 -1.0792
 1077TIP3    H224723   0.381   3.628  15.106  0.8743 -1.3343 -1.5924
 1078TIP3   OH224724   4.976   4.861  12.341  0.6038 -0.5354  0.7014
 1078TIP3    H124725   4.957   4.780  12.294  0.1304 -0.5852  0.9705
 1078TIP3    H224726   4.946   4.930  12.283  0.3226 -0.5845  0.7848
 1079TIP3   OH224727   5.171   4.937   0.823  0.0621 -0.4487  0.4248
 1079TIP3    H124728   5.085   4.972   0.800  0.3687 -0.3973 -0.6951
 1079TIP3    H224729   5.179   4.952   0.917 -1.3392 -0.8685  0.6212
 1080TIP3   OH224730   3.232   4.628   0.713 -0.3455  0.0158  0.0106
 1080TIP3    H124731   3.181   4.616   0.633 -1.0978  0.2684  0.4561
 1080TIP3    H224732   3.249   4.722   0.717 -0.3379  0.0075  0.1725
 1081TIP3   OH224733   5.381   0.049  13.005 -0.2512  0.0741 -0.0944
 1081TIP3    H124734   5.352   0.023  12.918 -0.4897  0.7473 -0.2198
 1081TIP3    H224735   5.414   0.139  12.993 -1.6500  0.7180  0.7921
 1082TIP3   OH224736   6.457   2.045  12.566 -0.0698 -0.6218  0.5821
 1082TIP3    H124737   6.432   2.025  12.475  0.9596  1.4320 -0.1966
 1082TIP3    H224738   6.375   2.064  12.610 -0.5360 -1.0754 -0.0812
 1083TIP3   OH224739   0.286   1.256  11.132  0.0965  0.3255 -0.1241
 1083TIP3    H124740   0.313   1.345  11.154  0.8050  0.0204  0.2193
 1083TIP3    H224741   0.283   1.255  11.036  1.8669  0.1934 -0.1958
 1084TIP3   OH224742   2.693   0.204   3.263 -0.5546  0.5629 -0.0190
 1084TIP3    H124743   2.634   0.160   3.202  0.1769 -2.7759  1.5668
 1084TIP3    H224744   2.639   0.219   3.341  0.0822 -0.5008  0.6320
 1085TIP3   OH224745   2.249   5.955   2.022 -0.5020  0.4959  0.1346
 1085TIP3    H124746   2.221   6.035   2.066 -1.2020  0.6069 -0.5037
 1085TIP3    H224747   2.303   5.910   2.087  0.6994  1.9321  0.1580
 1086TIP3   OH224748   0.761   2.957   0.676 -0.3338 -0.3616  0.4110
 1086TIP3    H124749   0.734   3.004   0.598  0.1082 -0.1686  0.3726
 1086TIP3    H224750   0.785   2.870   0.645 -0.1279 -0.2745  0.3320
 1087TIP3   OH224751   5.810   0.702  15.185  0.2138 -0.0033  0.2047
 1087TIP3    H124752   5.801   0.734  15.095  1.4656 -0.1394  0.0294
 1087TIP3    H224753   5.842   0.612  15.175 -2.3666 -1.0519  0.7201
 1088TIP3   OH224754   4.086   2.051  16.228  0.2238  0.2151  0.1381
 1088TIP3    H124755   4.114   1.992  16.159 -0.4925  0.3877 -0.3171
 1088TIP3    H224756   3.991   2.056  16.217  0.2259  1.0581  0.4796
 1089TIP3   OH224757   1.111   5.156  14.267 -0.3586  0.1820  0.0580
 1089TIP3    H124758   1.025   5.171  14.229  0.5211  1.5037 -1.4543
 1089TIP3    H224759   1.123   5.061  14.263 -2.9107 -0.3365  2.9096
 1090TIP3   OH224760   5.691   6.292  11.759 -0.6083 -0.0970 -0.3192
 1090TIP3    H124761   5.670   6.366  11.817  0.0305  0.4071 -0.7253
 1090TIP3    H224762   5.765   6.323  11.708 -1.1501 -0.5632 -1.3839
 1091TIP3   OH224763   1.725   3.755   2.924  0.0633 -0.2576 -0.6755
 1091TIP3    H124764   1.804   3.712   2.957 -0.2013 -0.5863 -0.4616
 1091TIP3    H224765   1.654   3.696   2.949 -0.3137  0.3329 -0.3297
 1092TIP3   OH224766   0.486   2.236   0.964 -0.5480 -0.2833  0.0089
 1092TIP3    H124767   0.416   2.272   1.019  1.8042  0.2705  2.7206
 1092TIP3    H224768   0.529   2.313   0.927  1.4817 -0.4151  2.0140
 1093TIP3   OH224769   4.449   3.634  13.496 -0.2525  0.1207  0.2828
 1093TIP3    H124770   4.422   3.579  13.422 -0.6072 -0.1782  0.6299
 1093TIP3    H224771   4.384   3.705  13.498 -0.3030  0.0715  0.3745
 1094TIP3   OH224772   6.707   2.973  11.681 -0.0940 -0.5057  0.2653
 1094TIP3    H124773   6.651   2.995  11.607 -0.7425 -1.6022  0.4347
 1094TIP3    H224774   6.713   2.878  11.680  0.1392 -0.5147  1.4441
 1095TIP3   OH224775   5.709   2.559  16.867 -1.0222 -0.0226  0.0440
 1095TIP3    H124776   5.789   2.605  16.895 -0.6061 -0.2624 -0.7357
 1095TIP3    H224777   5.662   2.624  16.815 -0.1963 -0.6175 -1.4779
 1096TIP3   OH224778   5.264   1.691   6.527  0.0981 -0.1323  0.4645
 1096TIP3    H124779   5.304   1.737   6.601  0.1831  0.4561  0.0598
 1096TIP3    H224780   5.180   1.659   6.560 -0.2031  0.7845  0.5956
 1097TIP3   OH224781   3.384   2.906  17.050  1.0158 -0.3341 -0.5848
 1097TIP3    H124782   3.414   2.993  17.077 -1.7976  0.4237  0.2151
 1097TIP3    H224783   3.366   2.915  16.956  1.1101 -0.1856 -0.5894
 1098TIP3   OH224784   4.721   1.996   3.451  0.1234  0.5872  0.0125
 1098TIP3    H124785   4.770   2.007   3.533  0.6927  1.5081 -0.4412
 1098TIP3    H224786   4.699   2.085   3.424  0.4530  0.3366 -1.1306
 1099TIP3   OH224787   3.802   4.713   5.293  0.0416 -0.0407 -0.1243
 1099TIP3    H124788   3.820   4.803   5.321 -1.9257  0.1958  0.4276
 1099TIP3    H224789   3.709   4.700   5.313  0.1185 -1.9232 -0.9538
 1100TIP3   OH224790   4.767   4.412  15.366 -0.0848  0.1128 -0.1227
 1100TIP3    H124791   4.686   4.381  15.326 -1.0307 -0.7057  2.2831
 1100TIP3    H224792   4.790   4.343  15.429  1.9250  0.8118 -0.0607
 1101TIP3   OH224793   2.154   0.311  11.681  0.6572  0.4153  0.1867
 1101TIP3    H124794   2.099   0.360  11.742  1.1094  0.6767  0.3952
 1101TIP3    H224795   2.215   0.263  11.738 -0.9966 -1.8799  0.0551
 1102TIP3   OH224796   0.600   1.761  11.973  0.2943 -0.0235 -0.0950
 1102TIP3    H124797   0.593   1.774  11.878 -1.3054 -2.3762 -0.3422
 1102TIP3    H224798   0.516   1.792  12.008  0.5845  0.1221  0.4851
 1103TIP3   OH224799   2.654   1.776  16.436 -0.0323 -0.0918  0.1476
 1103TIP3    H124800   2.737   1.788  16.482 -0.2246 -0.1164  0.5034
 1103TIP3    H224801   2.676   1.789  16.344  0.1314  1.1309  0.3507
 1104TIP3   OH224802   0.728   4.898  17.089 -0.6035 -0.1829 -0.7687
 1104TIP3    H124803   0.651   4.948  17.063  0.1177  0.3312 -1.9858
 1104TIP3    H224804   0.695   4.831  17.148 -1.8581  0.5499 -0.6268
 1105TIP3   OH224805   0.639   4.170  11.588  0.2234 -0.3280  0.1399
 1105TIP3    H124806   0.676   4.242  11.638  3.8196 -0.7325 -1.7948
 1105TIP3    H224807   0.679   4.091  11.624 -1.5090 -1.1458  0.3530
 1106TIP3   OH224808   6.233   0.850   2.167 -0.3231 -0.0092 -0.2213
 1106TIP3    H124809   6.275   0.838   2.252  0.0608  1.7986 -0.1221
 1106TIP3    H224810   6.190   0.767   2.149  1.4250 -1.1474  0.7248
 1107TIP3   OH224811   2.112   1.353  14.689  0.6510 -0.6297 -0.3004
 1107TIP3    H124812   2.127   1.262  14.664 -0.2129 -0.7475 -0.4144
 1107TIP3    H224813   2.136   1.403  14.611  0.6188 -0.8036 -0.4254
 1108TIP3   OH224814   1.324   3.068   4.862  0.6107 -0.2067 -0.8453
 1108TIP3    H124815   1.305   3.123   4.938  1.8452  0.8962 -1.3066
 1108TIP3    H224816   1.268   2.992   4.873  2.5896 -1.2911  2.5233
 1109TIP3   OH224817   0.158   2.673   1.483 -0.1693  0.2224 -0.1622
 1109TIP3    H124818   0.126   2.650   1.571 -1.2189  0.2290 -0.5377
 1109TIP3    H224819   0.163   2.589   1.437  0.3009  0.2304 -0.1312
 1110TIP3   OH224820   4.666   2.194   2.995 -0.9539  0.1057  0.0553
 1110TIP3    H124821   4.722   2.152   3.061 -0.1490  2.7215  1.0874
 1110TIP3    H224822   4.659   2.129   2.925  0.3240 -1.7064  1.5556
 1111TIP3   OH224823   2.564   6.425   0.264 -0.2591  0.3979 -0.9883
 1111TIP3    H124824   2.534   6.489   0.199 -1.3580 -0.8931 -1.7833
 1111TIP3    H224825   2.489   6.411   0.321  0.0954  0.1038 -0.5916
 1112TIP3   OH224826   5.981   2.093  16.128  0.1988  0.4181  0.7830
 1112TIP3    H124827   5.942   2.033  16.192  0.3820  1.1215  1.5639
 1112TIP3    H224828   5.906   2.138  16.089  0.1807  1.3793  1.8949
 1113TIP3   OH224829   0.626   5.465  14.325 -0.4940  0.1948 -0.4148
 1113TIP3    H124830   0.535   5.448  14.301 -0.8454  0.6202  0.5637
 1113TIP3    H224831   0.620   5.506  14.411  0.5386  1.7876 -1.0817
 1114TIP3   OH224832   2.773   3.063   3.034  0.3916  0.5373 -0.1777
 1114TIP3    H124833   2.865   3.037   3.040  0.3976  0.6310  0.1029
 1114TIP3    H224834   2.736   3.042   3.120  0.1831  0.6273 -0.2460
 1115TIP3   OH224835   5.596   6.457  15.535  0.6480  0.4195  0.0349
 1115TIP3    H124836   5.588   6.394  15.464  0.2284 -1.0020  1.3076
 1115TIP3    H224837   5.614   6.541  15.492  0.8567 -0.5022 -1.6954
 1116TIP3   OH224838   1.972   6.616   4.258  0.2095  0.4030  0.6585
 1116TIP3    H124839   1.934   6.576   4.336 -1.9011  1.4620  0.2114
 1116TIP3    H224840   1.941   6.706   4.260 -0.6856  0.1833 -1.8888
 1117TIP3   OH224841   6.754   1.951  13.614  0.3520 -0.6561  0.0454
 1117TIP3    H124842   6.794   2.037  13.623 -0.2014 -0.3689 -0.2905
 1117TIP3    H224843   6.789   1.901  13.688  0.8961 -0.2353  0.0767
 1118TIP3   OH224844   4.030   5.283  13.471 -0.3640 -0.1498  0.2335
 1118TIP3    H124845   4.030   5.278  13.566  1.2042  1.0278  0.3185
 1118TIP3    H224846   4.047   5.193  13.441 -0.1463 -0.3860  1.0724
 1119TIP3   OH224847   5.523   6.089  14.929 -1.1895 -0.1361  0.4782
 1119TIP3    H124848   5.615   6.074  14.950 -0.9324 -0.1713 -0.6627
 1119TIP3    H224849   5.524   6.160  14.865 -1.8994 -0.8059 -0.2831
 1120TIP3   OH224850   2.401   4.914   3.703 -0.6185  0.2882  0.2795
 1120TIP3    H124851   2.419   4.832   3.749  0.7331  0.1833 -0.4090
 1120TIP3    H224852   2.317   4.943   3.739 -1.6454 -1.9222 -0.2120
 1121TIP3   OH224853   5.969   4.278  15.186 -0.0399  0.4134 -0.1499
 1121TIP3    H124854   6.023   4.357  15.183 -0.3200  0.6819  1.6782
 1121TIP3    H224855   5.880   4.310  15.199 -0.0216 -0.2396  1.6799
 1122TIP3   OH224856   6.700   5.976   2.579  0.1666  0.2048  0.1605
 1122TIP3    H124857   6.619   5.984   2.530 -0.8039  1.5691  1.9329
 1122TIP3    H224858   6.763   6.028   2.530 -0.1805 -0.3337 -0.8730
 1123TIP3   OH224859   2.007   1.170  16.301  0.0143  0.4591  0.1512
 1123TIP3    H124860   2.068   1.241  16.279  1.8922 -1.3950 -0.8180
 1123TIP3    H224861   2.031   1.099  16.242 -3.1733 -0.3321 -0.2949
 1124TIP3   OH224862   2.493   5.033  14.088 -0.0728  0.0048 -0.7795
 1124TIP3    H124863   2.423   5.093  14.063  1.0637  0.9199 -1.8708
 1124TIP3    H224864   2.565   5.055  14.028  0.7536 -1.6693 -0.4218
 1125TIP3   OH224865   4.966   0.149  12.552  0.3385 -0.0397 -0.3349
 1125TIP3    H124866   5.031   0.136  12.483  0.1116 -1.3835 -0.3052
 1125TIP3    H224867   4.902   0.209  12.514  1.8755  1.7729 -0.1649
 1126TIP3   OH224868   1.307   5.012  11.746 -0.3121  0.1305  0.8911
 1126TIP3    H124869   1.284   4.943  11.683  3.5498  0.0308 -0.5060
 1126TIP3    H224870   1.291   4.973  11.832 -4.9527  0.0174  0.1358
 1127TIP3   OH224871   2.289   4.097   3.190 -0.1510 -0.2365 -0.5236
 1127TIP3    H124872   2.239   4.163   3.141  0.6548  0.6148 -0.2151
 1127TIP3    H224873   2.224   4.057   3.249 -0.4263  1.0146  0.0355
 1128TIP3   OH224874   4.771   0.579  11.353 -0.0718 -0.0984 -0.1758
 1128TIP3    H124875   4.782   0.526  11.432  0.6018  0.1806 -0.0859
 1128TIP3    H224876   4.839   0.548  11.293 -0.0381  0.2802 -0.3331
 1129TIP3   OH224877   5.641   1.262   0.351  0.4883  0.0342 -0.2519
 1129TIP3    H124878   5.574   1.274   0.283  0.2686  1.0452  0.1336
 1129TIP3    H224879   5.692   1.187   0.321 -0.9036 -0.8533 -0.4849
 1130TIP3   OH224880   5.756   3.393   2.823  0.1325 -0.6896 -0.6977
 1130TIP3    H124881   5.736   3.461   2.759 -0.9586  0.7409  1.0996
 1130TIP3    H224882   5.671   3.352   2.842  0.4011 -0.9091  0.0487
 1131TIP3   OH224883   4.793   1.762   4.576  1.1068 -0.5562  0.7485
 1131TIP3    H124884   4.824   1.678   4.612 -0.4337 -1.5339 -0.1522
 1131TIP3    H224885   4.783   1.745   4.482  1.7397  0.9554  0.3860
 1132TIP3   OH224886   0.647   6.211   0.023 -0.1319 -0.0712  0.3802
 1132TIP3    H124887   0.656   6.116   0.033  0.1080 -0.0986 -0.0869
 1132TIP3    H224888   0.626   6.243   0.111  2.1510 -0.2931  1.0336
 1133TIP3   OH224889   0.783   1.975   3.601 -0.2164  0.6350  0.1114
 1133TIP3    H124890   0.806   1.952   3.511 -0.0024 -0.6186  0.4801
 1133TIP3    H224891   0.822   2.061   3.615  1.0778  0.1514 -0.4918
 1134TIP3   OH224892   0.336   2.181   0.094  0.3972  0.3796  0.5634
 1134TIP3    H124893   0.269   2.190   0.026  0.1995  0.8930  0.8244
 1134TIP3    H224894   0.409   2.136   0.051 -0.1910 -0.3637  0.3295
 1135TIP3   OH224895   6.446   3.065   1.856 -0.2153  0.2415  0.1212
 1135TIP3    H124896   6.371   3.122   1.871  0.0606  0.5323  0.3864
 1135TIP3    H224897   6.502   3.114   1.797  0.0482  0.2673  0.3924
 1136TIP3   OH224898   1.477   5.210   0.144  0.6059 -0.0678  0.2699
 1136TIP3    H124899   1.474   5.198   0.049 -1.7946 -2.1064  0.5478
 1136TIP3    H224900   1.451   5.301   0.157 -0.3650 -0.1439 -0.9772
 1137TIP3   OH224901   0.336   4.736  12.718 -0.0863  0.3851  0.9722
 1137TIP3    H124902   0.322   4.827  12.744  0.0955  0.8350 -0.4378
 1137TIP3    H224903   0.268   4.688  12.764 -0.4371  1.2898  1.4247
 1138TIP3   OH224904   0.186   2.395   5.331 -0.3912  0.8109 -0.3159
 1138TIP3    H124905   0.254   2.443   5.378  0.2231  1.4705 -1.8480
 1138TIP3    H224906   0.126   2.463   5.300  0.2804  0.5888 -2.1759
 1139TIP3   OH224907   2.665   1.947  16.746 -0.0625  0.4408  0.2102
 1139TIP3    H124908   2.641   1.885  16.815 -0.9449  1.7055  1.0491
 1139TIP3    H224909   2.749   1.914  16.712 -0.2742 -0.9195  0.9781
 1140TIP3   OH224910   5.950   0.670   0.274 -0.0777 -0.2822  0.7617
 1140TIP3    H124911   5.966   0.756   0.234 -1.8472  0.1145  0.8745
 1140TIP3    H224912   5.964   0.608   0.202  0.3738  0.1442  0.4699
 1141TIP3   OH224913   5.209   1.703   5.174 -0.5303  0.5586 -0.6615
 1141TIP3    H124914   5.247   1.677   5.090  2.3118 -0.6313  0.9430
 1141TIP3    H224915   5.161   1.625   5.203 -1.5945  1.0029 -1.2000
 1142TIP3   OH224916   3.123   4.031  10.907 -0.0210  0.7606  0.0858
 1142TIP3    H124917   3.157   4.046  10.995  0.3151 -1.2267  0.3195
 1142TIP3    H224918   3.087   4.115  10.880  0.5215  1.5664  1.8424
 1143TIP3   OH224919   5.412   5.977   6.362  0.5217  0.0135  0.0474
 1143TIP3    H124920   5.415   6.068   6.391  1.7382 -0.5378  1.7958
 1143TIP3    H224921   5.482   5.934   6.413 -0.9168 -2.1548  0.2551
 1144TIP3   OH224922   6.374   1.233   6.753  0.2277  0.1007 -0.0361
 1144TIP3    H124923   6.461   1.253   6.719 -0.0226  0.2034 -0.6282
 1144TIP3    H224924   6.348   1.153   6.706 -0.9015  1.2998 -1.4850
 1145TIP3   OH224925   6.575   0.798  14.630 -0.4404 -0.0945  0.2675
 1145TIP3    H124926   6.565   0.759  14.543  0.0625  0.1376  0.1022
 1145TIP3    H224927   6.489   0.791  14.670 -0.6189 -0.4024 -0.1690
 1146TIP3   OH224928   5.105   1.921   2.222 -0.4627  0.4259 -0.6951
 1146TIP3    H124929   5.081   1.927   2.315  1.1782  3.3477 -0.3847
 1146TIP3    H224930   5.040   1.975   2.178  0.7629  1.8475 -0.8005
 1147TIP3   OH224931   5.326   0.980  11.582  0.3788 -0.2683 -0.5096
 1147TIP3    H124932   5.332   0.911  11.515 -0.9811 -2.0187  1.1266
 1147TIP3    H224933   5.415   1.012  11.591  1.3536 -2.9253 -0.1916
 1148TIP3   OH224934   2.285   3.157   1.246  0.6237 -0.0449 -0.1483
 1148TIP3    H124935   2.267   3.207   1.166 -0.8423 -0.4215 -0.0612
 1148TIP3    H224936   2.364   3.198   1.282  1.0593  0.3935 -1.5641
 1149TIP3   OH224937   2.313   1.748   2.247 -0.0742  0.4850  0.0420
 1149TIP3    H124938   2.351   1.704   2.171  0.8626  0.6417  0.4157
 1149TIP3    H224939   2.230   1.702   2.262 -0.0867  0.2044 -0.8333
 1150TIP3   OH224940   4.590   1.293  15.451 -0.1557 -0.3554 -0.3400
 1150TIP3    H124941   4.562   1.369  15.502  0.5964 -0.4641  0.2381
 1150TIP3    H224942   4.535   1.296  15.373 -0.0139  0.8700 -0.4048
 1151TIP3   OH224943   6.677   3.031   4.159  0.4449  0.4155  0.1694
 1151TIP3    H124944   6.670   3.071   4.073  0.7745  3.6994  1.6012
 1151TIP3    H224945   6.586   3.020   4.187  0.3255 -1.1063 -0.7583
 1152TIP3   OH224946   5.811   5.282   2.127 -0.4975 -0.0516 -0.0560
 1152TIP3    H124947   5.723   5.244   2.132 -0.7913  0.6479  0.1359
 1152TIP3    H224948   5.837   5.294   2.218 -0.2423 -0.1727 -0.1151
 1153TIP3   OH224949   6.557   6.699  14.881 -0.3489 -0.0135 -0.2970
 1153TIP3    H124950   6.467   6.682  14.908 -0.4825  0.7748 -0.2505
 1153TIP3    H224951   6.562   6.794  14.872  0.5334 -0.0450 -0.1143
 1154TIP3   OH224952   5.080   1.084   2.000 -0.2622 -0.3793  0.4814
 1154TIP3    H124953   5.133   1.020   1.952 -2.0863 -1.2392 -0.4779
 1154TIP3    H224954   5.001   1.035   2.024 -0.5792  0.8344  1.9681
 1155TIP3   OH224955   5.121   5.778  13.110  0.2103 -0.2686 -0.3308
 1155TIP3    H124956   5.044   5.818  13.070  0.8889  1.4476  0.0270
 1155TIP3    H224957   5.194   5.835  13.084  1.2980 -1.6515 -0.3559
 1156TIP3   OH224958   2.740   6.358  16.927  0.1154 -0.1004 -0.2758
 1156TIP3    H124959   2.812   6.307  16.965 -1.4023 -1.1214  1.3331
 1156TIP3    H224960   2.714   6.309  16.849  0.9762  0.1173 -0.6962
 1157TIP3   OH224961   1.614   0.131   5.515 -0.0088 -0.2504  0.7332
 1157TIP3    H124962   1.573   0.094   5.437 -1.3935  0.4213  1.1296
 1157TIP3    H224963   1.680   0.066   5.541  1.9475  0.4558 -2.1914
 1158TIP3   OH224964   0.414   2.172  11.527  0.3346  0.1413 -0.2824
 1158TIP3    H124965   0.389   2.082  11.547  2.0109 -0.0150  1.1897
 1158TIP3    H224966   0.497   2.165  11.481 -0.0051  0.9046 -1.0405
 1159TIP3   OH224967   0.824   3.398  16.936  0.6733  0.4964 -0.1518
 1159TIP3    H124968   0.792   3.488  16.929 -0.4370  0.1320  0.2098
 1159TIP3    H224969   0.747   3.343  16.925  1.3313 -0.4198 -0.2964
 1160TIP3   OH224970   2.744   1.687  15.688 -0.1442 -0.4261 -0.1414
 1160TIP3    H124971   2.747   1.756  15.621 -1.5012  1.1604  1.3768
 1160TIP3    H224972   2.750   1.606  15.638 -1.4293  0.7090 -2.2452
 1161TIP3   OH224973   5.359   5.447   2.916  0.1300  0.4547 -0.3301
 1161TIP3    H124974   5.407   5.525   2.944  1.0652  0.9656 -3.1895
 1161TIP3    H224975   5.427   5.381   2.903 -0.3504  0.0499 -0.7718
 1162TIP3   OH224976   3.989   0.052   2.102 -0.0634  0.0764 -0.0983
 1162TIP3    H124977   4.058   0.058   2.168 -0.8268  0.5222  0.6871
 1162TIP3    H224978   3.991  -0.039   2.073  1.3808  0.2805 -0.6846
 1163TIP3   OH224979   6.006   3.784  12.081  0.4998  0.0878 -0.1485
 1163TIP3    H124980   5.936   3.751  12.136 -0.3691  1.1088 -0.6156
 1163TIP3    H224981   6.065   3.710  12.069 -0.3863 -0.7209  0.4303
 1164TIP3   OH224982   3.252   2.567   6.268 -0.2901 -0.9644  0.3724
 1164TIP3    H124983   3.315   2.640   6.268  0.1728 -1.3163 -1.9970
 1164TIP3    H224984   3.307   2.489   6.274 -0.6697 -1.1897  0.9172
 1165TIP3   OH224985   2.524   1.897  12.035  0.0939 -0.1861  0.4894
 1165TIP3    H124986   2.601   1.849  12.064 -1.5887 -1.9092  2.1932
 1165TIP3    H224987   2.486   1.842  11.967 -0.5620 -0.1074  0.7989
 1166TIP3   OH224988   1.461   1.123  15.983 -0.2479  0.5924 -0.0704
 1166TIP3    H124989   1.539   1.152  15.935 -0.9440  1.8648 -0.4588
 1166TIP3    H224990   1.485   1.133  16.075 -0.6278  2.9307 -0.1844
 1167TIP3   OH224991   4.962   3.984   1.160 -0.6502 -0.4618  0.3730
 1167TIP3    H124992   4.976   4.057   1.101 -2.3310 -0.5775 -0.1879
 1167TIP3    H224993   5.045   3.937   1.160  0.6215  1.7290  1.1675
 1168TIP3   OH224994   6.817   3.180  11.210 -0.2468 -0.6941  0.1926
 1168TIP3    H124995   6.771   3.106  11.169  0.3341 -0.9955  0.0696
 1168TIP3    H224996   6.850   3.231  11.136 -2.0671  0.6180  0.2513
 1169TIP3   OH224997   6.384   4.968   3.665  0.2365  0.4119 -0.3139
 1169TIP3    H124998   6.460   5.016   3.698  1.0757 -1.2174  0.2281
 1169TIP3    H224999   6.416   4.926   3.585  0.4666 -1.6754  0.8300
 1170TIP3   OH225000   5.925   6.746  15.287  0.5616  0.4916  0.4577
 1170TIP3    H125001   5.969   6.685  15.228 -1.9214  0.4103 -1.3587
 1170TIP3    H225002   5.988   6.817  15.299  1.8334 -0.3981 -0.7582
 1171TIP3   OH225003   2.630   4.027   6.193 -0.4466  0.1599  0.5973
 1171TIP3    H125004   2.702   4.082   6.224  0.4641 -0.9735  0.5265
 1171TIP3    H225005   2.585   3.999   6.273  0.2356 -0.5238  0.7452
 1172TIP3   OH225006   2.664   4.558   3.785 -0.2325 -0.4095  0.4232
 1172TIP3    H125007   2.625   4.478   3.822 -0.1903 -0.2281  0.8626
 1172TIP3    H225008   2.589   4.612   3.760 -0.2614 -0.5220  0.2627
 1173TIP3   OH225009   2.140   1.644   0.969  0.0217  0.4092 -0.1682
 1173TIP3    H125010   2.071   1.710   0.971 -0.7922 -0.4428  0.9753
 1173TIP3    H225011   2.182   1.650   1.055  0.1202 -0.3526 -0.1578
 1174TIP3   OH225012   4.020   1.475  13.132  0.2694  0.4071 -0.6778
 1174TIP3    H125013   4.064   1.422  13.066  0.4619  1.5507 -1.4861
 1174TIP3    H225014   3.977   1.412  13.189  0.8542 -0.6275 -1.3654
 1175TIP3   OH225015   0.641   1.446   3.756  0.2071 -0.1712 -0.0132
 1175TIP3    H125016   0.693   1.526   3.767  0.5008 -0.2792 -0.6243
 1175TIP3    H225017   0.581   1.447   3.831  0.1847  0.6391 -0.0327
 1176TIP3   OH225018   5.998   2.140  11.010  0.4721 -0.1602  0.4160
 1176TIP3    H125019   5.992   2.057  11.057 -0.9157 -0.6117 -0.5069
 1176TIP3    H225020   5.917   2.186  11.031 -0.9410 -1.0753 -2.7717
 1177TIP3   OH225021   6.653   0.121  15.836  0.1976  0.1491  0.1021
 1177TIP3    H125022   6.679   0.177  15.910  3.0707 -2.5372  1.2171
 1177TIP3    H225023   6.735   0.089  15.800 -1.3174 -1.4004 -2.0940
 1178TIP3   OH225024   0.120   5.714   5.643  0.2722 -0.2818  0.2158
 1178TIP3    H125025   0.149   5.636   5.690  1.3804 -0.2932 -0.4741
 1178TIP3    H225026   0.081   5.769   5.711  0.7386 -0.8364  0.9493
 1179TIP3   OH225027   6.655   4.799   6.021 -0.7665  0.2325  0.3720
 1179TIP3    H125028   6.668   4.776   6.114  1.7299 -0.7280 -0.1596
 1179TIP3    H225029   6.668   4.894   6.019 -1.3519  0.3367  1.0820
 1180TIP3   OH225030   4.644   4.165  15.795 -0.9387  0.1486  0.3617
 1180TIP3    H125031   4.613   4.079  15.824 -0.6658 -0.8395 -2.1386
 1180TIP3    H225032   4.566   4.219  15.792 -1.3491 -0.4329  0.5091
 1181TIP3   OH225033   3.285   2.258  13.796  0.1646 -0.4978 -0.3084
 1181TIP3    H125034   3.281   2.347  13.832 -1.4666 -0.7989  0.3147
 1181TIP3    H225035   3.220   2.258  13.726  2.1960 -0.3906 -2.2530
 1182TIP3   OH225036   4.575   2.715   2.900 -0.0623  0.0828 -0.1848
 1182TIP3    H125037   4.595   2.799   2.940  2.8791 -0.3591 -0.5773
 1182TIP3    H225038   4.602   2.650   2.964 -1.9813 -0.6081 -0.0274
 1183TIP3   OH225039   5.432   4.579  13.217 -0.2638 -0.2494  0.4936
 1183TIP3    H125040   5.466   4.629  13.291 -0.6769 -0.3569  0.7585
 1183TIP3    H225041   5.449   4.635  13.141 -0.4056  0.1387  0.7439
 1184TIP3   OH225042   2.138   0.216  13.626 -0.3461  0.2852 -0.2922
 1184TIP3    H125043   2.160   0.155  13.696 -0.4101  0.9874  0.3467
 1184TIP3    H225044   2.185   0.296  13.648  1.2035 -0.0994 -2.1087
 1185TIP3   OH225045   0.660   3.233   2.771  0.2908  0.1520 -0.6410
 1185TIP3    H125046   0.647   3.218   2.865 -1.3832  1.2793 -0.6802
 1185TIP3    H225047   0.683   3.326   2.765  1.3260 -0.1263 -1.2850
 1186TIP3   OH225048   3.681   2.925  12.942  0.0531  0.4003  0.0716
 1186TIP3    H125049   3.751   2.979  12.979 -0.0697  0.7245 -0.1656
 1186TIP3    H225050   3.696   2.929  12.847 -0.1292  0.2560  0.0364
 1187TIP3   OH225051   1.862   6.252  13.774 -0.1220 -0.2584  0.0222
 1187TIP3    H125052   1.936   6.308  13.752  0.1881 -1.6126 -2.5811
 1187TIP3    H225053   1.793   6.276  13.712  0.2358 -3.1174 -1.5677
 1188TIP3   OH225054   6.688   1.546  13.067 -0.6115 -0.6871 -0.2574
 1188TIP3    H125055   6.766   1.600  13.071 -1.4705  0.4923  0.7407
 1188TIP3    H225056   6.702   1.477  13.131  0.1734 -1.2526 -1.0239
 1189TIP3   OH225057   0.562   5.730   5.010  0.0626  0.2587  0.2815
 1189TIP3    H125058   0.516   5.703   5.089 -0.8144  0.1883 -0.2451
 1189TIP3    H225059   0.631   5.665   4.997  1.1806  1.1098  1.8262
 1190TIP3   OH225060   5.219   2.297  11.742  0.0131 -0.0336  0.0105
 1190TIP3    H125061   5.214   2.228  11.809  1.5237 -1.7467 -1.5699
 1190TIP3    H225062   5.289   2.355  11.772  0.5131 -0.6553  0.0584
 1191TIP3   OH225063   2.574   1.449   3.401  0.5378 -0.0340 -0.1313
 1191TIP3    H125064   2.595   1.490   3.484  1.3978 -0.1014 -0.3129
 1191TIP3    H225065   2.659   1.436   3.358  0.0152  1.3680 -1.6605
 1192TIP3   OH225066   1.646   0.372  12.177  0.1396  0.5228 -0.1971
 1192TIP3    H125067   1.688   0.437  12.234 -0.1018  1.1206 -0.6833
 1192TIP3    H225068   1.709   0.356  12.107  0.8266 -0.9267  0.7380
 1193TIP3   OH225069   4.981   0.453  11.175  0.3633 -0.1795 -0.7054
 1193TIP3    H125070   5.048   0.521  11.175 -1.4095  1.6415  0.4756
 1193TIP3    H225071   4.944   0.457  11.086  1.1505 -0.5171 -1.0511
 1194TIP3   OH225072   0.177   1.590  15.496  0.3382  0.5590 -0.2774
 1194TIP3    H125073   0.193   1.502  15.530  0.2809  0.0065 -1.6389
 1194TIP3    H225074   0.263   1.633  15.499  0.7327 -0.1352 -1.2184
 1195TIP3   OH225075   5.324   4.355   0.466 -0.6529  0.1938 -0.0591
 1195TIP3    H125076   5.389   4.298   0.424 -0.5835  1.8428 -2.3015
 1195TIP3    H225077   5.244   4.339   0.417 -1.6280 -0.8278  1.8290
 1196TIP3   OH225078   4.389   1.398  12.698  0.3902 -0.0315  0.7822
 1196TIP3    H125079   4.339   1.329  12.741 -0.8076 -0.9439 -2.0064
 1196TIP3    H225080   4.468   1.407  12.751  0.1145 -2.8625  1.7355
 1197TIP3   OH225081   5.260   6.527   2.266  0.1705  0.5921  0.1691
 1197TIP3    H125082   5.270   6.439   2.229 -0.0583 -0.0054  1.5006
 1197TIP3    H225083   5.316   6.583   2.212  1.3474 -0.6085  0.1354
 1198TIP3   OH225084   5.440   6.452   4.646 -0.3365  0.0617  0.0490
 1198TIP3    H125085   5.452   6.379   4.585 -1.6619  0.3181 -0.5359
 1198TIP3    H225086   5.444   6.411   4.732  2.9041 -0.1083 -0.1299
 1199TIP3   OH225087   3.921   1.945   1.182  0.1104  0.0267  0.0998
 1199TIP3    H125088   3.881   1.885   1.245 -2.5356  1.5249 -0.0469
 1199TIP3    H225089   3.924   2.029   1.229 -2.0593  1.2023 -1.7428
 1200TIP3   OH225090   1.408   2.038  16.273 -0.1779  0.3856 -0.0929
 1200TIP3    H125091   1.343   2.072  16.335 -0.9500  0.9888 -1.2197
 1200TIP3    H225092   1.469   1.988  16.327 -1.8646 -0.6043  0.9276
 1201TIP3   OH225093   1.478   5.720  16.297 -0.2813  0.3594  0.0916
 1201TIP3    H125094   1.441   5.646  16.344 -0.7084  0.3543 -0.2432
 1201TIP3    H225095   1.419   5.734  16.223 -1.5386  2.5225  1.4382
 1202TIP3   OH225096   6.248   1.393   6.262  0.1587  0.4733  0.5073
 1202TIP3    H125097   6.310   1.389   6.335 -0.4927  0.6489  1.0738
 1202TIP3    H225098   6.162   1.396   6.304 -0.2501 -0.0369 -0.2791
 1203TIP3   OH225099   6.394   5.250   0.109  0.3482 -0.9106 -0.2700
 1203TIP3    H125100   6.382   5.239   0.204 -0.5583  0.0263 -0.2681
 1203TIP3    H225101   6.451   5.177   0.084  0.2547 -1.4173  0.9252
 1204TIP3   OH225102   5.761   2.664  11.841 -0.1539 -0.2490  0.5312
 1204TIP3    H125103   5.704   2.741  11.831 -1.1287 -0.9890  0.3872
 1204TIP3    H225104   5.707   2.599  11.885 -0.3693 -1.9561 -2.1548
 1205TIP3   OH225105   2.669   1.024  16.750 -0.2179  0.4375  0.5017
 1205TIP3    H125106   2.682   0.997  16.659  2.0859  1.6418  0.4348
 1205TIP3    H225107   2.612   1.101  16.743 -0.6124  0.1154  0.1235
 1206TIP3   OH225108   3.807   5.070  12.320 -0.2345  0.2832 -0.3542
 1206TIP3    H125109   3.731   5.113  12.280 -0.0761  0.6682 -0.2452
 1206TIP3    H225110   3.783   4.978  12.324 -0.4050  0.2944 -0.9982
 1207TIP3   OH225111   4.038   4.571  13.336 -0.1526 -0.3052 -0.0985
 1207TIP3    H125112   4.050   4.594  13.244  0.9558 -3.4780 -0.8243
 1207TIP3    H225113   3.945   4.586  13.353 -0.0866  1.6185 -1.3327
 1208TIP3   OH225114   2.373   2.179   3.442 -0.0457  0.1941  0.1629
 1208TIP3    H125115   2.448   2.128   3.410 -1.2402 -1.8642  0.5529
 1208TIP3    H225116   2.381   2.175   3.537 -2.9734 -3.7054  0.3305
 1209TIP3   OH225117   4.601   6.594  12.957  0.8015 -0.4577 -0.9341
 1209TIP3    H125118   4.653   6.650  12.900  1.0698 -0.9567 -1.1812
 1209TIP3    H225119   4.664   6.559  13.021  0.5203  0.0261 -0.3815
 1210TIP3   OH225120   3.954   0.082  13.684  0.3498 -0.3815 -0.4334
 1210TIP3    H125121   3.966   0.009  13.745 -0.0706  0.1649  0.3047
 1210TIP3    H225122   3.859   0.090  13.675  0.4058 -0.5160 -1.2418
 1211TIP3   OH225123   4.434   5.451   2.278 -0.1639 -0.0430 -0.5932
 1211TIP3    H125124   4.475   5.456   2.365  1.6981 -0.9983 -1.3802
 1211TIP3    H225125   4.363   5.514   2.281 -0.2610 -0.2188  1.7169
 1212TIP3   OH225126   1.190   6.548  13.632 -0.7367  0.2107 -0.1097
 1212TIP3    H125127   1.264   6.495  13.602 -0.9780 -0.7759  0.9750
 1212TIP3    H225128   1.230   6.624  13.674 -0.3274 -0.2253  0.3064
 1213TIP3   OH225129   2.953   1.419   2.753  0.0503 -0.5275  0.3546
 1213TIP3    H125130   2.980   1.510   2.767 -0.6468  0.1999 -2.7134
 1213TIP3    H225131   2.876   1.409   2.810  0.5883  0.5673  1.2962
 1214TIP3   OH225132   2.287   2.623  12.677 -0.5622 -0.0880  0.2485
 1214TIP3    H125133   2.293   2.703  12.625 -0.5705 -0.9182 -1.0633
 1214TIP3    H225134   2.378   2.592  12.683 -0.7728 -0.9719 -0.8676
 1215TIP3   OH225135   3.630   0.950  16.422 -0.1289 -0.0319 -0.3770
 1215TIP3    H125136   3.616   1.001  16.342  1.0226  0.4205 -0.3012
 1215TIP3    H225137   3.543   0.945  16.463 -0.2100  2.2420 -0.1764
 1216TIP3   OH225138   0.307   0.398   2.440 -0.1749 -0.7743  0.3115
 1216TIP3    H125139   0.328   0.491   2.434 -0.4993 -0.7844 -1.4642
 1216TIP3    H225140   0.349   0.360   2.363 -1.6984 -1.7598 -0.0473
 1217TIP3   OH225141   5.834   2.172  13.653  0.2690 -0.1174 -0.2070
 1217TIP3    H125142   5.884   2.221  13.719 -1.7013  2.2644 -0.4478
 1217TIP3    H225143   5.873   2.198  13.569  0.1153 -0.0074 -0.2446
 1218TIP3   OH225144   1.501   1.771   0.031  0.2923  0.4912  0.0456
 1218TIP3    H125145   1.478   1.726   0.112  2.4861 -2.4521 -0.8810
 1218TIP3    H225146   1.446   1.730  -0.036  1.4755 -0.0360 -0.6177
 1219TIP3   OH225147   0.914   6.678   2.313 -0.0253 -0.0909  0.1617
 1219TIP3    H125148   0.837   6.622   2.303 -1.5658  2.2340 -1.3727
 1219TIP3    H225149   0.884   6.753   2.363  1.5692  0.2421  0.6581
 1220TIP3   OH225150   3.958   0.504   3.692  0.1836 -0.3945  0.0317
 1220TIP3    H125151   4.031   0.478   3.748  1.2346  1.0648 -0.6495
 1220TIP3    H225152   3.892   0.435   3.706  1.8817 -2.0256  0.2110
 1221TIP3   OH225153   4.321   0.667  13.124  0.6470 -0.8548  0.3648
 1221TIP3    H125154   4.334   0.614  13.204 -0.6315 -1.1750  0.3733
 1221TIP3    H225155   4.276   0.745  13.154 -2.9242 -2.4751 -0.4655
 1222TIP3   OH225156   2.925   4.897  12.255 -0.3472 -0.0459 -0.1129
 1222TIP3    H125157   2.996   4.877  12.194  1.3335  1.9159  1.1150
 1222TIP3    H225158   2.907   4.990  12.240  0.4346  0.5917  2.6804
 1223TIP3   OH225159   1.673   2.554  12.482  0.0245  0.2354  0.2317
 1223TIP3    H125160   1.732   2.629  12.480  0.4014 -0.0892 -0.8563
 1223TIP3    H225161   1.649   2.539  12.391  0.0930 -1.0917  0.4226
 1224TIP3   OH225162   0.740   0.219   4.052 -0.1283 -0.7549 -0.5836
 1224TIP3    H125163   0.799   0.171   4.109  0.8895  1.8728  0.6643
 1224TIP3    H225164   0.798   0.269   3.993 -1.1047  0.3352 -0.6429
 1225TIP3   OH225165   5.330   4.179   4.900 -0.5519 -0.1047  0.0019
 1225TIP3    H125166   5.359   4.210   4.814 -4.7055  0.7237 -1.1918
 1225TIP3    H225167   5.348   4.253   4.958  2.2529 -0.6569 -0.0813
 1226TIP3   OH225168   6.371   6.286  12.315 -0.8810 -0.1760  0.0245
 1226TIP3    H125169   6.308   6.262  12.383  0.1634  0.7923  1.3741
 1226TIP3    H225170   6.428   6.210  12.308  0.6176  0.6697  2.1755
 1227TIP3   OH225171   3.078   1.785   2.531  0.2889  0.1147  0.0881
 1227TIP3    H125172   3.034   1.751   2.453 -1.3058 -0.9014  1.4066
 1227TIP3    H225173   3.130   1.711   2.562  0.5443  0.3744  0.2767
 1228TIP3   OH225174   1.916   1.809   0.175 -0.3820  0.1184 -0.5785
 1228TIP3    H125175   2.004   1.839   0.199 -0.5680  1.5586 -1.6148
 1228TIP3    H225176   1.872   1.793   0.258  0.7559 -0.3098 -0.0444
 1229TIP3   OH225177   6.667   6.526  13.263  0.5760  0.3834  0.2387
 1229TIP3    H125178   6.608   6.537  13.337 -0.2304  0.8516 -0.4644
 1229TIP3    H225179   6.747   6.573  13.288  0.4987  0.1097  1.0163
 1230TIP3   OH225180   4.823   2.191  12.778 -0.4441 -0.1111 -0.7003
 1230TIP3    H125181   4.887   2.259  12.754 -1.2542  0.6368 -0.7682
 1230TIP3    H225182   4.870   2.135  12.839  0.1928  0.6106 -0.5152
 1231TIP3   OH225183   6.224   5.315   5.183  0.0523 -0.3918 -0.2589
 1231TIP3    H125184   6.155   5.355   5.235  0.4173 -1.8161  1.3628
 1231TIP3    H225185   6.229   5.369   5.104 -0.7447  1.5934  1.0159
 1232TIP3   OH225186   6.587   3.367   5.854 -0.2531 -0.4271  0.2873
 1232TIP3    H125187   6.632   3.451   5.863  0.1517 -0.5354 -0.7063
 1232TIP3    H225188   6.656   3.302   5.870 -0.4264 -0.5771  0.4235
 1233TIP3   OH225189   0.333   5.731  12.282  0.4794  0.1564 -0.2207
 1233TIP3    H125190   0.380   5.664  12.232 -0.3995  0.0911 -0.9893
 1233TIP3    H225191   0.340   5.810  12.228 -0.6681  0.0284 -0.5708
 1234TIP3   OH225192   6.331   2.366   3.517  0.3657 -0.1892 -0.1288
 1234TIP3    H125193   6.346   2.460   3.505 -1.7687  0.1751 -0.0711
 1234TIP3    H225194   6.382   2.325   3.447  1.0738  1.0226 -0.3344
 1235TIP3   OH225195   5.884   3.438   0.296 -0.1319 -0.3070  0.0920
 1235TIP3    H125196   5.793   3.457   0.270 -0.6359 -1.6313  0.8028
 1235TIP3    H225197   5.936   3.463   0.219 -1.1844 -0.2935 -0.6384
 1236TIP3   OH225198   6.129   5.555   0.380 -0.1682 -0.2952  0.1224
 1236TIP3    H125199   6.204   5.522   0.429 -2.1730 -1.9004  2.2419
 1236TIP3    H225200   6.078   5.476   0.358 -0.4952  0.6081 -2.6008
 1237TIP3   OH225201   1.684   1.824  13.641  0.0867 -0.1675 -0.2127
 1237TIP3    H125202   1.686   1.796  13.733  0.0106 -1.6835 -0.6543
 1237TIP3    H225203   1.774   1.851  13.623 -0.2711  1.7443  0.7760
 1238TIP3   OH225204   4.408   3.329  13.808  0.1077  0.4617 -0.4616
 1238TIP3    H125205   4.423   3.422  13.824  1.8560  0.5397 -2.3432
 1238TIP3    H225206   4.353   3.300  13.881  0.1607  2.8001  0.5290
 1239TIP3   OH225207   4.692   0.222   4.462 -0.2740 -0.7644  0.5528
 1239TIP3    H125208   4.638   0.284   4.510 -0.7484 -1.2108  0.5896
 1239TIP3    H225209   4.659   0.136   4.487 -0.0990 -1.0145 -0.0671
 1240TIP3   OH225210   2.019   3.361  14.312 -0.4064 -0.1242 -0.6991
 1240TIP3    H125211   2.102   3.405  14.294  0.1374 -1.2777 -1.0055
 1240TIP3    H225212   1.953   3.417  14.271  0.2411  0.6187 -0.7399
 1241TIP3   OH225213   6.327   5.215  16.060 -0.0847 -0.6050 -0.6951
 1241TIP3    H125214   6.378   5.207  16.141 -0.5418  2.1827 -0.0538
 1241TIP3    H225215   6.244   5.255  16.089 -0.9117 -1.1370 -2.3081
 1242TIP3   OH225216   5.678   4.633  11.731 -0.0407 -0.0227 -0.6211
 1242TIP3    H125217   5.751   4.587  11.773 -0.5382 -1.1090 -0.9206
 1242TIP3    H225218   5.692   4.619  11.637 -1.0206 -0.8725 -0.6521
 1243TIP3   OH225219   5.287   0.441   5.850 -0.3804  0.1726 -1.2669
 1243TIP3    H125220   5.206   0.400   5.879  0.5215 -1.4425 -0.9602
 1243TIP3    H225221   5.334   0.373   5.803  0.8047  1.0739 -1.4383
 1244TIP3   OH225222   3.741   1.510   5.211 -0.1171  0.5078 -0.2475
 1244TIP3    H125223   3.725   1.604   5.198 -0.4567  0.2614 -1.7197
 1244TIP3    H225224   3.657   1.469   5.190  0.3512 -0.2100 -0.7164
 1245TIP3   OH225225   0.707   6.365   5.384 -0.4265 -0.8849  0.2744
 1245TIP3    H125226   0.663   6.365   5.470  0.0228  1.3307  0.5270
 1245TIP3    H225227   0.659   6.430   5.333  1.3648  0.1827 -0.0764
 1246TIP3   OH225228   5.720   4.602   1.893  0.7738 -0.6601 -0.2408
 1246TIP3    H125229   5.801   4.584   1.846  1.7192  0.1934  1.0427
 1246TIP3    H225230   5.746   4.611   1.985 -0.5491  0.9283  0.0089
 1247TIP3   OH225231   4.995   0.182  13.835 -0.6414 -0.4293 -0.3819
 1247TIP3    H125232   5.074   0.236  13.830 -2.5476  2.4770 -0.1539
 1247TIP3    H225233   5.000   0.126  13.757  1.8989 -0.7077 -0.0679
 1248TIP3   OH225234   4.130   2.062  14.719  0.0172  0.2101  0.0814
 1248TIP3    H125235   4.151   2.073  14.626  0.2311 -0.3291  0.0670
 1248TIP3    H225236   4.138   1.968  14.735  1.2143  0.4516  0.9543
 1249TIP3   OH225237   2.319   4.152  12.892  0.5988  0.3071  0.1388
 1249TIP3    H125238   2.319   4.074  12.947 -1.8174  0.7398  0.8395
 1249TIP3    H225239   2.307   4.224  12.954  0.2223  1.0013 -0.7364
 1250TIP3   OH225240   0.807   3.971  15.059  0.0266  0.0941 -0.1296
 1250TIP3    H125241   0.814   4.024  15.138 -2.4189 -0.0707  0.2375
 1250TIP3    H225242   0.847   3.887  15.083 -3.0410 -0.8959  1.8716
 1251TIP3   OH225243   0.820   4.340  16.777 -0.2361  0.2709 -0.6590
 1251TIP3    H125244   0.886   4.394  16.734  0.7119 -0.2752  0.0865
 1251TIP3    H225245   0.736   4.376  16.748  0.3752 -0.3429 -3.2788
 1252TIP3   OH225246   2.233   1.711   4.954 -0.3716 -0.1969  0.5062
 1252TIP3    H125247   2.196   1.622   4.953 -0.6310 -0.0889  0.0290
 1252TIP3    H225248   2.280   1.717   5.037 -1.6968 -0.2278  1.2822
 1253TIP3   OH225249   5.913   6.105  11.844 -0.0317  0.1557 -0.2330
 1253TIP3    H125250   5.827   6.139  11.820 -0.8119 -1.1088  0.7149
 1253TIP3    H225251   5.905   6.011  11.834  1.3461  0.0596 -0.4359
 1254TIP3   OH225252   1.558   5.430  15.288  0.2552 -0.3008  0.2635
 1254TIP3    H125253   1.583   5.458  15.199  0.8051  0.3562  0.6165
 1254TIP3    H225254   1.536   5.512  15.333  0.3348 -0.6000  0.8442
 1255TIP3   OH225255   0.584   5.803   2.733 -0.2577 -0.2356  0.4231
 1255TIP3    H125256   0.555   5.726   2.782  2.1366 -0.3770  1.6677
 1255TIP3    H225257   0.639   5.768   2.663 -2.0693  0.1144 -1.2294
 1256TIP3   OH225258   5.072   2.136   0.618 -0.5656 -0.4094  0.0332
 1256TIP3    H125259   5.061   2.126   0.713 -1.6111 -0.2286 -0.0596
 1256TIP3    H225260   5.001   2.196   0.592 -0.9210 -1.2645 -1.0116
 1257TIP3   OH225261   4.849   4.390   1.707 -0.6487 -0.0332 -0.1744
 1257TIP3    H125262   4.803   4.434   1.779  0.7488 -1.2647  1.5374
 1257TIP3    H225263   4.820   4.299   1.713 -2.7393  0.4052 -3.0330
 1258TIP3   OH225264   0.869   6.231   4.006 -0.2819 -0.0674 -0.4704
 1258TIP3    H125265   0.925   6.186   4.069 -0.1013  0.7170 -0.0582
 1258TIP3    H225266   0.928   6.290   3.958 -0.5529 -0.0843 -0.8308
 1259TIP3   OH225267   0.678   2.224  15.306  0.6320  0.0967 -0.0928
 1259TIP3    H125268   0.686   2.133  15.280 -1.4872 -0.3661  0.7878
 1259TIP3    H225269   0.615   2.224  15.377  1.0996  2.1741  0.3737
 1260TIP3   OH225270   3.694   4.472  16.525 -0.0149 -0.3880  0.3707
 1260TIP3    H125271   3.755   4.420  16.473  0.0942  0.3605 -0.2733
 1260TIP3    H225272   3.735   4.559  16.530 -2.3678  1.0344 -2.6523
 1261TIP3   OH225273   2.449   3.633  12.529 -0.2994 -0.3454  0.4711
 1261TIP3    H125274   2.455   3.597  12.618  1.2344 -1.6152 -0.1283
 1261TIP3    H225275   2.522   3.695  12.524 -1.0546  0.5574  0.4520
 1262TIP3   OH225276   0.335   6.198  12.467  0.3111 -0.1369 -0.6766
 1262TIP3    H125277   0.323   6.239  12.382  0.5535 -2.2499 -1.7691
 1262TIP3    H225278   0.392   6.257  12.515  1.4460  0.3244 -2.5524
 1263TIP3   OH225279   4.170   0.859  16.584 -0.1492  0.3025 -0.1548
 1263TIP3    H125280   4.126   0.864  16.669 -2.2184  1.7305 -1.2412
 1263TIP3    H225281   4.110   0.807  16.530  2.5585 -3.1429  0.0394
 1264TIP3   OH225282   6.692   2.383  13.978  0.0460 -0.2131  0.7100
 1264TIP3    H125283   6.776   2.401  14.021 -0.1647 -3.1032  2.4611
 1264TIP3    H225284   6.634   2.358  14.050 -2.3027  1.5358 -0.5097
 1265TIP3   OH225285   1.600   0.460  13.117 -0.1558  0.4098  0.0359
 1265TIP3    H125286   1.537   0.495  13.179  0.9132  1.3335  0.6274
 1265TIP3    H225287   1.676   0.517  13.125  2.2370 -2.8824  2.1082
 1266TIP3   OH225288   6.032   6.643  13.385  0.1782 -0.1650  0.1412
 1266TIP3    H125289   5.947   6.607  13.361 -0.3560  0.5002  0.9803
 1266TIP3    H225290   6.070   6.578  13.444  1.6597 -1.9781 -2.7505
 1267TIP3   OH225291   5.396   0.679  15.357 -0.4828  0.2497  0.3127
 1267TIP3    H125292   5.343   0.728  15.419 -0.2853  1.4110 -0.4222
 1267TIP3    H225293   5.349   0.687  15.274 -1.4426 -2.4026  0.5531
 1268TIP3   OH225294   0.197   2.276   1.013  1.0818 -0.0422 -0.0404
 1268TIP3    H125295   0.161   2.334   0.945  0.4064 -1.0456 -0.5635
 1268TIP3    H225296   0.183   2.188   0.978 -0.7067 -0.6578  2.0765
 1269TIP3   OH225297   3.152   1.543   1.390  0.3115 -0.1401 -0.3265
 1269TIP3    H125298   3.178   1.584   1.308  1.8028 -0.3157  0.0475
 1269TIP3    H225299   3.060   1.566   1.400  0.6074  1.4358 -1.1152
 1270TIP3   OH225300   1.107   4.463   3.570 -0.2352  0.2372  0.6031
 1270TIP3    H125301   1.039   4.400   3.593  0.2475 -0.3500  0.4086
 1270TIP3    H225302   1.143   4.432   3.487  1.1084 -0.1302  1.3166
 1271TIP3   OH225303   4.312   2.893   1.586  0.1135 -0.1253 -0.2621
 1271TIP3    H125304   4.253   2.863   1.654 -1.7314  0.2852 -1.6526
 1271TIP3    H225305   4.269   2.970   1.549  1.4203  0.0665 -1.4393
 1272TIP3   OH225306   0.103   2.256  13.160 -0.4989  0.3674  0.3811
 1272TIP3    H125307   0.022   2.217  13.195 -0.6229 -1.7326 -2.0819
 1272TIP3    H225308   0.081   2.281  13.071  1.3480  0.5506 -0.0456
 1273TIP3   OH225309   6.799   0.419  16.678 -0.4082  0.2835  0.2404
 1273TIP3    H125310   6.765   0.446  16.764 -1.1957  1.5297 -0.4538
 1273TIP3    H225311   6.750   0.340  16.657 -0.9418  0.5464  0.4814
 1274TIP3   OH225312   2.017   6.692  13.637  0.3433 -0.2463 -0.2220
 1274TIP3    H125313   2.100   6.679  13.591  0.1886 -0.8281 -0.3420
 1274TIP3    H225314   1.974   6.761  13.588  1.2468  0.8402  0.5041
 1275TIP3   OH225315   0.631   1.980   1.664 -0.0237  0.4559  0.5254
 1275TIP3    H125316   0.722   1.988   1.692 -0.1155 -0.1537  0.9952
 1275TIP3    H225317   0.598   2.070   1.662  0.4397  0.6324  0.8499
 1276TIP3   OH225318   5.502   6.215  15.857  0.3639 -0.3618  0.0759
 1276TIP3    H125319   5.446   6.172  15.921  0.6773 -0.8607  0.0197
 1276TIP3    H225320   5.443   6.237  15.785 -0.1464  0.9263  0.8699
 1277TIP3   OH225321   4.283   3.597  16.398  0.1954 -0.0102 -0.0877
 1277TIP3    H125322   4.338   3.549  16.337  1.7645  0.0298  1.2649
 1277TIP3    H225323   4.262   3.534  16.467 -1.2446  0.0556 -0.4460
 1278TIP3   OH225324   0.905   0.221  13.937 -0.1781  0.5377 -0.4463
 1278TIP3    H125325   0.980   0.269  13.901 -1.1121  1.7138 -0.8274
 1278TIP3    H225326   0.919   0.131  13.907  0.8411  0.8406 -0.9215
 1279TIP3   OH225327   5.296   5.504  12.996 -0.1590 -0.0508  0.6195
 1279TIP3    H125328   5.389   5.510  12.976  0.4146  1.5777  3.3814
 1279TIP3    H225329   5.288   5.425  13.050 -0.3162  0.0006  0.6736
 1280TIP3   OH225330   5.100   4.550   1.703 -0.8706 -0.0755  0.0120
 1280TIP3    H125331   5.012   4.513   1.706 -0.8014 -0.4986 -2.2206
 1280TIP3    H225332   5.090   4.632   1.656 -0.1849  0.2199  0.3731
 1281TIP3   OH225333   1.013   5.073   3.345  0.0126  0.0346  0.3269
 1281TIP3    H125334   0.982   5.066   3.435  1.3182 -1.0557  0.7167
 1281TIP3    H225335   1.068   4.996   3.333 -1.7844 -0.9154 -2.0718
 1282TIP3   OH225336   2.036   5.292  13.395  0.1483  0.4697 -0.2118
 1282TIP3    H125337   2.078   5.333  13.471 -0.4277  1.2212 -0.2825
 1282TIP3    H225338   1.944   5.286  13.419  0.1657 -0.4137 -0.3729
 1283TIP3   OH225339   3.084   2.069  13.664  0.0922  0.0066 -0.4576
 1283TIP3    H125340   3.115   2.068  13.573 -1.1314  1.4340 -0.9273
 1283TIP3    H225341   3.163   2.081  13.716  0.7252 -0.0439 -1.3857
 1284TIP3   OH225342   3.546   0.838  12.921 -0.5060 -0.1991 -0.2161
 1284TIP3    H125343   3.521   0.798  12.838 -1.6204  0.1110 -0.0468
 1284TIP3    H225344   3.597   0.771  12.966  1.8883  0.3674 -2.0010
 1285TIP3   OH225345   3.365   2.632   3.519  0.5208  0.0460  0.8018
 1285TIP3    H125346   3.431   2.615   3.586  0.6744 -1.6463  0.2557
 1285TIP3    H225347   3.413   2.670   3.446  0.1555  3.1550  2.0963
 1286TIP3   OH225348   5.429   0.159   0.908 -0.6842  0.0296 -0.4154
 1286TIP3    H125349   5.403   0.146   0.999  0.7199 -1.2163 -0.1798
 1286TIP3    H225350   5.406   0.250   0.890 -0.9594  0.3013  1.1894
 1287TIP3   OH225351   5.398   1.586  11.000  0.5397  0.2887  0.1201
 1287TIP3    H125352   5.491   1.609  10.994  0.5553 -0.4420 -2.9199
 1287TIP3    H225353   5.397   1.491  11.004 -0.1742  0.1281 -3.0381
 1288TIP3   OH225354   0.369   0.849  11.444  0.0533 -0.2201  0.4638
 1288TIP3    H125355   0.371   0.908  11.369 -0.4139  0.4930  1.0065
 1288TIP3    H225356   0.410   0.768  11.412 -0.3250  0.0085 -0.6081
 1289TIP3   OH225357   2.556   2.440   4.675 -0.3810  0.0814  0.1541
 1289TIP3    H125358   2.604   2.487   4.743  0.1549  1.2687 -1.0284
 1289TIP3    H225359   2.556   2.349   4.705  0.0933  0.5416  1.5971
 1290TIP3   OH225360   2.642   5.934  11.615  0.1828  0.3894 -0.0214
 1290TIP3    H125361   2.613   5.955  11.526 -2.3880  0.4951  0.8058
 1290TIP3    H225362   2.660   6.019  11.655 -0.9820  0.5077  0.2878
 1291TIP3   OH225363   5.803   4.093   1.497  0.3482  0.0434 -0.1642
 1291TIP3    H125364   5.708   4.087   1.507  0.3613 -0.0048 -0.0663
 1291TIP3    H225365   5.828   4.012   1.454  0.3276  0.1165 -0.3137
 1292TIP3   OH225366   1.044   2.014  12.214 -0.3805  0.0694  0.1462
 1292TIP3    H125367   0.961   1.981  12.180  0.5276 -0.0914 -2.0288
 1292TIP3    H225368   1.111   1.963  12.168  0.9436  0.7692  1.2450
 1293TIP3   OH225369   4.783   4.586  11.449 -0.2845 -0.3459 -0.3162
 1293TIP3    H125370   4.752   4.507  11.494  1.0406 -0.2447  0.8206
 1293TIP3    H225371   4.807   4.646  11.519 -1.0205  0.9897 -1.1741
 1294TIP3   OH225372   0.975   0.387  17.274  0.1682 -0.0796 -0.0670
 1294TIP3    H125373   0.902   0.370  17.214  1.3265 -2.3337 -0.8820
 1294TIP3    H225374   0.962   0.324  17.345  0.1319  0.9778  0.8701
 1295TIP3   OH225375   5.555   3.297   2.049  0.3517  0.2745  0.1234
 1295TIP3    H125376   5.482   3.236   2.033  0.4386 -0.0393  0.9159
 1295TIP3    H225377   5.558   3.352   1.970  0.2885 -0.7605 -0.6012
 1296TIP3   OH225378   4.379   1.971   5.726  0.4484 -0.1783 -0.1297
 1296TIP3    H125379   4.389   2.062   5.696 -0.1678 -0.6307 -1.7593
 1296TIP3    H225380   4.290   1.967   5.760  0.8745  0.1217  1.0535
 1297TIP3   OH225381   1.289   5.924   4.550  0.1190  0.1820 -0.0166
 1297TIP3    H125382   1.288   5.847   4.608  2.6882  1.3246  1.5756
 1297TIP3    H225383   1.314   5.889   4.465  1.6344 -0.7201  0.7821
 1298TIP3   OH225384   0.720   6.470  10.489 -0.5797  0.2997 -0.5074
 1298TIP3    H125385   0.732   6.417  10.568 -0.6788  1.8794  0.5988
 1298TIP3    H225386   0.809   6.498  10.466 -0.2139 -2.4045 -2.5908
 1299TIP3   OH225387   5.314   0.350  11.019 -0.1673 -0.3902 -0.1826
 1299TIP3    H125388   5.260   0.372  10.943  1.9067  0.2003 -1.5488
 1299TIP3    H225389   5.336   0.258  11.008  1.5210  0.1155 -1.2402
 1300TIP3   OH225390   3.504   4.287   1.951 -0.4660  0.1313 -0.1999
 1300TIP3    H125391   3.500   4.200   1.911 -2.1077  0.0225  0.1465
 1300TIP3    H225392   3.448   4.280   2.028  0.1143  1.2488  0.3365
 1301TIP3   OH225393   6.214   6.029   4.694  0.0829  0.1802  0.1854
 1301TIP3    H125394   6.234   6.122   4.708 -0.2597  0.2948 -0.0742
 1301TIP3    H225395   6.256   5.984   4.767 -0.0232  0.5712  0.4882
 1302TIP3   OH225396   3.477   2.156   0.980 -0.7778 -0.5324  0.3558
 1302TIP3    H125397   3.452   2.175   0.889  0.1012 -0.2439  0.1751
 1302TIP3    H225398   3.562   2.112   0.973 -0.2580  0.3506  1.0930
 1303TIP3   OH225399   5.473   1.705  10.485 -0.2834  0.4318  0.6254
 1303TIP3    H125400   5.486   1.612  10.504  0.7205  0.5775  0.6458
 1303TIP3    H225401   5.390   1.727  10.528 -1.0672 -0.7101 -0.2772
 1304TIP3   OH225402   3.774   3.460   1.306 -0.6957 -0.4594  0.7530
 1304TIP3    H125403   3.798   3.367   1.307 -1.3374 -0.7021 -1.5869
 1304TIP3    H225404   3.838   3.500   1.247 -1.5874  0.2130  0.2340
 1305TIP3   OH225405   0.861   1.123   0.634  0.1572 -0.0033 -0.0544
 1305TIP3    H125406   0.869   1.145   0.541 -0.2435  0.8138  0.1055
 1305TIP3    H225407   0.828   1.202   0.675  1.0541 -0.1161  0.9166
 1306TIP3   OH225408   2.092   1.195   3.973  0.1598 -0.1313  0.4416
 1306TIP3    H125409   2.017   1.151   4.014  1.7643 -1.5371  1.9611
 1306TIP3    H225410   2.131   1.246   4.044  1.1120 -0.0312 -0.1548
 1307TIP3   OH225411   1.137   4.000  11.770 -0.0190  0.5480 -0.4700
 1307TIP3    H125412   1.126   3.979  11.677 -0.9711  0.0023 -0.2395
 1307TIP3    H225413   1.173   3.920  11.808  0.1823  0.7055 -0.3293
 1308TIP3   OH225414   1.493   6.402   5.052  0.3318  0.3442  0.3392
 1308TIP3    H125415   1.418   6.344   5.063 -0.0143  0.2944 -2.1268
 1308TIP3    H225416   1.466   6.484   5.093  0.2619 -0.7203  2.4970
 1309TIP3   OH225417   2.998   5.256   4.008 -0.3212 -0.7771  0.5071
 1309TIP3    H125418   3.040   5.274   4.092 -2.0152 -3.4903  2.0293
 1309TIP3    H225419   3.050   5.305   3.944  2.9602 -1.1815  2.7206
 1310TIP3   OH225420   1.468   6.727   4.873 -0.1954  0.0870  0.7542
 1310TIP3    H125421   1.545   6.691   4.917  0.9731  1.6765  0.0749
 1310TIP3    H225422   1.408   6.750   4.944  0.7680  0.6268  1.4125
 1311TIP3   OH225423   4.096   2.525  15.068  0.6389 -0.2613  0.1323
 1311TIP3    H125424   4.111   2.618  15.088 -0.4532 -0.4537  2.0595
 1311TIP3    H225425   4.056   2.525  14.981 -0.7931  1.2099  0.7665
 1312TIP3   OH225426   3.374   4.692   2.050  0.0494  0.6801 -0.0235
 1312TIP3    H125427   3.395   4.632   1.979  0.2460  0.4770  0.2032
 1312TIP3    H225428   3.281   4.709   2.040  0.2018  1.1300 -0.6922
 1313TIP3   OH225429   3.438   4.778   4.289  0.0373  0.4242 -0.1924
 1313TIP3    H125430   3.351   4.773   4.330 -0.7992  0.8273 -1.8477
 1313TIP3    H225431   3.445   4.698   4.238  1.1007 -0.1136  0.7957
 1314TIP3   OH225432   0.419   1.345  16.738  0.4940 -0.7356  0.4821
 1314TIP3    H125433   0.425   1.431  16.695 -0.3519  0.4330  2.6613
 1314TIP3    H225434   0.507   1.330  16.772  0.3327 -0.1460  1.1753
 1315TIP3   OH225435   6.109   5.343  12.264 -0.1503  0.2807 -0.1302
 1315TIP3    H125436   6.191   5.390  12.247  0.5209 -0.1928  1.7329
 1315TIP3    H225437   6.109   5.272  12.201  1.1238 -0.0090  0.1772
 1316TIP3   OH225438   2.692   1.537  14.629  0.3722 -0.3330  0.2496
 1316TIP3    H125439   2.716   1.524  14.721 -1.7372  1.4627  1.0720
 1316TIP3    H225440   2.730   1.622  14.606 -1.2183  0.3750  0.2071
 1317TIP3   OH225441   1.719   1.479   3.398  0.1232  0.0653  0.0313
 1317TIP3    H125442   1.767   1.425   3.460  0.6846 -0.0992 -0.5327
 1317TIP3    H225443   1.629   1.481   3.431  0.3704 -0.1960  0.7193
 1318TIP3   OH225444   2.745   0.002  15.690 -0.4449 -0.1668  0.3157
 1318TIP3    H125445   2.686  -0.055  15.738 -0.4025  0.0494  0.6282
 1318TIP3    H225446   2.831  -0.041  15.697 -0.3270  0.1609  0.9334
 1319TIP3   OH225447   0.841   2.690  15.215  0.4922  0.0566 -0.2339
 1319TIP3    H125448   0.910   2.757  15.204  0.4231  0.3107  0.8451
 1319TIP3    H225449   0.882   2.623  15.270 -0.1619  0.2788  0.5357
 1320TIP3   OH225450   2.870   5.506  16.369  0.2853  0.3405 -1.0170
 1320TIP3    H125451   2.896   5.574  16.431 -2.4491  1.1476 -0.7178
 1320TIP3    H225452   2.779   5.486  16.392  0.5838 -2.3723 -2.0453
 1321TIP3   OH225453   1.744   2.157  10.839 -0.3994  0.0185  0.0366
 1321TIP3    H125454   1.657   2.116  10.834 -0.3359 -0.6178  3.1669
 1321TIP3    H225455   1.749   2.191  10.928  2.3137  0.6927 -0.3352
 1322TIP3   OH225456   4.443   1.909   0.237  0.6902 -0.5958 -0.0025
 1322TIP3    H125457   4.396   1.981   0.194  0.7303  0.0288  0.9920
 1322TIP3    H225458   4.404   1.830   0.200  1.4839 -0.0846 -2.0323
 1323TIP3   OH225459   2.803   1.615  13.067 -0.5311  0.6338 -0.4207
 1323TIP3    H125460   2.784   1.679  13.135 -1.5686 -1.6332  1.4827
 1323TIP3    H225461   2.729   1.622  13.006 -1.2928  0.4047  0.4583
 1324TIP3   OH225462   1.263   0.330  10.985 -0.1199  0.3556 -0.1758
 1324TIP3    H125463   1.352   0.357  10.965  0.3086 -1.6698 -1.1488
 1324TIP3    H225464   1.259   0.238  10.958 -2.5119  0.4242 -0.1977
 1325TIP3   OH225465   0.141   4.519  15.153  0.1500 -0.6715  0.2323
 1325TIP3    H125466   0.081   4.555  15.218  0.4232  0.1982  0.0210
 1325TIP3    H225467   0.228   4.527  15.193  0.0421 -2.9186  0.9770
 1326TIP3   OH225468   6.585   4.978  12.793 -0.6798 -0.3471  1.0312
 1326TIP3    H125469   6.612   4.903  12.739  0.4037 -0.6083  1.9053
 1326TIP3    H225470   6.495   4.995  12.767 -0.6138 -1.3222  0.1072
 1327TIP3   OH225471   5.858   4.790   4.006  0.0013  0.4788 -0.0869
 1327TIP3    H125472   5.873   4.742   4.087  1.1200  0.8377 -0.0777
 1327TIP3    H225473   5.905   4.741   3.939  0.4166  1.0658 -0.2305
 1328TIP3   OH225474   6.400   2.250  14.836 -0.0820 -0.7077 -0.2437
 1328TIP3    H125475   6.428   2.173  14.884  1.4827 -0.0721 -0.1166
 1328TIP3    H225476   6.453   2.322  14.871 -1.6421  0.4738 -0.2115
 1329TIP3   OH225477   1.045   5.179  16.355  0.4215 -0.4427  0.1840
 1329TIP3    H125478   0.969   5.237  16.355  1.6293  1.2261  2.2089
 1329TIP3    H225479   1.120   5.238  16.340  1.4333 -1.8835 -0.5969
 1330TIP3   OH225480   4.731   5.901  15.803  0.2626  0.3041  0.9167
 1330TIP3    H125481   4.717   5.828  15.863 -1.4740 -0.2146 -0.0992
 1330TIP3    H225482   4.658   5.897  15.742  0.5633  2.4329  0.3676
 1331TIP3   OH225483   5.791   0.765  16.168 -0.1395 -0.3091  0.6576
 1331TIP3    H125484   5.704   0.724  16.168 -0.8318  1.0666  2.9958
 1331TIP3    H225485   5.775   0.856  16.191  1.9161 -0.0106  1.0415
 1332TIP3   OH225486   1.947   5.736  15.682  0.1600 -0.3252  0.0237
 1332TIP3    H125487   1.989   5.658  15.720 -2.1146 -1.3543  0.5116
 1332TIP3    H225488   1.895   5.702  15.609  1.2256  1.1077 -1.4205
 1333TIP3   OH225489   4.344   6.476  11.906  0.5423  0.0089 -0.1789
 1333TIP3    H125490   4.356   6.398  11.960  0.9852  0.5892  0.5767
 1333TIP3    H225491   4.290   6.447  11.833  0.8780 -1.0487 -0.0123
 1334TIP3   OH225492   5.862   2.173   0.514  0.0093  0.1701  0.5960
 1334TIP3    H125493   5.829   2.222   0.589  2.8797  1.5460  1.0432
 1334TIP3    H225494   5.932   2.228   0.478  1.5779 -2.3975 -0.4788
 1335TIP3   OH225495   3.703   4.457   2.049  0.0627 -0.6640  0.2054
 1335TIP3    H125496   3.652   4.411   1.983  0.4806  0.1751 -0.7036
 1335TIP3    H225497   3.784   4.407   2.057 -1.0030 -2.2117  1.9141
 1336TIP3   OH225498   1.923   6.294   3.667 -0.0418 -0.1657  0.2675
 1336TIP3    H125499   1.996   6.250   3.624  1.7419  1.7863  1.1795
 1336TIP3    H225500   1.940   6.280   3.761 -0.8010  0.3378  0.4790
 1337TIP3   OH225501   0.779   2.236  15.934 -0.0250  0.3802 -0.3834
 1337TIP3    H125502   0.802   2.157  15.885  2.3653 -0.2801  1.6734
 1337TIP3    H225503   0.811   2.308  15.881  1.0725 -0.2432 -0.5863
 1338TIP3   OH225504   4.724   6.279  11.305  0.0810 -0.1022 -0.1665
 1338TIP3    H125505   4.779   6.220  11.356 -1.2126 -1.6510 -0.5057
 1338TIP3    H225506   4.708   6.353  11.362  0.3427 -0.8643  0.9046
 1339TIP3   OH225507   5.155   1.105  15.989  0.0897  0.1346 -0.1686
 1339TIP3    H125508   5.217   1.117  15.916  0.4524 -1.0247 -0.0553
 1339TIP3    H225509   5.159   1.188  16.037  1.1161  0.2813 -0.4976
 1340TIP3   OH225510   4.808   5.898   0.846  0.3786  0.1675  0.0914
 1340TIP3    H125511   4.792   5.945   0.764 -0.1384 -0.6623 -0.2837
 1340TIP3    H225512   4.879   5.947   0.888  2.0729 -0.6005 -1.8040
 1341TIP3   OH225513   5.409   6.282   2.896  0.4373 -0.4051 -0.0477
 1341TIP3    H125514   5.365   6.227   2.832  0.6115 -0.4712 -0.1125
 1341TIP3    H225515   5.356   6.276   2.975  1.9120 -2.8496  0.8005
 1342TIP3   OH225516   2.517   5.732  10.587  0.0771 -0.1184 -0.0976
 1342TIP3    H125517   2.445   5.701  10.531 -0.3656  1.0337 -0.1836
 1342TIP3    H225518   2.595   5.691  10.550 -0.5740 -1.7009  0.2345
 1343TIP3   OH225519   3.883   5.152  14.431  0.1075  0.4729 -0.2812
 1343TIP3    H125520   3.912   5.062  14.416 -1.2124  0.1953 -1.2762
 1343TIP3    H225521   3.902   5.198  14.349  0.4008  0.9921  0.0749
 1344TIP3   OH225522   3.746   3.033   0.293  0.3331  0.3435  0.2863
 1344TIP3    H125523   3.694   3.104   0.255 -0.6221 -0.9062 -0.7781
 1344TIP3    H225524   3.725   2.956   0.239 -0.4899 -1.3073  2.8820
 1345TIP3   OH225525   6.550   3.804   5.316  0.2076 -0.5691  0.5140
 1345TIP3    H125526   6.484   3.868   5.343 -1.1895 -1.3235 -1.0419
 1345TIP3    H225527   6.540   3.797   5.221  0.6845 -2.7285  0.5956
 1346TIP3   OH225528   1.448   5.164   1.993  0.1864  0.5013 -0.0487
 1346TIP3    H125529   1.534   5.164   2.035 -0.3979 -1.1422  1.2009
 1346TIP3    H225530   1.439   5.075   1.957 -0.9872  0.6657 -0.1702
 1347TIP3   OH225531   2.171   0.970  13.090 -0.3633  0.0130 -0.1867
 1347TIP3    H125532   2.184   0.932  13.177  0.6233 -1.8448 -1.1009
 1347TIP3    H225533   2.166   0.894  13.032  1.8280  1.2723 -2.1325
 1348TIP3   OH225534   2.926   4.553  12.210  0.0933  0.0939 -0.4260
 1348TIP3    H125535   2.894   4.483  12.267  1.4959 -1.9717 -2.1401
 1348TIP3    H225536   2.996   4.595  12.261  1.5961 -1.9735 -0.7496
 1349TIP3   OH225537   5.147   2.833  12.270 -0.0470  0.4045 -0.1015
 1349TIP3    H125538   5.151   2.851  12.176  0.2803 -1.6805 -0.5239
 1349TIP3    H225539   5.079   2.767  12.278  1.6746 -1.3286  0.7697
 1350TIP3   OH225540   3.427   5.447   0.218 -0.6089 -0.9360 -0.7574
 1350TIP3    H125541   3.435   5.392   0.296 -0.8804 -0.1619 -0.1752
 1350TIP3    H225542   3.344   5.493   0.230 -0.2635 -0.2207 -1.1183
 1351TIP3   OH225543   5.485   6.819  16.165 -0.1263 -0.0209 -0.7241
 1351TIP3    H125544   5.517   6.729  16.154  0.9828  0.0504  1.5644
 1351TIP3    H225545   5.435   6.816  16.247  4.3142  2.5631  2.2663
 1352TIP3   OH225546   0.847   4.696  16.955  0.3879 -0.0243  0.1163
 1352TIP3    H125547   0.939   4.692  16.980  0.2366 -0.2574  0.6393
 1352TIP3    H225548   0.814   4.775  16.999  0.0401 -0.6198  0.9331
 1353TIP3   OH225549   0.653   1.834  16.579 -0.3758 -0.1431  0.1044
 1353TIP3    H125550   0.600   1.788  16.644  0.4024 -0.4238  0.5454
 1353TIP3    H225551   0.672   1.919  16.619 -2.0219  0.6702 -0.8107
 1354TIP3   OH225552   3.384   5.179   2.966  0.5397 -0.4704  0.0223
 1354TIP3    H125553   3.367   5.273   2.960 -1.5193 -0.7968  0.4917
 1354TIP3    H225554   3.449   5.162   2.898  0.2819  1.1377 -0.6372
 1355TIP3   OH225555   2.860   2.234  13.590  0.4766 -0.3823 -0.3099
 1355TIP3    H125556   2.812   2.205  13.668  0.4649  1.6100  0.4449
 1355TIP3    H225557   2.952   2.219  13.611  0.5514  1.1514  0.5483
 1356TIP3   OH225558   5.953   5.164   0.867  0.1658 -0.7318  0.3736
 1356TIP3    H125559   5.910   5.081   0.889 -1.3461  0.1222  0.6991
 1356TIP3    H225560   6.036   5.161   0.914 -0.7002 -1.2524  1.8958
 1357TIP3   OH225561   1.151   1.089   1.360  0.6810 -0.3509  0.0059
 1357TIP3    H125562   1.132   1.181   1.337 -1.2175 -0.7805 -0.2007
 1357TIP3    H225563   1.242   1.091   1.389  1.9352  0.9511 -3.6778
 1358TIP3   OH225564   4.563   6.364  16.235 -0.5761 -0.0866  0.2592
 1358TIP3    H125565   4.609   6.447  16.245 -1.7990  0.3961  2.0696
 1358TIP3    H225566   4.480   6.388  16.195 -1.8803 -0.1018  2.8479
 1359TIP3   OH225567   3.368   3.535  14.517  0.7161  0.1719 -0.3683
 1359TIP3    H125568   3.462   3.524  14.531  0.3911 -1.5507  0.6416
 1359TIP3    H225569   3.337   3.448  14.493 -0.6063  0.7622 -0.8425
 1360TIP3   OH225570   3.935   0.834   2.319  0.1563 -0.3838  0.0781
 1360TIP3    H125571   3.927   0.777   2.396  1.7180  0.8105  1.1550
 1360TIP3    H225572   3.998   0.789   2.263  0.2797 -0.4251  0.2511
 1361TIP3   OH225573   5.418   2.814  12.330  0.4873 -0.0407 -0.3138
 1361TIP3    H125574   5.324   2.809  12.314  0.5001  1.1383 -0.8447
 1361TIP3    H225575   5.430   2.896  12.378  1.0410 -1.0696  1.3733
 1362TIP3   OH225576   3.667   6.381  14.178  0.1453  0.1699  0.4377
 1362TIP3    H125577   3.685   6.435  14.101 -0.1185 -0.9434 -0.4070
 1362TIP3    H225578   3.594   6.426  14.221  0.0645  0.6070 -0.1401
 1363TIP3   OH225579   0.001   6.075   4.359 -0.1288 -0.5508 -0.2413
 1363TIP3    H125580  -0.085   6.111   4.376 -0.3133 -0.6096 -1.0013
 1363TIP3    H225581   0.046   6.077   4.443 -0.1029  1.5109 -0.2702
 1364TIP3   OH225582   5.801   5.539   4.799 -0.6157  0.2946  0.1080
 1364TIP3    H125583   5.735   5.545   4.730  0.2443 -0.2510 -0.7984
 1364TIP3    H225584   5.864   5.474   4.765  0.1601  0.5086  1.1163
 1365TIP3   OH225585   2.091   3.991   3.695  0.8526 -0.1487  0.0461
 1365TIP3    H125586   2.182   3.981   3.667  0.3495 -0.5579 -1.5075
 1365TIP3    H225587   2.040   3.972   3.616 -0.5194  2.2651  0.3249
 1366TIP3   OH225588   4.886   0.186  14.617 -0.1593  0.3415 -0.2569
 1366TIP3    H125589   4.915   0.214  14.704 -1.2104 -0.3559  0.3169
 1366TIP3    H225590   4.796   0.158  14.629  1.1349 -4.3694 -0.5501
 1367TIP3   OH225591   6.579   3.082  15.255  0.1888 -0.0744 -0.3102
 1367TIP3    H125592   6.581   2.998  15.300 -1.8834  1.1177  2.1394
 1367TIP3    H225593   6.515   3.134  15.303  1.4769  2.9584 -1.7032
 1368TIP3   OH225594   3.285   6.411  15.064 -0.2756 -0.6166 -0.6283
 1368TIP3    H125595   3.196   6.378  15.048 -0.7963 -0.2868  1.4931
 1368TIP3    H225596   3.297   6.479  14.997 -2.1243  0.2356 -0.1269
 1369TIP3   OH225597   4.717   0.957   5.638 -0.1783 -0.3725  0.4510
 1369TIP3    H125598   4.695   0.934   5.547  0.5329 -1.5684  0.5655
 1369TIP3    H225599   4.787   1.021   5.630  1.7680 -2.4555  0.1373
 1370TIP3   OH225600   5.064   4.542  15.370  0.2590 -0.2434 -0.4098
 1370TIP3    H125601   5.106   4.457  15.356 -2.1948 -1.5125 -0.3846
 1370TIP3    H225602   4.971   4.521  15.382 -0.3978  2.4593 -0.4540
 1371TIP3   OH225603   6.019   0.506   1.782 -1.3679 -0.5687  0.0907
 1371TIP3    H125604   6.016   0.601   1.768 -0.0046 -0.4565  0.4509
 1371TIP3    H225605   6.058   0.471   1.702  1.9638 -0.3902  1.5386
 1372TIP3   OH225606   1.951   2.794   2.879 -0.1382 -0.0952  0.4148
 1372TIP3    H125607   2.014   2.727   2.851  0.0661  0.4538 -0.4760
 1372TIP3    H225608   1.999   2.847   2.943 -0.3897 -0.9589  1.3274
 1373TIP3   OH225609   4.056   6.584   6.443 -0.1756 -0.3584  0.4011
 1373TIP3    H125610   4.076   6.490   6.445  0.9206 -0.2258 -1.8590
 1373TIP3    H225611   3.961   6.589   6.443 -0.2384 -1.4543  0.8023
 1374TIP3   OH225612   6.415   6.169   2.398 -0.4544 -0.0295 -0.0734
 1374TIP3    H125613   6.362   6.195   2.322 -0.3740 -0.0316 -0.1305
 1374TIP3    H225614   6.436   6.077   2.382 -1.8511 -0.5133  0.7733
 1375TIP3   OH225615   4.141   3.558  12.329 -0.6203  0.6888 -0.5140
 1375TIP3    H125616   4.110   3.470  12.349 -1.0657  0.6381 -1.4322
 1375TIP3    H225617   4.235   3.547  12.314 -0.8815  0.1644 -1.8233
 1376TIP3   OH225618   5.653   0.334   1.564 -0.2217 -0.3687  0.0652
 1376TIP3    H125619   5.735   0.296   1.596  0.1103 -0.8768 -1.3246
 1376TIP3    H225620   5.661   0.428   1.584  0.3323 -0.5473  0.6844
 1377TIP3   OH225621   4.308   0.372  14.568  0.1682 -0.5792 -0.1664
 1377TIP3    H125622   4.291   0.283  14.537 -0.3292 -0.9512  1.1162
 1377TIP3    H225623   4.250   0.383  14.643  1.9051 -0.0386  1.1515
 1378TIP3   OH225624   3.918   2.394   6.537 -0.3563  0.3137  0.0957
 1378TIP3    H125625   3.849   2.461   6.538 -1.0045 -0.3560  1.8306
 1378TIP3    H225626   3.899   2.339   6.613 -0.0391 -2.0581 -1.4846
 1379TIP3   OH225627   2.312   0.045  11.112  0.3924 -0.1692 -0.8584
 1379TIP3    H125628   2.312  -0.007  11.032  0.8282  0.4102 -1.2501
 1379TIP3    H225629   2.401   0.035  11.147  0.1434 -0.5753 -0.3472
 1380TIP3   OH225630   2.918   1.310   2.320  0.2578  0.6619  0.5003
 1380TIP3    H125631   2.825   1.307   2.298  0.3771  0.6942 -0.0191
 1380TIP3    H225632   2.961   1.269   2.245  0.4422 -2.0800  2.0599
 1381TIP3   OH225633   3.112   6.234   1.073  0.6025 -0.5567 -0.1214
 1381TIP3    H125634   3.177   6.188   1.126  0.8772 -1.2377 -1.0350
 1381TIP3    H225635   3.029   6.194   1.098  0.4774  0.6099  1.3605
 1382TIP3   OH225636   4.280   6.650   0.932  0.0859 -0.4169  0.1612
 1382TIP3    H125637   4.237   6.605   0.859  0.0164  1.0349 -0.7032
 1382TIP3    H225638   4.364   6.679   0.895 -0.5794  1.6217  0.2089
 1383TIP3   OH225639   3.148   1.118  15.277 -0.8539  1.1461 -0.6999
 1383TIP3    H125640   3.069   1.071  15.302 -0.1860  0.8411  0.9394
 1383TIP3    H225641   3.206   1.108  15.352  1.4703 -0.2376 -2.6217
 1384TIP3   OH225642   3.545   3.575   1.407 -0.1112 -0.3994 -0.1680
 1384TIP3    H125643   3.629   3.555   1.366  0.3029 -2.6103  1.6847
 1384TIP3    H225644   3.481   3.528   1.354 -0.1832  0.9393 -1.3205
 1385TIP3   OH225645   6.321   3.144  11.989 -0.0060  0.0946  0.2692
 1385TIP3    H125646   6.400   3.155  12.043 -0.0239  0.3102  0.2514
 1385TIP3    H225647   6.351   3.160  11.900 -0.1607  0.6006  0.3062
 1386TIP3   OH225648   5.256   5.490  11.002 -0.0616  0.3536 -0.0908
 1386TIP3    H125649   5.346   5.522  10.992 -0.0216 -0.7270 -3.6914
 1386TIP3    H225650   5.205   5.539  10.939 -1.6637 -0.3957  0.5907
 1387TIP3   OH225651   5.139   2.368  12.110 -0.3277  0.0907  0.2909
 1387TIP3    H125652   5.206   2.414  12.060 -0.4085 -1.0623 -0.9089
 1387TIP3    H225653   5.080   2.333  12.044 -0.2929 -1.7081  1.1834
 1388TIP3   OH225654   0.862   6.396  11.114 -0.1571  0.6874 -0.3273
 1388TIP3    H125655   0.914   6.431  11.042  0.5722  1.0015  0.3451
 1388TIP3    H225656   0.880   6.302  11.113 -1.2857  0.4800 -1.4624
 1389TIP3   OH225657   2.304   6.609  14.864  0.1329  0.1081  0.6571
 1389TIP3    H125658   2.225   6.613  14.918  0.9221  1.2910  1.7559
 1389TIP3    H225659   2.306   6.520  14.830 -1.7487  0.1171  0.4990
 1390TIP3   OH225660   1.980   5.451  12.790  0.0738  0.3880 -0.2732
 1390TIP3    H125661   1.885   5.443  12.779  0.2423  2.0008 -3.2454
 1390TIP3    H225662   1.995   5.545  12.802  1.3010  0.1449  0.1575
 1391TIP3   OH225663   4.266   6.006  16.243  0.7149  0.2481 -0.3298
 1391TIP3    H125664   4.203   6.061  16.196  2.2271  0.5422 -2.0460
 1391TIP3    H225665   4.223   5.921  16.251 -1.3703  1.4278  1.7346
 1392TIP3   OH225666   0.435   0.149   5.326  0.3788  0.3234  0.0558
 1392TIP3    H125667   0.346   0.159   5.360 -0.5188 -2.2890 -1.3932
 1392TIP3    H225668   0.475   0.081   5.380  0.9031  0.2439 -0.4192
 1393TIP3   OH225669   1.143   0.918  10.496 -0.7545  0.4934  0.0283
 1393TIP3    H125670   1.215   0.856  10.504 -1.2987 -0.0933  0.4478
 1393TIP3    H225671   1.167   0.974  10.422 -1.0284 -1.2557 -1.4123
 1394TIP3   OH225672   5.379   4.507  11.363  0.1798 -0.1781  0.1199
 1394TIP3    H125673   5.398   4.585  11.416  1.2613 -0.3508 -0.0031
 1394TIP3    H225674   5.465   4.466  11.349 -0.0967 -0.1809 -1.6747
 1395TIP3   OH225675   6.572   1.898   6.095  0.0786  0.0470  0.6116
 1395TIP3    H125676   6.481   1.925   6.100  0.5207  2.2109 -1.7680
 1395TIP3    H225677   6.569   1.807   6.064 -1.2649  0.0466  0.7169
 1396TIP3   OH225678   5.623   5.095   3.113 -0.0938 -0.2448  0.1129
 1396TIP3    H125679   5.608   5.029   3.045 -0.7849 -1.0971  1.0777
 1396TIP3    H225680   5.545   5.091   3.169  1.1420 -0.6720  1.8558
 1397TIP3   OH225681   1.188   2.740   2.634  0.3464  0.2547  0.0582
 1397TIP3    H125682   1.273   2.774   2.607  1.2641 -2.0925 -0.0900
 1397TIP3    H225683   1.207   2.655   2.674 -1.9020 -0.2361  0.1702
 1398TIP3   OH225684   0.539   4.141   5.608 -0.5319  0.0881  0.3374
 1398TIP3    H125685   0.567   4.055   5.577 -0.6541  0.3225 -0.4455
 1398TIP3    H225686   0.577   4.149   5.696 -0.2310 -0.6182  0.2729
 1399TIP3   OH225687   0.580   3.020  12.375  0.0276 -0.3472  0.0463
 1399TIP3    H125688   0.493   2.985  12.394 -0.0271 -0.9595 -1.2126
 1399TIP3    H225689   0.630   3.004  12.455 -1.2634  0.8665  1.1108
 1400TIP3   OH225690   6.345   5.741   3.927 -0.0192  1.2872 -0.9361
 1400TIP3    H125691   6.330   5.733   4.021  1.3974  0.0675 -0.7842
 1400TIP3    H225692   6.433   5.780   3.920  0.9018 -0.8527 -1.7248
 1401TIP3   OH225693   4.679   6.251  15.744  0.0647  0.1033 -0.2642
 1401TIP3    H125694   4.685   6.187  15.674  1.6184  0.5315 -0.5383
 1401TIP3    H225695   4.758   6.305  15.735 -0.1455  0.7051  1.2722
 1402TIP3   OH225696   2.689   0.535  11.133 -0.1612 -0.0773 -0.2091
 1402TIP3    H125697   2.705   0.446  11.100  1.8047  0.1299  0.0829
 1402TIP3    H225698   2.744   0.591  11.078  0.7360  0.6235  1.3755
 1403TIP3   OH225699   3.485   3.252   3.333  0.5510  0.4565  0.4649
 1403TIP3    H125700   3.469   3.200   3.254 -0.0890  1.9108 -0.3767
 1403TIP3    H225701   3.432   3.209   3.400 -1.2255  0.9472 -0.5955
 1404TIP3   OH225702   0.048   1.521  12.807  0.2594  0.1501  0.0187
 1404TIP3    H125703   0.099   1.442  12.827 -1.2074 -0.7115  0.3760
 1404TIP3    H225704   0.055   1.574  12.887  1.7524  0.6928 -0.4372
 1405TIP3   OH225705   1.418   2.175   4.998  0.8774 -0.9276  0.0933
 1405TIP3    H125706   1.373   2.135   4.924  3.4237 -2.0876 -0.9243
 1405TIP3    H225707   1.497   2.121   5.009  2.4151  1.4935  1.2379
 1406TIP3   OH225708   3.911   2.905  14.066 -0.1287 -0.2679  0.3615
 1406TIP3    H125709   3.978   2.946  14.011 -1.3212 -0.2108 -1.0522
 1406TIP3    H225710   3.959   2.879  14.145  1.0977  1.8861  0.3672
 1407TIP3   OH225711   1.955   5.479   1.908 -0.2034 -0.2103 -0.3703
 1407TIP3    H125712   2.013   5.430   1.851  1.5857 -1.3376  2.3204
 1407TIP3    H225713   2.007   5.496   1.987 -2.6789  0.9675  1.0770
 1408TIP3   OH225714   1.537   3.607   4.679 -0.2192  0.4317 -0.8221
 1408TIP3    H125715   1.587   3.687   4.695  1.0284  0.0247 -2.5642
 1408TIP3    H225716   1.487   3.624   4.600 -0.2962 -0.3523 -0.9490
 1409TIP3   OH225717   6.788   5.842   4.986 -0.1325 -0.0252  0.2086
 1409TIP3    H125718   6.735   5.920   4.996  1.9241  1.4794 -0.2761
 1409TIP3    H225719   6.867   5.872   4.941  0.7483 -2.3538  0.1146
 1410TIP3   OH225720   1.700   1.243  15.921 -0.1642  0.0802  0.2240
 1410TIP3    H125721   1.773   1.181  15.915  0.5337  1.0781 -2.3838
 1410TIP3    H225722   1.726   1.304  15.990  0.3867 -0.9648  0.9491
 1411TIP3   OH225723   3.070   3.066   1.481  0.7103  0.1993  0.1401
 1411TIP3    H125724   3.052   3.159   1.495 -0.3240 -0.0045  0.1833
 1411TIP3    H225725   2.985   3.023   1.487  1.0833 -0.6719 -0.5531
 1412TIP3   OH225726   2.333   1.801  11.277  0.1312 -0.6114  0.5047
 1412TIP3    H125727   2.294   1.752  11.350  0.9492 -1.3410  0.4668
 1412TIP3    H225728   2.279   1.778  11.201 -1.7452  1.4682  1.1861
 1413TIP3   OH225729   2.019   0.312   3.143 -0.5372  0.3019 -0.2701
 1413TIP3    H125730   1.961   0.264   3.202  2.0974  0.4536  2.5415
 1413TIP3    H225731   2.003   0.404   3.164 -1.7996  0.5072 -2.0047
 1414TIP3   OH225732   1.034   2.116   0.990  0.1025  0.1778  0.1503
 1414TIP3    H125733   1.019   2.210   0.979  1.7148  0.4266 -0.0353
 1414TIP3    H225734   0.989   2.076   0.916  1.3454  0.9972 -1.0785
 1415TIP3   OH225735   1.759   5.274  16.290 -0.1293  0.3352  0.5183
 1415TIP3    H125736   1.787   5.236  16.207  1.4318  2.3775  0.0838
 1415TIP3    H225737   1.814   5.230  16.355 -1.2417 -1.1474  0.4949
 1416TIP3   OH225738   0.091   5.971   5.418 -0.0720  0.0927 -0.0859
 1416TIP3    H125739   0.132   6.014   5.493 -3.9720 -1.2324  2.9697
 1416TIP3    H225740   0.102   5.877   5.435 -4.1335 -0.3169  0.8320
 1417TIP3   OH225741   1.657   3.817   0.328  0.0198  0.0920  0.6090
 1417TIP3    H125742   1.657   3.867   0.246 -1.8557  0.2719  0.7045
 1417TIP3    H225743   1.644   3.727   0.300 -2.0271  0.3146  0.7753
 1418TIP3   OH225744   5.146   4.512   3.232 -0.4742 -0.0641  0.1503
 1418TIP3    H125745   5.083   4.459   3.182 -2.0017  1.4254  0.4742
 1418TIP3    H225746   5.131   4.486   3.323  0.1264 -0.4763  0.1345
 1419TIP3   OH225747   6.410   6.466  12.069  0.0335 -0.2572 -0.5081
 1419TIP3    H125748   6.442   6.445  12.157 -0.3021  0.3746 -0.2354
 1419TIP3    H225749   6.315   6.472  12.079 -0.0943 -1.1562 -1.1211
 1420TIP3   OH225750   6.764   2.167  15.939 -0.4369  0.1616 -0.2332
 1420TIP3    H125751   6.790   2.146  16.028  0.2203  2.0654  0.0363
 1420TIP3    H225752   6.672   2.142  15.934 -0.0281 -1.5838  0.4229
 1421TIP3   OH225753   1.475   4.318   3.973  0.1037 -0.0059 -0.1267
 1421TIP3    H125754   1.439   4.288   3.890  0.6591 -1.1802  0.0381
 1421TIP3    H225755   1.406   4.299   4.037 -0.3870  1.0475 -0.3432
 1422TIP3   OH225756   1.356   6.095  15.959  0.0763  0.0728 -0.2988
 1422TIP3    H125757   1.445   6.116  15.931  0.6348  0.0310  1.3658
 1422TIP3    H225758   1.351   6.129  16.049 -1.0233 -1.4618  0.2365
 1423TIP3   OH225759   3.428   0.324   1.284  0.7119 -0.0893 -0.0652
 1423TIP3    H125760   3.451   0.259   1.350 -0.6801 -0.9325 -0.4072
 1423TIP3    H225761   3.468   0.291   1.203  0.9013  0.0225 -0.0171
 1424TIP3   OH225762   2.519   3.664  11.216  0.3796  0.3044  0.4422
 1424TIP3    H125763   2.455   3.715  11.168  1.1345  0.5184 -0.3497
 1424TIP3    H225764   2.604   3.698  11.187  0.9969 -2.7432 -1.6694
 1425TIP3   OH225765   2.825   0.824   4.591 -0.5867 -0.0248  0.8899
 1425TIP3    H125766   2.914   0.852   4.569 -0.3595 -0.0802  1.7119
 1425TIP3    H225767   2.831   0.795   4.682 -1.4557  0.0218  0.9674
 1426TIP3   OH225768   2.030   5.196  12.839  0.6138  0.5378  1.1731
 1426TIP3    H125769   2.013   5.288  12.858  0.1147  0.5139  0.8442
 1426TIP3    H225770   1.978   5.177  12.761  0.3948 -0.1242  1.4750
 1427TIP3   OH225771   6.774   6.601   1.248 -0.1419  0.2947 -0.2573
 1427TIP3    H125772   6.733   6.523   1.286  0.1880  0.8913  1.3676
 1427TIP3    H225773   6.701   6.649   1.208 -0.4044 -0.6585 -0.9169
 1428TIP3   OH225774   4.514   6.202  15.039 -0.2681  0.0332  0.1447
 1428TIP3    H125775   4.585   6.189  14.976 -1.0961  1.1738 -1.0643
 1428TIP3    H225776   4.471   6.117  15.046 -1.2471  0.2990 -2.1887
 1429TIP3   OH225777   4.638   4.075  15.007 -0.0731  0.1002 -0.3404
 1429TIP3    H125778   4.646   3.985  14.975  1.3120  0.3097 -0.6123
 1429TIP3    H225779   4.547   4.098  14.992 -0.5555 -1.4186  0.1368
 1430TIP3   OH225780   5.260   3.460  11.661 -0.0056  0.4240  0.1982
 1430TIP3    H125781   5.192   3.506  11.612 -0.3091  0.5905  0.7716
 1430TIP3    H225782   5.217   3.431  11.742  0.5869  0.4795  0.5418
 1431TIP3   OH225783   5.237   0.858   1.898  0.2290 -0.1176  0.0752
 1431TIP3    H125784   5.271   0.882   1.812  0.5487  0.7703  0.4515
 1431TIP3    H225785   5.306   0.804   1.936  0.8792  1.0061  0.5086
 1432TIP3   OH225786   4.555   0.174  16.524  0.6503 -0.1428 -0.7814
 1432TIP3    H125787   4.618   0.194  16.594  1.2002 -1.8497 -0.7659
 1432TIP3    H225788   4.610   0.160  16.446  0.0770  1.2229 -1.4571
 1433TIP3   OH225789   0.550   1.645   4.539  0.4729  0.3090  0.8378
 1433TIP3    H125790   0.618   1.599   4.587 -0.5694 -0.4090  1.6492
 1433TIP3    H225791   0.481   1.662   4.604  0.3243  1.9785  0.2868
 1434TIP3   OH225792   3.581   4.846   2.190  0.5579  0.4536  0.4551
 1434TIP3    H125793   3.510   4.784   2.169  0.8151  0.9601 -2.0199
 1434TIP3    H225794   3.609   4.820   2.278 -0.0424 -2.3059 -0.0983
 1435TIP3   OH225795   4.814   1.175  12.776  0.3920  0.1440 -0.5646
 1435TIP3    H125796   4.909   1.186  12.788  0.5072 -0.5283 -0.8614
 1435TIP3    H225797   4.793   1.096  12.827 -0.0815  0.5292 -0.1569
 1436TIP3   OH225798   5.688   6.620   1.442  0.1046 -0.0103 -0.0218
 1436TIP3    H125799   5.627   6.694   1.444  1.7462  1.3937 -0.9872
 1436TIP3    H225800   5.674   6.580   1.356  0.9201  0.6351 -0.4559
 1437TIP3   OH225801   0.423   6.338   4.818 -0.3073  0.0246  0.2065
 1437TIP3    H125802   0.354   6.302   4.874 -1.0402  1.3281  0.1417
 1437TIP3    H225803   0.501   6.286   4.840 -0.9164 -0.3730  1.4492
 1438TIP3   OH225804   0.194   6.585   2.855  0.0732 -0.5800  0.2375
 1438TIP3    H125805   0.134   6.652   2.889  0.2927  1.5149 -3.2630
 1438TIP3    H225806   0.271   6.591   2.911 -1.2445 -0.2819  2.0779
 1439TIP3   OH225807   3.831   2.514   4.842  0.3210  0.1271 -0.0594
 1439TIP3    H125808   3.923   2.542   4.838  0.6802 -1.0562 -0.2064
 1439TIP3    H225809   3.782   2.588   4.807  1.1252  1.2454  1.1362
 1440TIP3   OH225810   0.519   5.773  14.303  0.5576  0.2054  0.4705
 1440TIP3    H125811   0.501   5.771  14.397 -0.0466 -1.9124  0.3284
 1440TIP3    H225812   0.440   5.739  14.262  0.6256  1.5638 -0.8716
 1441TIP3   OH225813   2.739   0.633  14.096  0.0077  0.1023 -0.1991
 1441TIP3    H125814   2.695   0.649  14.179  0.7147  0.0662  0.1824
 1441TIP3    H225815   2.833   0.635  14.117  0.1681 -1.7752 -0.6288
 1442TIP3   OH225816   3.878   3.963   0.734  0.7403  0.0589  0.1639
 1442TIP3    H125817   3.953   4.022   0.743  1.2716 -0.2736 -1.8043
 1442TIP3    H225818   3.911   3.891   0.681  0.0789 -2.0020  2.4187
 1443TIP3   OH225819   2.333   6.713  15.293 -0.5590  0.1817 -0.2217
 1443TIP3    H125820   2.336   6.618  15.292  0.6048  0.1734  1.1208
 1443TIP3    H225821   2.421   6.739  15.321 -0.2801  1.7173 -2.4121
 1444TIP3   OH225822   0.946   1.632   5.300  0.3514  0.2186 -0.0253
 1444TIP3    H125823   0.902   1.687   5.235 -0.0315 -0.3969 -0.3003
 1444TIP3    H225824   1.025   1.602   5.257  1.6234  2.2245  0.8648
 1445TIP3   OH225825   3.600   6.246   0.898  0.0781  0.0453  0.0389
 1445TIP3    H125826   3.653   6.296   0.960  1.4014  1.1026 -1.8969
 1445TIP3    H225827   3.582   6.307   0.827 -0.4508 -1.4859 -1.1822
 1446TIP3   OH225828   3.590   0.953   4.040  0.0874  0.2288 -0.3530
 1446TIP3    H125829   3.592   1.038   3.995 -1.4696  0.5816  0.2209
 1446TIP3    H225830   3.541   0.896   3.981  0.4404 -0.0574 -0.3701
 1447TIP3   OH225831   5.551   5.225   2.678  0.1009 -0.3112 -0.2995
 1447TIP3    H125832   5.526   5.268   2.596  0.1995 -0.6586 -0.5098
 1447TIP3    H225833   5.641   5.252   2.693 -0.2734  0.6526  0.2738
 1448TIP3   OH225834   1.189   1.098   0.953  0.1692 -0.5943  0.7025
 1448TIP3    H125835   1.244   1.176   0.959 -0.0422 -0.5254  1.8830
 1448TIP3    H225836   1.119   1.114   1.016 -0.4610 -1.2710  0.1698
 1449TIP3   OH225837   4.266   4.260  11.932 -1.0306  0.6236 -0.1342
 1449TIP3    H125838   4.274   4.324  11.861  1.0859 -0.2125 -0.7087
 1449TIP3    H225839   4.321   4.295  12.002 -2.7805  1.2356  0.9588
 1450TIP3   OH225840   2.601   0.588   3.322 -0.3208 -0.0105  0.2134
 1450TIP3    H125841   2.684   0.543   3.310 -0.4801 -0.0507 -0.7886
 1450TIP3    H225842   2.605   0.623   3.411 -0.5425 -2.7095  1.3141
 1451TIP3   OH225843   1.469   2.665  14.077 -0.4430  0.0733  0.4653
 1451TIP3    H125844   1.511   2.705  14.154  0.2985 -1.0437  0.6384
 1451TIP3    H225845   1.508   2.578  14.070 -3.2773 -1.3431  1.1340
 1452TIP3   OH225846   3.560   0.724   3.909 -0.1156  0.3367 -0.1075
 1452TIP3    H125847   3.501   0.701   3.838 -2.1801  2.3362  0.8913
 1452TIP3    H225848   3.518   0.689   3.987  0.3983  1.1066  0.5211
 1453TIP3   OH225849   4.503   4.599   1.800  0.6065 -0.0858  0.2254
 1453TIP3    H125850   4.526   4.634   1.714  2.1227  1.0344  1.0711
 1453TIP3    H225851   4.545   4.658   1.863 -0.2858 -1.0207  1.7426
 1454TIP3   OH225852   1.501   1.344   1.845  0.7966  0.0305 -0.1448
 1454TIP3    H125853   1.476   1.420   1.791 -0.1620  0.3349  0.7064
 1454TIP3    H225854   1.580   1.311   1.804 -0.5071 -0.4043 -2.4245
 1455TIP3   OH225855   0.756   5.894  13.069 -0.5571 -0.9656 -0.2556
 1455TIP3    H125856   0.705   5.892  12.988 -1.2004 -2.2156  0.1674
 1455TIP3    H225857   0.695   5.924  13.136  0.0667  0.4026 -0.2859
 1456TIP3   OH225858   6.454   6.333  16.560 -0.5015  0.3049  0.5351
 1456TIP3    H125859   6.368   6.372  16.573 -1.0068 -1.2748  2.0358
 1456TIP3    H225860   6.441   6.239  16.573  1.1624 -0.1285 -0.6977
 1457TIP3   OH225861   0.044   0.340  13.449 -0.2928  0.3490 -0.1408
 1457TIP3    H125862   0.021   0.269  13.509  1.5589 -2.0716 -2.1708
 1457TIP3    H225863   0.111   0.390  13.495  0.2914 -0.8108  0.2842
 1458TIP3   OH225864   1.332   3.980  12.139 -0.2212  0.2669  0.0201
 1458TIP3    H125865   1.302   3.955  12.226  0.9846  1.3390  0.7462
 1458TIP3    H225866   1.251   3.997  12.090 -0.8545  1.1442  1.3578
 1459TIP3   OH225867   1.250   5.473  15.315 -0.3110 -0.2754 -0.0740
 1459TIP3    H125868   1.326   5.530  15.324  0.5170 -1.1710 -1.3669
 1459TIP3    H225869   1.271   5.395  15.366  0.1528 -1.0405 -1.4242
 1460TIP3   OH225870   3.880   3.484   2.363  0.3414  0.6036 -0.4670
 1460TIP3    H125871   3.922   3.403   2.335  0.4917  0.8217 -0.8779
 1460TIP3    H225872   3.820   3.506   2.292  0.5871  1.0641 -0.5292
 1461TIP3   OH225873   1.903   3.847  11.479 -0.5462 -0.3163  0.2434
 1461TIP3    H125874   1.866   3.760  11.494  2.2891 -1.4254  1.1642
 1461TIP3    H225875   1.988   3.844  11.523  0.7273  2.0468 -1.9353
 1462TIP3   OH225876   2.298   6.687   0.598 -0.3506 -0.4107 -0.2737
 1462TIP3    H125877   2.314   6.627   0.671  1.4982  0.4654  0.0661
 1462TIP3    H225878   2.379   6.685   0.547  0.2841  2.8527  0.5215
 1463TIP3   OH225879   5.561   5.764   1.020  0.2381 -0.5129 -0.6372
 1463TIP3    H125880   5.482   5.752   1.072  0.7874 -1.7240 -0.0637
 1463TIP3    H225881   5.579   5.858   1.024 -1.8447 -0.0362 -1.7854
 1464TIP3   OH225882   3.874   6.645   3.183 -0.5291  0.9595  0.5261
 1464TIP3    H125883   3.893   6.738   3.175  0.5517  0.7276  0.2822
 1464TIP3    H225884   3.893   6.609   3.096  3.6265 -0.2622  1.8352
 1465TIP3   OH225885   4.200   4.166  14.481 -0.2646  0.6457  0.5167
 1465TIP3    H125886   4.268   4.099  14.479 -1.4910 -0.6531  1.2055
 1465TIP3    H225887   4.208   4.211  14.397 -0.8861 -1.8604 -0.9250
 1466TIP3   OH225888   6.095   0.738  13.682 -0.2312 -0.4119  0.4110
 1466TIP3    H125889   6.161   0.785  13.732 -0.3835 -1.7627  1.9376
 1466TIP3    H225890   6.052   0.805  13.629 -0.5842  1.2013  2.6621
 1467TIP3   OH225891   2.018   4.802   1.765 -0.1673 -0.1393  0.4565
 1467TIP3    H125892   1.977   4.716   1.758  1.0002 -0.7253  0.6785
 1467TIP3    H225893   2.073   4.809   1.686  1.6258 -0.6289  1.6403
 1468TIP3   OH225894   3.837   4.940   3.159 -0.7213 -0.5412 -0.5344
 1468TIP3    H125895   3.833   4.877   3.231 -1.3227  1.9122  1.6537
 1468TIP3    H225896   3.747   4.948   3.129 -0.9351  0.6176  0.4021
 1469TIP3   OH225897   5.075   5.781   5.666 -0.5978  0.5791  0.1293
 1469TIP3    H125898   5.091   5.746   5.578 -2.4120  0.9174 -0.3597
 1469TIP3    H225899   4.982   5.805   5.665 -0.9199 -0.4801  2.5004
 1470TIP3   OH225900   0.224   6.095   3.038 -0.1189 -0.2895  0.2576
 1470TIP3    H125901   0.234   6.171   2.981  1.5179  0.3376  1.3482
 1470TIP3    H225902   0.209   6.131   3.126 -0.6171 -1.2293  0.5779
 1471TIP3   OH225903   6.057   1.068  13.695  0.2011  1.1159  0.4732
 1471TIP3    H125904   6.126   1.021  13.742 -0.8208 -0.7859  0.1297
 1471TIP3    H225905   5.998   1.098  13.765 -0.5137 -0.3995  0.5515
 1472TIP3   OH225906   2.043   5.246   1.674 -0.4925  0.3825 -0.0762
 1472TIP3    H125907   2.049   5.252   1.579 -0.5271  0.6997 -0.0570
 1472TIP3    H225908   2.119   5.296   1.706 -0.7835  0.7233  0.0760
 1473TIP3   OH225909   6.620   2.472   3.839 -0.3459 -0.3925  0.1393
 1473TIP3    H125910   6.666   2.534   3.782 -0.4980  0.9676  1.4400
 1473TIP3    H225911   6.629   2.388   3.795 -0.7876  0.6638 -2.0852
 1474TIP3   OH225912   3.488   3.946   2.344 -0.2617 -0.7317  0.3368
 1474TIP3    H125913   3.409   3.998   2.331  2.0280  2.9100  0.1042
 1474TIP3    H225914   3.501   3.945   2.439  0.3305  0.2069  0.2762
 1475TIP3   OH225915   2.928   0.177  15.513  0.4066  0.1143  0.0140
 1475TIP3    H125916   2.858   0.165  15.577 -0.6117  2.2287 -0.6600
 1475TIP3    H225917   3.008   0.182  15.565 -0.4378  2.0437  1.1686
 1476TIP3   OH225918   2.714   4.959   2.983  0.2598 -0.0896  0.5099
 1476TIP3    H125919   2.797   4.985   3.022  0.8183 -1.1075  0.0257
 1476TIP3    H225920   2.674   4.902   3.049 -0.1955  0.6482  0.8717
 1477TIP3   OH225921   5.031   3.345   0.656  0.6894  0.0415 -0.5445
 1477TIP3    H125922   5.103   3.286   0.678 -0.9200 -1.3621  1.1858
 1477TIP3    H225923   5.053   3.379   0.569  2.8824 -1.1865 -0.5077
 1478TIP3   OH225924   1.135   4.736  15.672  0.4270 -0.4247  0.4219
 1478TIP3    H125925   1.095   4.657  15.709 -2.6703 -0.2608 -2.3339
 1478TIP3    H225926   1.194   4.704  15.604  1.0769 -0.4765  1.0141
 1479TIP3   OH225927   1.892   3.792  11.987  0.5286  0.1840  0.7723
 1479TIP3    H125928   1.946   3.870  11.996 -0.0868  0.5865  0.9842
 1479TIP3    H225929   1.836   3.810  11.912  0.2085  0.0441  0.9792
 1480TIP3   OH225930   0.459   5.417   4.337  0.3217  0.1167 -0.5205
 1480TIP3    H125931   0.524   5.347   4.341  0.0111 -0.2050 -1.0225
 1480TIP3    H225932   0.388   5.381   4.283 -0.5450  0.2424  0.5128
 1481TIP3   OH225933   1.498   3.980  13.272 -0.3221  0.1600 -0.2863
 1481TIP3    H125934   1.470   3.889  13.288  0.2714 -0.0532 -0.4723
 1481TIP3    H225935   1.539   4.007  13.354 -0.8431  0.3897 -0.1003
 1482TIP3   OH225936   2.102   2.116  16.414  0.3825  0.1045  0.5779
 1482TIP3    H125937   2.144   2.055  16.475  2.4790  0.8539 -0.0773
 1482TIP3    H225938   2.104   2.200  16.459  0.4197  0.3388  0.1400
 1483TIP3   OH225939   6.001   4.738  14.647  0.1967 -0.5144  0.3630
 1483TIP3    H125940   5.945   4.681  14.700 -1.5435 -0.3431 -1.2566
 1483TIP3    H225941   6.004   4.821  14.695 -1.0230 -0.4879  0.3974
 1484TIP3   OH225942   0.783   4.319  11.748  0.1170 -0.0254 -0.0446
 1484TIP3    H125943   0.827   4.384  11.803  0.0112 -0.7935  0.9606
 1484TIP3    H225944   0.847   4.297  11.681  1.0893 -0.7369  1.0980
 1485TIP3   OH225945   5.973   5.597   2.880 -0.7101 -0.0105 -0.0559
 1485TIP3    H125946   6.055   5.600   2.930 -2.5125 -0.1868  3.0390
 1485TIP3    H225947   5.958   5.687   2.852 -0.3083  0.3371  0.8252
 1486TIP3   OH225948   4.251   0.313  12.572 -0.1468 -0.4302  0.1481
 1486TIP3    H125949   4.335   0.356  12.555 -1.1231  2.7314  2.9175
 1486TIP3    H225950   4.199   0.333  12.494  0.9765 -0.6754 -0.6917
 1487TIP3   OH225951   2.689   5.437  12.157 -0.2934 -0.0555 -0.0873
 1487TIP3    H125952   2.639   5.516  12.140 -1.6521 -1.0586 -0.8188
 1487TIP3    H225953   2.641   5.392  12.227 -2.0462 -2.3932 -2.6849
 1488TIP3   OH225954   2.031   2.051   1.169  0.2436 -0.6261  0.4566
 1488TIP3    H125955   2.069   2.038   1.083  1.0574  0.3310  0.6640
 1488TIP3    H225956   1.937   2.035   1.157  0.6019 -2.2693 -0.2115
 1489TIP3   OH225957   3.019   5.750  15.465  0.5356 -0.3658 -0.1090
 1489TIP3    H125958   3.084   5.717  15.402  0.9402 -1.0870  0.6873
 1489TIP3    H225959   2.953   5.682  15.469  1.2115 -0.9562  1.2941
 1490TIP3   OH225960   3.597   5.447   5.772  0.3086 -0.1657  0.2602
 1490TIP3    H125961   3.619   5.354   5.771 -0.8959 -0.4624  0.9538
 1490TIP3    H225962   3.548   5.459   5.854 -0.8126  0.7778 -0.5441
 1491TIP3   OH225963   3.046   1.408  13.123  0.4173 -0.3965  0.1251
 1491TIP3    H125964   3.082   1.336  13.174  0.1455 -1.8017 -1.6417
 1491TIP3    H225965   3.020   1.473  13.189 -0.4452 -2.3920  1.8205
 1492TIP3   OH225966   6.792   5.429   1.582 -0.1496 -0.3767  0.4419
 1492TIP3    H125967   6.786   5.503   1.642 -2.1374 -0.1723  0.0096
 1492TIP3    H225968   6.771   5.466   1.496  1.2213 -0.9743 -0.1722
 1493TIP3   OH225969   1.918   5.432  11.231  0.1098 -0.3157  0.7475
 1493TIP3    H125970   1.933   5.468  11.318  0.3356 -1.7556  1.3308
 1493TIP3    H225971   1.827   5.453  11.211  0.0368 -0.0453  1.3593
 1494TIP3   OH225972   2.612   3.355  13.475 -0.1319  0.2448  0.1633
 1494TIP3    H125973   2.578   3.311  13.397 -1.5175 -0.2363  1.0128
 1494TIP3    H225974   2.576   3.443  13.470  2.2154  1.1701 -1.2660
 1495TIP3   OH225975   5.147   0.624  11.678  0.2028  0.1967  0.3133
 1495TIP3    H125976   5.185   0.552  11.728 -0.3700 -0.1113  0.3000
 1495TIP3    H225977   5.222   0.680  11.656  0.5184  0.0891  1.1064
 1496TIP3   OH225978   5.167   4.369   1.368  0.1482 -0.3171 -0.9341
 1496TIP3    H125979   5.243   4.346   1.314  0.2667 -1.4661 -0.2978
 1496TIP3    H225980   5.092   4.339   1.316  0.1931 -0.2952 -1.0130
 1497TIP3   OH225981   0.545   4.850  16.776  0.0668 -0.5457 -0.0897
 1497TIP3    H125982   0.470   4.822  16.828 -0.0080  0.3994  0.3334
 1497TIP3    H225983   0.514   4.928  16.729  0.8118 -0.0794  0.1828
 1498TIP3   OH225984   1.665   2.901   2.455  0.1964 -0.1399  0.4232
 1498TIP3    H125985   1.725   2.883   2.527  1.0449  3.1517  0.5790
 1498TIP3    H225986   1.705   2.858   2.379  1.5492  0.0570  1.0157
 1499TIP3   OH225987   5.647   1.748   2.940  0.8292  0.1501  0.2923
 1499TIP3    H125988   5.561   1.734   2.900  0.5063  0.3892  0.8844
 1499TIP3    H225989   5.685   1.661   2.947  1.2692  0.1865 -1.3481
 1500TIP3   OH225990   4.856   3.186  15.625 -0.5309  0.6282  0.2596
 1500TIP3    H125991   4.856   3.091  15.614 -0.2592  0.6729 -0.1197
 1500TIP3    H225992   4.914   3.201  15.699 -0.1882  0.5356  0.0094
 1501TIP3   OH225993   1.994   6.434  15.425  0.3303 -0.0531 -0.1563
 1501TIP3    H125994   1.950   6.355  15.458 -0.7100  0.0771 -1.1802
 1501TIP3    H225995   1.985   6.427  15.330  0.1804  1.3307 -0.2485
 1502TIP3   OH225996   1.016   3.927   1.212  0.3127  0.0292 -0.4512
 1502TIP3    H125997   0.940   3.869   1.219 -0.0318  0.2997 -1.8204
 1502TIP3    H225998   1.079   3.878   1.160  0.4997  0.4052 -0.5814
 1503TIP3   OH225999   5.809   1.175   3.707 -0.1026  0.0314 -0.3171
 1503TIP3    H126000   5.845   1.113   3.643 -0.8127  0.6985 -1.3677
 1503TIP3    H226001   5.717   1.184   3.683 -0.7281 -0.8071  1.6785
 1504TIP3   OH226002   2.117   4.121   4.999 -0.1288 -0.0035  0.2137
 1504TIP3    H126003   2.111   4.063   5.075  0.9275  1.0839  1.1563
 1504TIP3    H226004   2.074   4.202   5.027 -0.0324  0.2887 -0.4673
 1505TIP3   OH226005   2.434   5.578  14.640 -0.0472  0.2484 -0.0822
 1505TIP3    H126006   2.497   5.629  14.691  1.8307 -0.5145 -1.5562
 1505TIP3    H226007   2.404   5.638  14.572 -0.6445  0.5200  0.4292
 1506TIP3   OH226008   0.153   0.460  13.075 -0.6400  0.3750  0.1438
 1506TIP3    H126009   0.088   0.407  13.028 -1.8099  1.1471  0.8540
 1506TIP3    H226010   0.170   0.411  13.156  3.0112 -2.0754 -1.9410
 1507TIP3   OH226011   4.852   2.280   0.550  0.0802  0.2428  0.2540
 1507TIP3    H126012   4.845   2.369   0.515 -2.0312  0.0739  0.1724
 1507TIP3    H226013   4.761   2.251   0.561  0.7318 -1.5259  1.2546
 1508TIP3   OH226014   0.384   2.690   3.314  0.4753  0.3628 -0.4180
 1508TIP3    H126015   0.479   2.684   3.317  0.5004  0.3502 -1.0843
 1508TIP3    H226016   0.360   2.737   3.393  1.2338  2.6861 -1.5289
 1509TIP3   OH226017   5.494   4.474  11.968 -0.4744 -0.1814  0.1970
 1509TIP3    H126018   5.429   4.432  11.911 -1.6767  1.1218  0.5512
 1509TIP3    H226019   5.562   4.505  11.908 -0.7281 -0.5949 -0.3107
 1510TIP3   OH226020   6.301   2.124  14.612 -0.5764 -0.3011  0.4067
 1510TIP3    H126021   6.249   2.050  14.642 -2.0049  0.9867  1.2317
 1510TIP3    H226022   6.343   2.158  14.692  0.8144 -0.7709 -0.1086
 1511TIP3   OH226023   2.365   0.766  12.725  0.0463  0.2073  0.2296
 1511TIP3    H126024   2.450   0.808  12.715 -0.2429  0.3768 -1.6749
 1511TIP3    H226025   2.386   0.675  12.746  0.7183  0.0029 -1.2832
 1512TIP3   OH226026   0.479   0.856   4.091 -0.2459 -0.1574  0.1642
 1512TIP3    H126027   0.458   0.816   4.007 -0.1633  1.0801 -0.4620
 1512TIP3    H226028   0.456   0.948   4.080 -0.9943 -0.1357  1.7752
 1513TIP3   OH226029   1.036   3.537  13.985  0.3337 -0.5269 -0.0006
 1513TIP3    H126030   1.039   3.631  13.968  0.1602 -0.6843 -0.9546
 1513TIP3    H226031   0.973   3.503  13.921  0.0726 -1.2305  0.6206
 1514TIP3   OH226032   5.355   0.578   0.555  0.1380  0.2830 -0.0954
 1514TIP3    H126033   5.342   0.519   0.629  0.6534  0.1926 -0.0793
 1514TIP3    H226034   5.286   0.644   0.565  0.2160  0.2790  0.4665
 1515TIP3   OH226035   3.654   5.257  13.753 -0.2435  0.5919  0.0470
 1515TIP3    H126036   3.748   5.263  13.767 -0.3108  0.4858  0.5418
 1515TIP3    H226037   3.628   5.346  13.728 -0.0932  0.7392  0.4115
 1516TIP3   OH226038   0.494   5.553   0.992 -0.4218  0.2347 -0.6755
 1516TIP3    H126039   0.528   5.642   0.992  0.7377 -0.2002 -0.4432
 1516TIP3    H226040   0.567   5.499   1.022 -1.0717 -0.8075 -0.9294
 1517TIP3   OH226041   0.660   4.450   1.026 -0.1285  1.1626 -0.2396
 1517TIP3    H126042   0.604   4.527   1.029  1.7990  2.5830 -0.0097
 1517TIP3    H226043   0.600   4.377   1.041 -1.8892  2.6469  0.1561
 1518TIP3   OH226044   0.353   0.168   0.800 -0.0076 -0.3604  0.1214
 1518TIP3    H126045   0.310   0.109   0.738 -0.1806 -1.0351  0.8851
 1518TIP3    H226046   0.385   0.240   0.745  0.3608 -1.2421 -0.8318
 1519TIP3   OH226047   1.999   5.333   2.916  0.2374  0.3828  0.1219
 1519TIP3    H126048   2.011   5.250   2.870 -1.0431 -1.8833  3.7037
 1519TIP3    H226049   2.083   5.351   2.958  0.7504  1.3521 -1.2714
 1520TIP3   OH226050   0.366   5.043   3.361 -0.2483 -0.5347  0.2677
 1520TIP3    H126051   0.441   4.991   3.389  0.4986  0.7913  0.7674
 1520TIP3    H226052   0.298   5.023   3.425  0.3668 -0.1428  1.0730
 1521TIP3   OH226053   5.111   4.880  10.539  0.3164  0.1026  0.1523
 1521TIP3    H126054   5.091   4.965  10.501  2.6046  0.0260 -1.3809
 1521TIP3    H226055   5.206   4.881  10.549  0.1833 -1.6037  1.7789
 1522TIP3   OH226056   0.480   4.623  11.288  0.0553 -0.6038 -0.3839
 1522TIP3    H126057   0.544   4.555  11.266  0.5259 -0.4353  0.4540
 1522TIP3    H226058   0.533   4.697  11.316 -0.4692  0.0143 -1.0119
 1523TIP3   OH226059   2.658   3.987  14.141  0.3313  0.2957  0.2989
 1523TIP3    H126060   2.650   3.960  14.050 -1.6861  1.4624  0.0831
 1523TIP3    H226061   2.669   3.906  14.190 -1.3022 -0.5847 -0.7489
 1524TIP3   OH226062   4.476   4.674   1.310 -0.5565  0.3681 -0.0225
 1524TIP3    H126063   4.384   4.664   1.331 -0.5235 -0.6543 -0.3350
 1524TIP3    H226064   4.490   4.769   1.308 -1.6047  0.5277 -0.0247
 1525TIP3   OH226065   3.589   2.578   3.671  0.1156 -0.2566  0.9290
 1525TIP3    H126066   3.654   2.515   3.640 -0.9330 -0.0928 -1.7888
 1525TIP3    H226067   3.640   2.644   3.717  1.8071 -0.5729 -0.4179
 1526TIP3   OH226068   5.253   1.540   0.821 -0.2539 -0.0625  0.1123
 1526TIP3    H126069   5.322   1.482   0.854 -0.7366 -1.3575 -1.0989
 1526TIP3    H226070   5.177   1.521   0.876  0.5167  1.8753  1.9119
 1527TIP3   OH226071   6.133   6.551  14.123 -0.5120 -0.2856 -0.3760
 1527TIP3    H126072   6.101   6.471  14.083  1.0888 -1.1452  0.0285
 1527TIP3    H226073   6.174   6.599  14.051 -1.2729  0.0860 -0.5725
 1528TIP3   OH226074   2.561   3.315  14.944 -0.2767 -0.1700 -0.4895
 1528TIP3    H126075   2.657   3.319  14.950 -0.4075  1.5893  0.7392
 1528TIP3    H226076   2.531   3.400  14.975 -2.3022 -1.1565  0.3960
 1529TIP3   OH226077   6.357   3.242  11.406  0.5689 -0.3386  0.1478
 1529TIP3    H126078   6.279   3.239  11.350 -0.4843 -0.2716  1.5845
 1529TIP3    H226079   6.348   3.324  11.455  0.4191 -1.3553  1.8753
 1530TIP3   OH226080   1.497   1.721  12.237 -0.5115 -0.1452  0.4035
 1530TIP3    H126081   1.571   1.663  12.252  0.6794  0.9375 -1.2008
 1530TIP3    H226082   1.486   1.724  12.142 -1.6729  0.8794  0.5447
 1531TIP3   OH226083   1.750   1.190   0.910 -0.2050 -0.5865  0.0638
 1531TIP3    H126084   1.725   1.098   0.908  0.3622 -0.7195 -1.9395
 1531TIP3    H226085   1.839   1.192   0.877 -0.0450  0.6390  0.5369
 1532TIP3   OH226086   0.866   4.575   2.871 -0.2421  0.1826  0.3045
 1532TIP3    H126087   0.882   4.480   2.868 -0.5953  0.1374 -0.1394
 1532TIP3    H226088   0.838   4.591   2.961  0.6422  0.0015  0.6190
 1533TIP3   OH226089   5.035   4.637  16.158  0.5586 -0.0576 -0.6806
 1533TIP3    H126090   5.120   4.678  16.177 -0.3701  1.0872  1.1566
 1533TIP3    H226091   4.997   4.692  16.090 -0.4556  1.9164  1.4109
 1534TIP3   OH226092   5.912   0.771   1.439  0.1114  0.6097 -0.6173
 1534TIP3    H126093   5.876   0.702   1.383  1.5544  0.5711 -1.5257
 1534TIP3    H226094   5.917   0.848   1.382  1.5664  0.5753 -0.5745
 1535TIP3   OH226095   0.774   3.867   1.950 -0.7198 -0.0041 -0.3258
 1535TIP3    H126096   0.738   3.815   1.878 -0.5783 -0.7155  0.1206
 1535TIP3    H226097   0.703   3.873   2.014 -1.1598  1.3953 -0.9051
 1536TIP3   OH226098   2.862   1.007   1.278  0.1001  0.0086  0.3026
 1536TIP3    H126099   2.949   1.045   1.291  0.4893 -0.0915 -1.8032
 1536TIP3    H226100   2.857   0.991   1.183 -3.0949  2.1475  0.0361
 1537TIP3   OH226101   4.322   4.667   3.549  0.1036 -0.3954  0.2048
 1537TIP3    H126102   4.247   4.706   3.504  0.3888  0.4433  0.4557
 1537TIP3    H226103   4.286   4.591   3.594 -0.7767  0.5022  1.0426
 1538TIP3   OH226104   1.800   2.263   0.774  0.4569 -0.6073 -0.1526
 1538TIP3    H126105   1.750   2.326   0.826  1.6963 -1.8245  2.6293
 1538TIP3    H226106   1.761   2.267   0.687 -3.8916 -0.8951  1.6547
 1539TIP3   OH226107   1.170   1.764  12.890 -0.3471 -0.2141 -0.1093
 1539TIP3    H126108   1.149   1.671  12.900  1.9491 -0.5609  2.0102
 1539TIP3    H226109   1.086   1.809  12.900 -1.0989 -1.9227  1.4869
 1540TIP3   OH226110   4.123   5.069  16.342  0.1003 -0.1007 -0.2017
 1540TIP3    H126111   4.082   5.010  16.405  0.0001  0.2463  0.0606
 1540TIP3    H226112   4.212   5.035  16.331  0.4890  0.5214  1.0137
 1541TIP3   OH226113   4.708   3.175  11.646 -0.2218  0.3388 -0.2003
 1541TIP3    H126114   4.620   3.176  11.683 -0.3700 -0.6246 -0.5251
 1541TIP3    H226115   4.704   3.113  11.573  0.1804  1.8808 -1.5835
 1542TIP3   OH226116   2.217   1.768  13.818  0.2914  0.3092  0.3854
 1542TIP3    H126117   2.138   1.717  13.800  1.3250 -1.1005 -0.3764
 1542TIP3    H226118   2.286   1.701  13.825  1.7307  1.6172 -0.8645
 1543TIP3   OH226119   3.212   0.352   0.003  0.5438 -0.4176  0.0288
 1543TIP3    H126120   3.200   0.332  -0.090  0.0872  1.7218 -0.3857
 1543TIP3    H226121   3.307   0.345   0.017  0.6477 -0.3899 -0.6661
 1544TIP3   OH226122   5.113   5.392  13.763  0.0098 -0.9972 -0.3732
 1544TIP3    H126123   5.171   5.378  13.688 -1.6799 -1.2177 -1.6690
 1544TIP3    H226124   5.046   5.453  13.731 -0.4231 -0.6543  1.1309
 1545TIP3   OH226125   1.807   3.594  11.463  0.0523  0.0300  0.5574
 1545TIP3    H126126   1.738   3.546  11.418 -0.7339  2.2129 -0.6357
 1545TIP3    H226127   1.886   3.578  11.412 -0.2722  0.2374 -0.0125
 1546TIP3   OH226128   4.283   4.808  15.796 -0.1372  0.6246 -0.0153
 1546TIP3    H126129   4.212   4.857  15.755  0.2892  0.9323 -0.3933
 1546TIP3    H226130   4.266   4.717  15.772 -0.9868  0.5774  0.7742
 1547TIP3   OH226131   0.405   5.574   1.915  0.2880 -0.2702 -0.6463
 1547TIP3    H126132   0.329   5.593   1.970  2.4860 -1.1914  2.8816
 1547TIP3    H226133   0.430   5.659   1.878  0.5906  0.9844  2.3203
 1548TIP3   OH226134   4.963   4.456  16.710  0.0271 -0.1114 -0.2660
 1548TIP3    H126135   5.025   4.528  16.705  0.3923 -0.4495 -0.6136
 1548TIP3    H226136   4.945   4.432  16.619 -1.7639  0.9598 -0.2268
 1549TIP3   OH226137   1.470   4.889  11.523  0.2290  0.7133  0.2698
 1549TIP3    H126138   1.399   4.845  11.476  1.0241  0.1699 -0.4545
 1549TIP3    H226139   1.448   4.982  11.519 -0.5596  0.5269  0.2526
 1550TIP3   OH226140   3.693   4.864   0.165  0.9818  0.5390 -0.3599
 1550TIP3    H126141   3.597   4.862   0.174  1.0947 -1.1377  0.6801
 1550TIP3    H226142   3.708   4.857   0.071  0.0775  1.3618 -0.5778
 1551TIP3   OH226143   1.210   4.589   5.501 -0.5012  0.9107 -0.5001
 1551TIP3    H126144   1.240   4.537   5.575 -0.2116  1.3956 -0.2687
 1551TIP3    H226145   1.229   4.679   5.526 -0.2898  1.0688 -1.2141
 1552TIP3   OH226146   3.253   2.726   3.846 -0.5556  0.1611  0.6822
 1552TIP3    H126147   3.342   2.759   3.862 -0.4047  0.9997 -1.6239
 1552TIP3    H226148   3.247   2.647   3.900  1.4575  0.2825  1.1598
 1553TIP3   OH226149   4.893   6.216  14.637  0.7928 -0.1381  0.4089
 1553TIP3    H126150   4.971   6.265  14.614  0.3961  0.0459 -0.5848
 1553TIP3    H226151   4.857   6.187  14.553 -0.5720  0.3559  0.7987
 1554TIP3   OH226152   2.454   4.964   5.509  0.0729  0.0210  0.5718
 1554TIP3    H126153   2.448   5.003   5.596  1.2106 -0.7949  1.0283
 1554TIP3    H226154   2.512   4.889   5.520 -1.5768 -1.4513 -0.4309
 1555TIP3   OH226155   4.952   4.537   4.734 -0.0749 -0.0021  0.4448
 1555TIP3    H126156   5.012   4.464   4.720  0.2353  0.3022  0.1756
 1555TIP3    H226157   5.009   4.614   4.736 -0.3728  0.2096  0.9456
 1556TIP3   OH226158   6.078   0.466  11.916 -0.9036  0.7596 -0.0390
 1556TIP3    H126159   6.027   0.478  11.835 -0.4655  0.0061 -0.4289
 1556TIP3    H226160   6.014   0.434  11.980 -1.0108  0.2396 -0.4062
 1557TIP3   OH226161   5.194   2.931   1.094 -0.6762  0.3678 -0.0123
 1557TIP3    H126162   5.139   2.854   1.102  0.6856 -0.7796 -1.3507
 1557TIP3    H226163   5.140   2.995   1.048 -0.9017 -0.7444 -1.3204
 1558TIP3   OH226164   4.459   1.633  13.730  0.0568  0.0722  0.2180
 1558TIP3    H126165   4.534   1.679  13.771 -1.1143  0.9314  1.4555
 1558TIP3    H226166   4.383   1.663  13.780 -1.2008 -0.3197 -1.4274
 1559TIP3   OH226167   3.343   2.477   5.694 -0.4315 -0.4321 -0.0665
 1559TIP3    H126168   3.333   2.514   5.782  0.3862 -2.2345  0.8116
 1559TIP3    H226169   3.261   2.430   5.678 -0.2741 -0.7542  0.0620
 1560TIP3   OH226170   0.013   1.987   2.926  0.3696  0.2506 -0.6844
 1560TIP3    H126171   0.056   1.957   3.006 -0.2070  0.7098 -0.1978
 1560TIP3    H226172  -0.064   1.931   2.918  1.0446 -0.5865 -1.5679
 1561TIP3   OH226173   1.824   3.335   3.100  0.0343  0.2237 -0.3369
 1561TIP3    H126174   1.866   3.260   3.142  0.2280 -0.0399 -0.9954
 1561TIP3    H226175   1.739   3.302   3.070  0.6613 -0.1082 -1.8105
 1562TIP3   OH226176   1.185   4.727  12.743  0.1828  0.7095 -0.2758
 1562TIP3    H126177   1.170   4.821  12.759 -0.2971  0.3683  1.4213
 1562TIP3    H226178   1.273   4.711  12.778  0.7038  0.7496 -1.5667
 1563TIP3   OH226179   5.260   6.804   4.168 -0.1601 -0.2506  0.3971
 1563TIP3    H126180   5.222   6.865   4.104  1.2099  0.4862  0.2760
 1563TIP3    H226181   5.352   6.796   4.142 -0.2403 -2.1273  0.6132
 1564TIP3   OH226182   6.037   5.969  12.396 -0.0037 -0.1878 -0.2595
 1564TIP3    H126183   5.987   6.014  12.463 -0.0989 -0.7946  0.0867
 1564TIP3    H226184   5.976   5.956  12.324 -0.0939 -0.1471 -0.1895
 1565TIP3   OH226185   3.047   4.640   1.345 -0.3181 -0.0861  1.0290
 1565TIP3    H126186   2.991   4.706   1.386  0.4298  0.1819  1.6210
 1565TIP3    H226187   3.090   4.687   1.273 -2.4614 -0.8289 -0.7930
 1566TIP3   OH226188   5.016   5.395  10.726 -0.1442  0.1526 -0.7666
 1566TIP3    H126189   5.036   5.477  10.772  2.0182 -0.8001  0.0471
 1566TIP3    H226190   4.936   5.363  10.768 -1.1342  1.9539 -1.2554
 1567TIP3   OH226191   1.910   2.486   2.150  0.3438 -0.0152  0.4272
 1567TIP3    H126192   1.903   2.514   2.059 -0.9160  0.4041  0.6459
 1567TIP3    H226193   1.842   2.419   2.159 -0.3918  0.8607  1.4007
 1568TIP3   OH226194   5.324   3.251   5.476 -0.5314  0.1417 -0.0101
 1568TIP3    H126195   5.271   3.172   5.487 -0.2862 -0.2603 -1.5637
 1568TIP3    H226196   5.270   3.309   5.422 -0.8071  1.1356  1.3312
 1569TIP3   OH226197   1.754   1.264  13.257  0.1809  0.0857 -0.2676
 1569TIP3    H126198   1.666   1.230  13.242 -0.1331  0.6167  0.3251
 1569TIP3    H226199   1.801   1.248  13.175 -0.7268  0.5877 -0.8905
 1570TIP3   OH226200   5.864   4.826   0.406  0.1921  0.0182 -0.7743
 1570TIP3    H126201   5.935   4.831   0.470 -0.1542  0.5353 -0.4329
 1570TIP3    H226202   5.909   4.820   0.321  0.6494 -0.8847 -0.4739
 1571TIP3   OH226203   1.165   4.612  12.367  0.0587  0.4279 -0.0870
 1571TIP3    H126204   1.103   4.685  12.366  0.2057  0.5684  0.5097
 1571TIP3    H226205   1.251   4.653  12.356  0.1806  0.3961  0.7098
 1572TIP3   OH226206   3.185   2.778   3.181 -0.1939  0.1087 -0.1879
 1572TIP3    H126207   3.173   2.836   3.256 -0.8267 -0.6848  0.3299
 1572TIP3    H226208   3.267   2.731   3.200 -0.9841 -0.9756  0.6072
 1573TIP3   OH226209   0.290   0.874   3.892  0.0995  0.0804 -0.1260
 1573TIP3    H126210   0.223   0.843   3.953 -1.4399  1.0780 -1.2731
 1573TIP3    H226211   0.310   0.963   3.922 -0.8823  0.6859 -1.2256
 1574TIP3   OH226212   0.988   2.618   3.397  0.0995  0.2197 -0.1036
 1574TIP3    H126213   0.981   2.603   3.303  2.0318 -1.1610 -0.0530
 1574TIP3    H226214   1.024   2.536   3.432  0.7532  1.2243  1.6579
 1575TIP3   OH226215   2.258   1.616  16.731  0.3963  0.1110 -0.8579
 1575TIP3    H126216   2.187   1.554  16.751 -0.7043  0.3610 -3.7059
 1575TIP3    H226217   2.269   1.667  16.811 -1.1655 -1.3769  0.3463
 1576TIP3   OH226218   4.319   4.858   4.983 -0.1929  0.1103 -0.5906
 1576TIP3    H126219   4.227   4.850   5.010  0.0923 -1.2450 -0.0128
 1576TIP3    H226220   4.315   4.912   4.904 -1.6172 -0.9507 -1.2856
 1577TIP3   OH226221   0.723   5.060   3.486  0.1024  0.0591 -0.0671
 1577TIP3    H126222   0.728   5.027   3.576 -1.4388  1.5508  0.5833
 1577TIP3    H226223   0.639   5.027   3.453  0.6330 -0.4336 -0.9565
 1578TIP3   OH226224   3.168   1.211  14.701 -0.7403 -0.2636 -0.7192
 1578TIP3    H126225   3.222   1.229  14.624  1.4765 -1.8188  0.4178
 1578TIP3    H226226   3.079   1.201  14.666  0.2358 -1.0189 -3.0945
 1579TIP3   OH226227   0.876   3.187   2.585 -0.0129  0.6734  0.3913
 1579TIP3    H126228   0.797   3.208   2.635 -1.9887 -0.3718 -2.1348
 1579TIP3    H226229   0.912   3.110   2.629 -1.9494 -0.4964  0.0414
 1580TIP3   OH226230   0.084   1.741   5.466  0.5678  0.2780  0.2237
 1580TIP3    H126231   0.122   1.798   5.533 -0.0364  2.1894 -1.0159
 1580TIP3    H226232  -0.008   1.766   5.462 -0.4078 -2.7522  1.5926
 1581TIP3   OH226233   2.385   0.717  15.431  0.3280 -0.3080 -0.1217
 1581TIP3    H126234   2.365   0.720  15.525  2.5962 -0.3902  0.3916
 1581TIP3    H226235   2.371   0.625  15.407 -1.0139 -0.1385 -0.0692
 1582TIP3   OH226236   1.652   0.683  12.090  0.7529  0.1911  0.1592
 1582TIP3    H126237   1.683   0.630  12.164 -0.0689  1.0462  1.1414
 1582TIP3    H226238   1.683   0.772  12.111 -1.4316  0.8712  0.6466
 1583TIP3   OH226239   3.238   1.791  13.756  0.7825  0.7940  0.4754
 1583TIP3    H126240   3.174   1.743  13.809  1.2861  0.5697  0.8862
 1583TIP3    H226241   3.218   1.767  13.666  0.5315  0.4267  0.6308
 1584TIP3   OH226242   0.162   3.186  14.920 -0.0368 -0.0655  0.4782
 1584TIP3    H126243   0.069   3.185  14.898 -0.0025 -0.2978  0.3501
 1584TIP3    H226244   0.196   3.264  14.876  0.0129 -0.4717 -0.2013
 1585TIP3   OH226245   5.058   1.424  12.461 -0.6089 -0.2528 -0.6174
 1585TIP3    H126246   5.102   1.438  12.377 -0.8590  0.0994 -0.6929
 1585TIP3    H226247   5.128   1.402  12.522 -0.3531  0.1060 -0.7805
 1586TIP3   OH226248   5.465   1.279   2.248  0.2046 -0.1283 -0.4041
 1586TIP3    H126249   5.378   1.288   2.287 -0.0760 -1.0749 -0.7839
 1586TIP3    H226250   5.524   1.266   2.322 -0.1295 -0.4988 -0.1996
 1587TIP3   OH226251   2.408   1.096   2.963  0.1948  0.1317 -0.0041
 1587TIP3    H126252   2.319   1.122   2.940  0.2845 -0.4418 -1.0680
 1587TIP3    H226253   2.398   1.021   3.021 -0.0204 -0.0009 -0.2114
 1588TIP3   OH226254   6.221   3.601  15.745  0.2386  0.3471  0.1106
 1588TIP3    H126255   6.260   3.522  15.705  3.9016  0.7455  2.6309
 1588TIP3    H226256   6.258   3.673  15.694  0.2842  0.6107  0.5185
 1589TIP3   OH226257   3.771   3.992   4.497  0.2147  0.2091 -0.1515
 1589TIP3    H126258   3.758   4.079   4.461 -0.6635  0.1303 -0.0390
 1589TIP3    H226259   3.749   3.932   4.425  0.0758  0.0744  0.0017
 1590TIP3   OH226260   4.974   2.862   3.030  0.0824 -0.0535 -0.1004
 1590TIP3    H126261   4.892   2.884   2.987  0.8603  0.4092 -1.3860
 1590TIP3    H226262   5.018   2.946   3.043  0.0680 -0.2375  1.1733
 1591TIP3   OH226263   3.519   6.079  11.439 -0.0648  0.5251  0.7561
 1591TIP3    H126264   3.547   6.014  11.502  0.4255 -0.0449 -0.0382
 1591TIP3    H226265   3.600   6.120  11.408 -0.1217 -0.6200 -1.0060
 1592TIP3   OH226266   4.359   0.885  11.555 -0.2093  0.1527  0.3256
 1592TIP3    H126267   4.422   0.833  11.504 -0.8354 -0.5033  0.2105
 1592TIP3    H226268   4.354   0.840  11.640 -0.5079  0.2125  0.3422
 1593TIP3   OH226269   4.799   2.510  15.061 -0.0014 -0.4283  0.4459
 1593TIP3    H126270   4.738   2.538  14.992  0.2628 -0.0058  0.3842
 1593TIP3    H226271   4.862   2.454  15.016  1.0440  1.0406  0.0511
 1594TIP3   OH226272   6.495   4.361   4.854  0.4315  0.3166  0.9326
 1594TIP3    H126273   6.573   4.376   4.909  1.9761 -0.1277 -1.0653
 1594TIP3    H226274   6.521   4.392   4.767 -1.3895 -0.5013  0.0827
 1595TIP3   OH226275   5.986   5.892  16.260 -0.1190  0.5479 -0.0649
 1595TIP3    H126276   5.978   5.970  16.205  0.7608 -0.6849 -1.9813
 1595TIP3    H226277   5.920   5.832  16.227  1.1112 -0.6055 -0.4669
 1596TIP3   OH226278   4.146   4.590  15.148  0.1057  0.4950 -0.5081
 1596TIP3    H126279   4.168   4.672  15.193  1.2918  0.3598 -0.8391
 1596TIP3    H226280   4.214   4.529  15.175  1.1156  0.5383 -2.8380
 1597TIP3   OH226281   4.458   0.068   5.178 -0.3704  0.1678  0.3355
 1597TIP3    H126282   4.446   0.128   5.252 -1.6123  0.6751 -0.2625
 1597TIP3    H226283   4.511   0.117   5.115 -2.4649  1.1382 -0.7054
 1598TIP3   OH226284   0.992   6.735   3.456  0.1650  0.4471 -0.3759
 1598TIP3    H126285   0.920   6.692   3.501  0.4265  0.6128  0.2063
 1598TIP3    H226286   1.046   6.772   3.526  1.8708 -1.3218 -0.7209
 1599TIP3   OH226287   1.076   1.622   4.024  0.3527 -0.6935  0.2890
 1599TIP3    H126288   1.062   1.697   3.966 -0.1858  0.1829  1.5222
 1599TIP3    H226289   1.149   1.574   3.985  0.5065  0.3141 -0.6698
 1600TIP3   OH226290   3.651   3.476  13.693  0.8390  0.1758  0.9960
 1600TIP3    H126291   3.617   3.388  13.711  1.3044 -0.2113  0.0815
 1600TIP3    H226292   3.741   3.473  13.723  1.3150 -0.1588 -0.3882
 1601TIP3   OH226293   2.180   4.897  16.432 -0.8421  0.4209  0.3749
 1601TIP3    H126294   2.232   4.850  16.367 -1.5848  0.4188 -0.2143
 1601TIP3    H226295   2.229   4.977  16.448  2.1238 -1.9150  3.7455
 1602TIP3   OH226296   1.193   5.718  11.193 -0.2392  1.2978 -0.1722
 1602TIP3    H126297   1.122   5.714  11.257  0.0327  0.7932  0.1036
 1602TIP3    H226298   1.149   5.719  11.108 -0.5438 -0.9641 -0.0659
 1603TIP3   OH226299   5.714   1.754   5.117 -0.3848  0.1519  0.2023
 1603TIP3    H126300   5.734   1.833   5.168 -0.6823  1.3680 -1.5282
 1603TIP3    H226301   5.637   1.717   5.161  1.1600 -0.4866  2.4222
 1604TIP3   OH226302   3.242   5.405   3.009 -0.1076 -0.2156  0.1764
 1604TIP3    H126303   3.249   5.462   2.933 -2.6517  1.2104  0.9606
 1604TIP3    H226304   3.271   5.459   3.083 -0.5140 -0.6107  0.6312
 1605TIP3   OH226305   1.286   3.120   0.313  0.9724 -0.6323 -0.1387
 1605TIP3    H126306   1.335   3.151   0.389 -0.2820  0.8410  0.0773
 1605TIP3    H226307   1.307   3.183   0.243 -0.0693 -0.3681 -0.2278
 1606TIP3   OH226308   5.466   1.169  16.521 -0.4784 -0.1256 -0.0785
 1606TIP3    H126309   5.507   1.083  16.528  0.1275  0.1656 -0.0466
 1606TIP3    H226310   5.539   1.230  16.512 -0.9037  0.3913 -0.0488
 1607TIP3   OH226311   5.471   3.387  16.171  0.1075 -0.5943  0.0767
 1607TIP3    H126312   5.378   3.407  16.178  0.3829  0.9737 -0.4496
 1607TIP3    H226313   5.499   3.431  16.090  1.3086 -1.0224  0.2448
 1608TIP3   OH226314   4.183   1.949   1.076  0.6989 -0.2292 -0.1701
 1608TIP3    H126315   4.227   1.909   1.151 -0.8571 -1.8816 -0.0891
 1608TIP3    H226316   4.094   1.967   1.106  0.0612 -0.8796 -1.5809
 1609TIP3   OH226317   5.920   6.396   6.500  0.5713 -0.0493  0.2591
 1609TIP3    H126318   5.827   6.410   6.480  0.0289 -1.2021  1.9133
 1609TIP3    H226319   5.938   6.455   6.573  0.9933 -0.2363  0.3102
 1610TIP3   OH226320   5.953   1.531   4.397 -0.2819 -0.2550 -0.1884
 1610TIP3    H126321   5.945   1.437   4.382  1.3717 -0.7902  1.9348
 1610TIP3    H226322   5.974   1.568   4.312  1.0786 -2.0950 -0.6647
 1611TIP3   OH226323   3.983   2.521  11.414  0.6204 -0.1030 -0.0875
 1611TIP3    H126324   4.037   2.597  11.395 -2.1319  1.5968 -1.4079
 1611TIP3    H226325   3.971   2.478  11.330 -0.6099 -0.0713  0.0602
 1612TIP3   OH226326   1.985   6.525   6.150 -0.0670  0.4751 -0.0559
 1612TIP3    H126327   1.935   6.509   6.071  1.7219 -0.4579 -1.0260
 1612TIP3    H226328   2.061   6.467   6.143  1.5665  2.4304  0.9822
 1613TIP3   OH226329   3.638   5.649   0.730 -0.4450  0.1027 -0.2007
 1613TIP3    H126330   3.623   5.565   0.773  0.7278  0.5545  1.1241
 1613TIP3    H226331   3.624   5.714   0.800  1.9441  0.8289 -0.3645
 1614TIP3   OH226332   1.414   5.210  11.180  0.2701  0.4562  0.0090
 1614TIP3    H126333   1.411   5.179  11.089 -0.5241 -0.8346  0.4612
 1614TIP3    H226334   1.408   5.305  11.173 -1.9779  0.2755 -1.2241
 1615TIP3   OH226335   4.044   6.143  16.019  0.1110  0.0148 -0.2069
 1615TIP3    H126336   4.017   6.078  15.953  1.6918  0.3232 -1.1693
 1615TIP3    H226337   4.073   6.218  15.968 -2.5060  1.8613  0.9225
 1616TIP3   OH226338   2.885   5.653  10.948 -0.0253 -0.0447 -0.0494
 1616TIP3    H126339   2.851   5.563  10.944  1.3933 -0.6477  1.1098
 1616TIP3    H226340   2.913   5.671  10.858 -2.7144  0.2364 -0.8980
 1617TIP3   OH226341   0.488   6.349   5.747 -0.0484  0.4287  0.2094
 1617TIP3    H126342   0.523   6.268   5.783 -0.1243 -0.1769 -1.0636
 1617TIP3    H226343   0.443   6.391   5.820 -2.7169 -2.1808  0.1291
 1618TIP3   OH226344   3.793   5.983  12.403 -0.0924  0.2675 -0.1408
 1618TIP3    H126345   3.860   6.045  12.376  0.1452 -0.3610 -1.0278
 1618TIP3    H226346   3.711   6.021  12.372 -0.1555  1.0930  1.0451
 1619TIP3   OH226347   5.727   0.303  16.541  0.7464  0.2441 -0.3060
 1619TIP3    H126348   5.783   0.233  16.507 -0.1229 -0.9198  0.5910
 1619TIP3    H226349   5.787   0.365  16.582  1.4956 -0.1989 -0.7299
 1620TIP3   OH226350   6.323   5.294  13.873 -0.1081 -0.3012  0.0256
 1620TIP3    H126351   6.281   5.210  13.890  0.3096 -0.5457 -0.1524
 1620TIP3    H226352   6.355   5.323  13.959  0.8678 -0.9273 -0.1201
 1621TIP3   OH226353   3.377   5.077  11.612 -0.0403  0.0404 -0.5770
 1621TIP3    H126354   3.310   5.013  11.586 -0.6907  0.8556 -0.9090
 1621TIP3    H226355   3.459   5.039  11.580 -0.1668 -1.5504  0.8750
 1622TIP3   OH226356   3.128   2.198  14.788 -0.5486  0.5774  0.0185
 1622TIP3    H126357   3.072   2.212  14.711 -1.4898  1.0915  0.7762
 1622TIP3    H226358   3.215   2.180  14.752 -1.2016 -0.2698 -1.1881
 1623TIP3   OH226359   3.037   4.499  16.676  0.1431  0.2677 -0.4120
 1623TIP3    H126360   3.121   4.468  16.643  0.7525  1.7732 -0.3227
 1623TIP3    H226361   2.973   4.438  16.639  0.9311  1.0805 -3.2588
 1624TIP3   OH226362   1.260   3.485   0.789 -0.7198  0.6490 -0.3683
 1624TIP3    H126363   1.327   3.482   0.857 -1.2585 -0.0510  0.1331
 1624TIP3    H226364   1.198   3.416   0.812 -0.4823 -0.1553 -2.0068
 1625TIP3   OH226365   4.862   4.109  16.601 -0.0790  0.0413 -0.3903
 1625TIP3    H126366   4.778   4.154  16.605 -1.1097 -1.6456 -1.8552
 1625TIP3    H226367   4.921   4.170  16.557 -0.7492  0.9331 -0.0511
 1626TIP3   OH226368   1.222   5.702   3.532  0.4350  0.3697  0.3111
 1626TIP3    H126369   1.135   5.708   3.492 -1.0140  0.2367  3.2500
 1626TIP3    H226370   1.207   5.650   3.611  2.9647  1.3926  1.4878
 1627TIP3   OH226371   3.942   0.725  16.425  0.6829  0.0324  0.0632
 1627TIP3    H126372   3.970   0.642  16.386  1.2826  0.9656 -1.4981
 1627TIP3    H226373   3.877   0.760  16.364 -2.4280 -1.0792  2.5916
 1628TIP3   OH226374   1.968   1.670  16.797 -0.1456  0.2697  0.5200
 1628TIP3    H126375   2.013   1.705  16.874 -0.3487  2.1332 -0.1684
 1628TIP3    H226376   1.880   1.710  16.801 -0.7565 -1.0365  0.2830
 1629TIP3   OH226377   3.575   4.711  11.684  0.6716  0.4584  0.1967
 1629TIP3    H126378   3.522   4.676  11.755  1.1644 -0.5852  0.0602
 1629TIP3    H226379   3.640   4.766  11.727  0.8419 -0.0076  0.5413
 1630TIP3   OH226380   5.438   5.561  15.539  0.3041 -0.2649 -0.5864
 1630TIP3    H126381   5.358   5.612  15.555  0.3941  0.1036 -1.2804
 1630TIP3    H226382   5.505   5.605  15.592  0.3844  0.3509 -1.1932
 1631TIP3   OH226383   2.968   5.392   1.430 -0.2829 -0.1703  0.5397
 1631TIP3    H126384   2.951   5.304   1.398  0.9318  1.2360 -4.4776
 1631TIP3    H226385   3.061   5.393   1.453  1.0603  0.9370 -4.2460
 1632TIP3   OH226386   2.463   6.809  14.808 -0.0721  0.0632  0.4467
 1632TIP3    H126387   2.446   6.880  14.870  1.2661  1.0343 -0.2582
 1632TIP3    H226388   2.399   6.742  14.830 -1.3852  1.4941  1.1312
 1633TIP3   OH226389   0.793   4.749   0.128  0.3776  0.2280 -0.0867
 1633TIP3    H126390   0.718   4.738   0.070  1.8201  0.1139 -1.9569
 1633TIP3    H226391   0.783   4.837   0.164 -1.9882 -0.6809  1.6833
 1634TIP3   OH226392   5.161   0.310   6.777 -0.7312 -0.4896  0.0514
 1634TIP3    H126393   5.198   0.261   6.850 -2.1075 -2.0504 -0.2731
 1634TIP3    H226394   5.088   0.256   6.747 -1.1767  0.9244 -1.4403
 1635TIP3   OH226395   2.677   2.213  16.359  0.8095  0.0972  0.4137
 1635TIP3    H126396   2.643   2.140  16.411 -0.1851  0.1580 -0.1393
 1635TIP3    H226397   2.662   2.290  16.414  1.0050  0.0028  0.6021
 1636TIP3   OH226398   0.582   1.941  11.703 -0.2713  0.4906 -0.2366
 1636TIP3    H126399   0.632   1.967  11.626 -0.1056  1.8165  0.3030
 1636TIP3    H226400   0.589   2.016  11.762 -0.6862 -0.3765  0.9259
 1637TIP3   OH226401   5.629   1.369   4.481 -0.3150  0.2443 -0.1118
 1637TIP3    H126402   5.698   1.344   4.420 -0.2464  0.4008 -0.0983
 1637TIP3    H226403   5.573   1.292   4.486  1.2446 -0.8123  1.8464
 1638TIP3   OH226404   3.064   4.233   0.306  0.0308  0.3959 -0.1463
 1638TIP3    H126405   3.095   4.221   0.396 -1.1460  3.2027  0.6752
 1638TIP3    H226406   3.143   4.229   0.252  0.7486 -1.2447  1.0074
 1639TIP3   OH226407   4.889   5.440  12.106  0.7429  0.2710 -0.1900
 1639TIP3    H126408   4.821   5.381  12.074 -1.5091  2.2152  0.8451
 1639TIP3    H226409   4.907   5.409  12.195  1.2361 -0.2656 -0.4766
 1640TIP3   OH226410   6.269   1.892   6.360 -0.1097 -0.3001  0.2179
 1640TIP3    H126411   6.278   1.852   6.273 -0.6906 -0.6135  0.2970
 1640TIP3    H226412   6.237   1.821   6.416 -0.9918  0.2203  0.3938
 1641TIP3   OH226413   5.853   1.734  15.666  0.2466  0.3471 -0.2316
 1641TIP3    H126414   5.880   1.811  15.617  0.5623  0.1608 -0.3520
 1641TIP3    H226415   5.934   1.698  15.701  0.2247 -0.5118 -1.0335
 1642TIP3   OH226416   3.716   6.103   5.267 -0.2979 -0.0019 -0.3299
 1642TIP3    H126417   3.811   6.114   5.273 -0.5233  1.8906 -0.1474
 1642TIP3    H226418   3.703   6.061   5.181  0.8101 -2.0377  0.4381
 1643TIP3   OH226419   3.403   5.642  16.368 -0.3474  0.2636 -0.7812
 1643TIP3    H126420   3.445   5.724  16.344 -0.6868  0.3125 -1.2199
 1643TIP3    H226421   3.414   5.585  16.291 -1.3418  0.3855 -1.0273
 1644TIP3   OH226422   0.299   2.752   0.912  0.1925  0.8761  0.1232
 1644TIP3    H126423   0.235   2.822   0.905 -0.5524  0.0297 -1.8997
 1644TIP3    H226424   0.357   2.764   0.837  0.0823 -0.6291 -0.2321
 1645TIP3   OH226425   6.293   6.586   3.168  0.3937 -0.2058  1.0345
 1645TIP3    H126426   6.227   6.649   3.139  1.0154  0.5961  1.3187
 1645TIP3    H226427   6.249   6.535   3.236 -0.2447 -0.3579  0.5138
 1646TIP3   OH226428   2.824   5.366  17.042 -0.1628  0.0028  0.0432
 1646TIP3    H126429   2.878   5.386  17.118 -0.2208  0.9267 -0.1443
 1646TIP3    H226430   2.869   5.409  16.969  0.0525 -1.1161 -0.5024
 1647TIP3   OH226431   3.237   3.680   0.493  0.3151  0.0269  0.2537
 1647TIP3    H126432   3.249   3.657   0.585 -0.0685 -1.1439  0.0143
 1647TIP3    H226433   3.325   3.679   0.457  0.3546 -0.5629  0.3640
 1648TIP3   OH226434   2.854   4.238   4.696  0.2476 -0.1564 -0.2883
 1648TIP3    H126435   2.890   4.189   4.770 -1.3059  0.5834  0.9947
 1648TIP3    H226436   2.917   4.308   4.680  1.0296 -0.8406 -0.2655
 1649TIP3   OH226437   2.859   3.947  12.880 -0.2032  0.5375 -0.2001
 1649TIP3    H126438   2.777   3.900  12.864  0.0792  0.3655 -1.2301
 1649TIP3    H226439   2.868   4.005  12.804  0.1629  1.2290  0.3664
 1650TIP3   OH226440   6.157   0.354  16.887  0.0530  1.2172  0.3931
 1650TIP3    H126441   6.233   0.305  16.855  0.8819  1.6104  1.7351
 1650TIP3    H226442   6.147   0.426  16.825  0.2159  0.6328 -0.3112
 1651TIP3   OH226443   1.736   3.222   4.897  0.1779  0.2373  0.3516
 1651TIP3    H126444   1.797   3.199   4.967 -1.7076 -0.7644  1.7090
 1651TIP3    H226445   1.698   3.305   4.925 -2.0813 -1.1538  1.5968
 1652TIP3   OH226446   3.538   1.603  12.803  0.1498  0.1288  0.3447
 1652TIP3    H126447   3.546   1.510  12.782  1.2609 -0.2431  2.2821
 1652TIP3    H226448   3.628   1.632  12.818 -0.1992  1.4779 -0.0780
 1653TIP3   OH226449   4.181   4.174  15.688  0.2173  0.0236  0.3993
 1653TIP3    H126450   4.230   4.103  15.729  0.0686  0.5439  1.5121
 1653TIP3    H226451   4.173   4.240  15.757 -1.5482  0.1835  0.0752
 1654TIP3   OH226452   0.202   4.746  13.732 -0.5794  0.3398  0.1564
 1654TIP3    H126453   0.171   4.656  13.723  0.8344 -0.1128 -0.3255
 1654TIP3    H226454   0.206   4.761  13.826  0.2510 -0.4871  0.2540
 1655TIP3   OH226455   5.232   0.242  14.813 -0.3078 -0.1045  0.5535
 1655TIP3    H126456   5.157   0.183  14.806 -1.6884  1.6676 -0.0473
 1655TIP3    H226457   5.268   0.247  14.725  0.7780 -1.2699  0.9236
 1656TIP3   OH226458   2.735   5.174  15.619 -0.3952  0.3303  0.2474
 1656TIP3    H126459   2.824   5.183  15.585 -0.6509 -1.8447 -1.1725
 1656TIP3    H226460   2.680   5.173  15.540 -1.4308 -0.6279  0.9649
 1657TIP3   OH226461   2.804   1.940  12.969  0.7952  0.2610  0.3644
 1657TIP3    H126462   2.752   1.972  13.042  0.8336 -1.2851  1.0975
 1657TIP3    H226463   2.782   1.997  12.896 -1.0453  0.3502  0.9706
 1658TIP3   OH226464   6.293   6.013   3.930 -0.6474  0.0566 -0.3237
 1658TIP3    H126465   6.312   5.988   4.020  1.0848 -1.5523 -1.1050
 1658TIP3    H226466   6.260   5.933   3.889 -0.1970  0.4224 -1.4373
 1659TIP3   OH226467   4.322   0.397  13.821 -0.2493  0.7576 -0.3419
 1659TIP3    H126468   4.270   0.316  13.827  0.6729  0.2548  1.0099
 1659TIP3    H226469   4.260   0.466  13.842 -0.4912  0.1939  0.8431
 1660TIP3   OH226470   0.552   5.968   3.192  0.1329 -0.1643 -0.8600
 1660TIP3    H126471   0.464   5.939   3.217  0.4560 -0.1965  0.2351
 1660TIP3    H226472   0.592   5.998   3.273  1.0896 -0.0089 -1.3801
 1661TIP3   OH226473   2.493   6.008   0.403  0.1374  0.2679 -0.1792
 1661TIP3    H126474   2.505   6.043   0.315  1.0476  0.4482  0.0100
 1661TIP3    H226475   2.439   6.074   0.448 -0.7589 -0.0694 -0.7459
 1662TIP3   OH226476   5.157   3.077  13.058 -0.0458  0.7319 -0.1334
 1662TIP3    H126477   5.086   3.014  13.049 -0.1534  0.8324 -0.0025
 1662TIP3    H226478   5.205   3.049  13.136 -0.2676  0.9778  0.0945
 1663TIP3   OH226479   1.828   1.623   5.007 -0.1426 -0.4114  0.1982
 1663TIP3    H126480   1.784   1.646   4.926  2.1572  2.8246 -0.2182
 1663TIP3    H226481   1.916   1.594   4.980  0.4222  0.0704  1.4830
 1664TIP3   OH226482   3.029   4.991   1.865  1.0207  0.3911 -0.3760
 1664TIP3    H126483   2.984   5.006   1.948  2.3351 -1.1140  0.6302
 1664TIP3    H226484   3.021   5.074   1.818  1.0530  1.5548  1.6328
 1665TIP3   OH226485   2.838   2.820  16.157  0.0161 -0.8779 -0.0055
 1665TIP3    H126486   2.830   2.893  16.220  0.3920 -1.8440  1.1835
 1665TIP3    H226487   2.929   2.825  16.127 -0.1795 -0.3801 -0.5168
 1666TIP3   OH226488   6.167   6.402   5.646 -0.0667 -0.3351  0.0798
 1666TIP3    H126489   6.121   6.466   5.700 -0.9833  1.1205 -2.3500
 1666TIP3    H226490   6.101   6.370   5.585  1.3441 -0.6759 -1.3004
 1667TIP3   OH226491   4.432   4.777  13.967  0.3352  0.2430 -0.3159
 1667TIP3    H126492   4.428   4.683  13.949 -0.5107  0.7307 -2.8783
 1667TIP3    H226493   4.374   4.790  14.043 -0.6749 -1.0871 -0.8523
 1668TIP3   OH226494   1.122   6.005  13.572 -0.5929  0.3593 -0.6643
 1668TIP3    H126495   1.160   6.080  13.619 -1.3148  0.5020 -0.3090
 1668TIP3    H226496   1.163   6.008  13.486  1.6800 -0.6256  0.3321
 1669TIP3   OH226497   3.726   2.871   2.604  0.0261 -0.2579  0.4709
 1669TIP3    H126498   3.718   2.779   2.577 -2.5706  0.4899 -1.5103
 1669TIP3    H226499   3.692   2.873   2.694 -2.8928 -0.7742 -0.5524
 1670TIP3   OH226500   5.184   4.194  15.910  0.5272  0.5295  0.3412
 1670TIP3    H126501   5.211   4.124  15.851 -0.0462  0.7334 -0.1750
 1670TIP3    H226502   5.104   4.162  15.951 -0.3855  1.3474 -0.7756
 1671TIP3   OH226503   3.906   0.327  14.580 -0.6922  0.1720 -0.3165
 1671TIP3    H126504   3.945   0.412  14.562 -0.5965  0.0468 -0.7179
 1671TIP3    H226505   3.818   0.347  14.614 -1.0892  0.4158 -1.4636
 1672TIP3   OH226506   4.646   4.185   1.330 -0.6677 -0.9204  0.5435
 1672TIP3    H126507   4.550   4.186   1.336 -0.6805 -0.0124  0.2630
 1672TIP3    H226508   4.664   4.208   1.239 -0.1845 -1.5011  0.4910
 1673TIP3   OH226509   2.755   2.663  15.489  0.1147  0.2446  0.7205
 1673TIP3    H126510   2.811   2.621  15.554 -0.2362  0.2061  1.0012
 1673TIP3    H226511   2.666   2.648  15.521  0.0081  2.2599  1.4998
 1674TIP3   OH226512   0.662   2.452   6.354 -0.0486 -0.4962  0.4595
 1674TIP3    H126513   0.645   2.395   6.429 -2.3755 -1.5674 -0.8340
 1674TIP3    H226514   0.739   2.415   6.312 -2.0002 -3.2395 -0.8201
 1675TIP3   OH226515   1.730   2.167  14.099  0.6520  0.1337  0.2494
 1675TIP3    H126516   1.701   2.258  14.100  0.4114  0.0474  1.1597
 1675TIP3    H226517   1.753   2.148  14.190 -1.0342 -1.2828  0.3970
 1676TIP3   OH226518   6.562   5.057   2.679  0.1440  0.0548 -0.1693
 1676TIP3    H126519   6.550   5.146   2.646  1.4213 -0.5140 -2.2440
 1676TIP3    H226520   6.497   5.004   2.633 -2.8077  0.3592  3.3738
 1677TIP3   OH226521   6.128   3.016  11.452  0.2363  0.3393  0.3843
 1677TIP3    H126522   6.122   3.073  11.376 -0.1881 -0.1140  0.0741
 1677TIP3    H226523   6.117   2.927  11.417 -1.0538  0.1997  1.1221
 1678TIP3   OH226524   5.421   6.292   4.417 -0.7268  0.3084 -0.3493
 1678TIP3    H126525   5.417   6.212   4.365 -1.3382  0.6013 -0.7667
 1678TIP3    H226526   5.506   6.329   4.397 -0.8105  0.2285 -0.8679
 1679TIP3   OH226527   0.093   2.787  15.525  0.1202  0.8301 -0.1813
 1679TIP3    H126528   0.133   2.806  15.440  1.4131 -1.2514 -0.0732
 1679TIP3    H226529   0.166   2.787  15.587 -0.5556  0.5379  0.6254
 1680TIP3   OH226530   3.072   4.201  12.709  0.2488 -0.3071 -0.9342
 1680TIP3    H126531   3.018   4.248  12.772 -0.6994 -1.3581 -0.9366
 1680TIP3    H226532   3.117   4.270  12.660  0.0053  0.5466  0.0250
 1681TIP3   OH226533   4.084   2.384  16.402 -0.7703 -0.4375  0.2856
 1681TIP3    H126534   4.045   2.362  16.317  0.6991 -0.4985 -0.3802
 1681TIP3    H226535   4.156   2.323  16.412 -1.5187 -1.0769  2.0397
 1682TIP3   OH226536   6.626   6.167  16.107 -0.2641  0.1012 -0.4386
 1682TIP3    H126537   6.554   6.128  16.057 -0.1002  1.6144 -1.9276
 1682TIP3    H226538   6.704   6.150  16.055  0.0514  0.8614 -0.2241
 1683TIP3   OH226539   2.361   5.379   0.505  0.2310  0.0607 -0.5933
 1683TIP3    H126540   2.349   5.288   0.478  1.2860  0.1361 -1.3168
 1683TIP3    H226541   2.430   5.412   0.449 -0.3243  1.3974 -0.5061
 1684TIP3   OH226542   3.910   0.424   2.347 -0.2012  0.6056 -0.4364
 1684TIP3    H126543   3.926   0.485   2.420  0.4828  1.4266 -1.2607
 1684TIP3    H226544   3.997   0.400   2.317 -0.4686  1.6580 -2.1180
 1685TIP3   OH226545   0.314   6.598  15.967  0.0779  0.0882  0.2467
 1685TIP3    H126546   0.314   6.577  16.060 -0.6686  0.5003  0.3474
 1685TIP3    H226547   0.276   6.521  15.925  0.7121 -0.2263  0.2530
 1686TIP3   OH226548   0.354   3.117   3.020 -0.3968  0.1031 -0.3551
 1686TIP3    H126549   0.298   3.061   3.075  1.9437 -1.6558  0.2963
 1686TIP3    H226550   0.373   3.193   3.075 -0.7694 -0.0878  0.0392
 1687TIP3   OH226551   6.278   6.778  13.581 -0.1919  0.2579  0.1200
 1687TIP3    H126552   6.371   6.793  13.563  0.4989 -1.0356  2.4622
 1687TIP3    H226553   6.234   6.804  13.500  2.1116  1.7696 -0.7117
 1688TIP3   OH226554   0.454   1.692  11.543 -0.0361  0.3319 -0.5024
 1688TIP3    H126555   0.394   1.633  11.589  0.3367  1.1662  1.0702
 1688TIP3    H226556   0.406   1.718  11.465 -0.8691 -0.7149 -0.3572
 1689TIP3   OH226557   3.544   5.300   4.997 -0.1040  0.0193  0.0667
 1689TIP3    H126558   3.494   5.268   4.922  0.8162 -3.0644  0.7117
 1689TIP3    H226559   3.527   5.237   5.067 -0.0364  2.2028  2.1430
 1690TIP3   OH226560   0.220   1.523   5.642  0.6083 -0.6429  0.2587
 1690TIP3    H126561   0.132   1.548   5.615 -0.2422 -2.1667  1.5876
 1690TIP3    H226562   0.276   1.594   5.609 -1.2652  0.9994  0.5256
 1691TIP3   OH226563   3.361   2.585   5.360  0.1776  0.3042 -0.1279
 1691TIP3    H126564   3.334   2.621   5.445 -2.9653 -1.3870 -0.3285
 1691TIP3    H226565   3.323   2.644   5.295 -0.0008 -0.0964 -0.3889
 1692TIP3   OH226566   5.537   4.373  16.405 -0.1411  0.0681  0.1561
 1692TIP3    H126567   5.573   4.440  16.463  0.3472 -0.6711  0.7189
 1692TIP3    H226568   5.443   4.391  16.404 -0.6813 -2.0031  3.9989
 1693TIP3   OH226569   1.272   6.431  17.019  0.2284 -0.3788 -0.0016
 1693TIP3    H126570   1.349   6.479  17.050 -0.5423  0.4580  0.6597
 1693TIP3    H226571   1.209   6.499  16.996 -0.3807 -1.0586 -0.3528
 1694TIP3   OH226572   0.580   3.100   1.504  0.4487 -0.4133 -0.3539
 1694TIP3    H126573   0.538   3.185   1.518  1.4140  0.2183 -1.2492
 1694TIP3    H226574   0.510   3.044   1.472  0.5103  0.9408 -2.9833
 1695TIP3   OH226575   2.352   1.059   1.842 -0.5783 -0.1427  0.0053
 1695TIP3    H126576   2.346   1.150   1.871 -0.6880  0.0676 -0.6827
 1695TIP3    H226577   2.393   1.064   1.755  0.7205 -0.8534  0.5544
 1696TIP3   OH226578   3.087   4.101   3.558  0.1448  0.0841 -0.1445
 1696TIP3    H126579   3.012   4.064   3.512  0.4241  0.6517 -1.0713
 1696TIP3    H226580   3.088   4.193   3.532  1.0843  0.1090 -0.0369
 1697TIP3   OH226581   0.658   0.964  14.732 -0.2643 -0.3082  0.4272
 1697TIP3    H126582   0.725   0.967  14.664  0.1711  1.9436  0.9224
 1697TIP3    H226583   0.575   0.967  14.684 -0.0049 -1.3894 -0.1066
 1698TIP3   OH226584   2.295   4.393   5.170  0.1464 -0.3340  0.4388
 1698TIP3    H126585   2.327   4.303   5.178  2.3160  0.2292 -1.3857
 1698TIP3    H226586   2.330   4.437   5.248 -0.9247 -1.0429  1.3409
 1699TIP3   OH226587   4.626   2.646  13.200 -0.6190 -0.0761  0.5771
 1699TIP3    H126588   4.555   2.672  13.141  1.0058  1.2254 -0.8491
 1699TIP3    H226589   4.625   2.551  13.199 -1.6634 -0.0578 -0.2664
 1700TIP3   OH226590   5.344   6.307  16.568  0.3031 -0.2719  0.0877
 1700TIP3    H126591   5.387   6.382  16.609  0.3163 -0.5504  0.5856
 1700TIP3    H226592   5.253   6.336  16.555 -0.2410 -0.9313  2.2768
 1701TIP3   OH226593   2.560   3.764   3.936 -0.0197 -0.4748  0.2599
 1701TIP3    H126594   2.651   3.770   3.965 -0.7135 -0.5896  2.5813
 1701TIP3    H226595   2.529   3.682   3.974 -1.2647 -0.1162  0.0260
 1702TIP3   OH226596   6.494   6.268  13.489  0.2162  0.3813  0.2025
 1702TIP3    H126597   6.515   6.180  13.457  1.3180 -0.0738  2.0992
 1702TIP3    H226598   6.454   6.312  13.414  2.3971 -0.7562 -1.6836
 1703TIP3   OH226599   0.624   0.854   2.150  0.2558 -0.1545 -0.2592
 1703TIP3    H126600   0.629   0.946   2.176 -0.2306 -0.1324 -0.2371
 1703TIP3    H226601   0.532   0.840   2.128  0.5406 -0.3568 -1.3206
 1704TIP3   OH226602   1.158   1.108  14.143 -0.3861  0.0128 -0.3694
 1704TIP3    H126603   1.125   1.198  14.138 -0.0048  0.1135 -1.3754
 1704TIP3    H226604   1.189   1.098  14.233  0.2793  1.1468 -0.4698
 1705TIP3   OH226605   1.567   5.702   3.183 -0.4475 -0.2271 -0.1127
 1705TIP3    H126606   1.540   5.733   3.097  1.0625 -1.1980 -0.9499
 1705TIP3    H226607   1.497   5.641   3.209 -0.1698 -1.0919 -1.3297
 1706TIP3   OH226608   5.841   5.688  11.310  0.0035  0.1118 -0.0944
 1706TIP3    H126609   5.925   5.683  11.265  0.2772 -0.7384  0.4906
 1706TIP3    H226610   5.781   5.636  11.257 -0.2968  1.1691 -0.8051
 1707TIP3   OH226611   6.634   1.509   4.918  0.1858  0.5458 -0.1668
 1707TIP3    H126612   6.593   1.456   4.986  0.0495 -0.2362 -0.8433
 1707TIP3    H226613   6.588   1.593   4.922 -0.8733 -0.0190 -0.3142
 1708TIP3   OH226614   4.809   1.262  14.296  0.3674 -0.3752 -0.1916
 1708TIP3    H126615   4.865   1.211  14.236  1.3748  0.6811 -0.1705
 1708TIP3    H226616   4.871   1.315  14.347 -0.7383  2.3019 -1.5332
 1709TIP3   OH226617   3.442   1.680   5.744  0.0154 -0.5626  0.0459
 1709TIP3    H126618   3.398   1.741   5.685  1.3778  0.0853 -0.3205
 1709TIP3    H226619   3.444   1.726   5.828  2.3532  0.5649 -0.5778
 1710TIP3   OH226620   0.363   2.143  15.766 -0.7375  0.2949  0.4489
 1710TIP3    H126621   0.285   2.198  15.774 -1.3496 -0.6133  0.7777
 1710TIP3    H226622   0.360   2.086  15.843  0.7323  0.8664  0.9455
 1711TIP3   OH226623   4.558   0.567  17.207  0.5435  0.3644 -0.6887
 1711TIP3    H126624   4.649   0.549  17.183  0.1328 -0.6682 -1.4850
 1711TIP3    H226625   4.539   0.651  17.165  1.1659  0.6427 -0.4201
 1712TIP3   OH226626   5.356   6.436   1.025  0.2714  0.3092  0.0338
 1712TIP3    H126627   5.293   6.507   1.041 -1.0084 -1.2424  1.9703
 1712TIP3    H226628   5.335   6.407   0.936 -0.3349  1.2077 -0.1341
 1713TIP3   OH226629   6.614   6.743   6.549 -0.1348 -0.0026  0.4169
 1713TIP3    H126630   6.586   6.669   6.602  0.6932 -1.0000 -0.4981
 1713TIP3    H226631   6.541   6.804   6.553 -1.0477 -1.0849  0.7837
 1714TIP3   OH226632   0.835   1.469   4.020  0.0441 -0.1612  0.3757
 1714TIP3    H126633   0.764   1.514   4.065 -0.4915 -1.3372  0.7261
 1714TIP3    H226634   0.902   1.536   4.008 -1.2209  1.0185 -0.1877
 1715TIP3   OH226635   6.650   3.411  12.429  0.2877  0.0674  0.5869
 1715TIP3    H126636   6.640   3.492  12.480 -0.8923  0.3160 -0.0303
 1715TIP3    H226637   6.591   3.422  12.354 -1.3223 -2.1810  1.4773
 1716TIP3   OH226638   2.804   4.272  15.216 -0.6471  0.4166  0.1226
 1716TIP3    H126639   2.735   4.280  15.151 -0.1252  0.2724 -0.4532
 1716TIP3    H226640   2.885   4.277  15.166 -0.2360  0.8005  0.8165
 1717TIP3   OH226641   6.228   3.499  13.497 -0.4521  0.3032 -0.0009
 1717TIP3    H126642   6.242   3.563  13.567  1.9038 -0.1627  0.0053
 1717TIP3    H226643   6.309   3.501  13.447 -0.1005 -3.0491  0.3420
 1718TIP3   OH226644   6.286   2.484  17.120 -0.0008  0.0860 -0.7694
 1718TIP3    H126645   6.340   2.494  17.041  0.0828  0.2604 -0.6895
 1718TIP3    H226646   6.226   2.412  17.100 -1.1905  1.3020 -1.6723
 1719TIP3   OH226647   1.824   3.986  15.199 -0.2043  0.8186  0.0275
 1719TIP3    H126648   1.814   3.972  15.105  0.5464  0.4822 -0.0061
 1719TIP3    H226649   1.904   3.939  15.222 -0.6092  0.5577  0.9147
 1720TIP3   OH226650   0.030   0.518  15.529 -0.2449 -0.0025  0.5421
 1720TIP3    H126651  -0.035   0.460  15.490 -0.8422  1.2632 -0.3832
 1720TIP3    H226652  -0.003   0.606  15.512  1.6040  0.6670  0.2274
 1721TIP3   OH226653   5.653   0.017  12.653  0.1495  0.1389  0.0922
 1721TIP3    H126654   5.697  -0.018  12.730 -1.5704 -1.3403  0.4370
 1721TIP3    H226655   5.565   0.039  12.683  0.0077  1.2183 -1.0379
 1722TIP3   OH226656   0.584   1.270   1.462 -0.0782 -0.0900 -0.6405
 1722TIP3    H126657   0.546   1.201   1.517 -1.4837  0.1308 -1.3182
 1722TIP3    H226658   0.508   1.314   1.422  0.8173  1.5349 -0.5983
 1723TIP3   OH226659   6.246   6.799   1.513 -0.0997 -0.1496  1.4439
 1723TIP3    H126660   6.333   6.815   1.551 -0.5143  0.5176  2.1364
 1723TIP3    H226661   6.190   6.783   1.589 -0.4823 -1.0875  0.9671
 1724TIP3   OH226662   2.091   4.208   0.489 -0.4020 -0.2075  0.2279
 1724TIP3    H126663   2.140   4.126   0.486  0.7594  0.4022  1.7130
 1724TIP3    H226664   2.058   4.212   0.578 -0.8845  0.6896  0.0084
 1725TIP3   OH226665   3.405   2.037   2.048 -0.6653  0.0952 -0.1398
 1725TIP3    H126666   3.475   1.972   2.051 -1.0427 -0.3576 -1.1504
 1725TIP3    H226667   3.425   2.097   2.121  0.7645 -0.0158 -0.4339
 1726TIP3   OH226668   3.769   0.871  13.696  0.0864 -0.2417 -0.4643
 1726TIP3    H126669   3.727   0.867  13.610  0.9078  0.2030 -0.8815
 1726TIP3    H226670   3.703   0.912  13.752  0.6338  2.1527 -1.5381
 1727TIP3   OH226671   1.761   2.064  14.362 -0.4284 -0.2189 -0.2712
 1727TIP3    H126672   1.734   2.131  14.425  1.0167  0.1098  0.0035
 1727TIP3    H226673   1.815   2.004  14.413 -0.0024 -0.4547 -0.9934
 1728TIP3   OH226674   2.399   3.837   5.722 -0.2420 -0.2489  0.1890
 1728TIP3    H126675   2.339   3.782   5.772 -0.3784  1.1406  1.5989
 1728TIP3    H226676   2.454   3.878   5.789  0.8563  0.1458 -0.9509
 1729TIP3   OH226677   4.103   0.609   4.462 -0.3448  0.7000  0.9328
 1729TIP3    H126678   4.045   0.539   4.491 -0.5848  0.2761 -0.5260
 1729TIP3    H226679   4.106   0.671   4.535 -0.7487 -0.4495  1.9224
 1730TIP3   OH226680   0.541   6.306   4.272 -0.8882  0.5200  0.2690
 1730TIP3    H126681   0.560   6.216   4.298  3.2112  1.6552  1.4692
 1730TIP3    H226682   0.518   6.350   4.353 -0.8384  1.0395 -0.0001
 1731TIP3   OH226683   2.760   6.511   0.565 -0.4192 -0.1427  0.3858
 1731TIP3    H126684   2.726   6.536   0.651 -1.4136 -1.1524  0.2921
 1731TIP3    H226685   2.840   6.462   0.584  0.7639  1.8170  0.6252
 1732TIP3   OH226686   4.626   0.030   3.655 -0.2588 -0.4371 -0.1936
 1732TIP3    H126687   4.708   0.032   3.704 -1.1502  0.8587  1.3146
 1732TIP3    H226688   4.620   0.118   3.617 -1.3067 -0.2580  0.3636
 1733TIP3   OH226689   5.346   4.505  16.712  0.0937 -0.0300  0.4162
 1733TIP3    H126690   5.270   4.526  16.658  0.3706  0.0663  0.0651
 1733TIP3    H226691   5.315   4.516  16.802 -0.7743 -1.5596  0.3238
 1734TIP3   OH226692   6.339   3.801  11.280 -0.2065  0.1318 -0.5382
 1734TIP3    H126693   6.330   3.896  11.288 -0.4915  0.1194 -0.7170
 1734TIP3    H226694   6.416   3.788  11.224  1.1748  0.2360  1.2936
 1735TIP3   OH226695   1.292   0.123  16.515 -0.0052 -0.3527 -0.5779
 1735TIP3    H126696   1.288   0.052  16.451  0.8040 -1.1365  0.2221
 1735TIP3    H226697   1.376   0.110  16.560 -0.7934 -0.1469  1.0037
 1736TIP3   OH226698   4.261   1.775   0.522  0.1451 -0.0886  0.1441
 1736TIP3    H126699   4.304   1.860   0.537 -0.0134  0.2688 -1.3170
 1736TIP3    H226700   4.170   1.789   0.549  0.2872 -0.0081  0.5823
 1737TIP3   OH226701   0.140   2.117  12.885  0.0518  0.4360 -0.5079
 1737TIP3    H126702   0.079   2.048  12.913  1.9336 -0.4190  1.6524
 1737TIP3    H226703   0.091   2.198  12.897 -1.3279 -0.3668 -0.6421
 1738TIP3   OH226704   5.475   1.462   2.827 -0.3314  0.5304 -0.5555
 1738TIP3    H126705   5.439   1.375   2.846 -1.5411  1.1653  0.1011
 1738TIP3    H226706   5.400   1.513   2.796  0.2288  1.5502 -0.2607
 1739TIP3   OH226707   6.291   2.740   5.896 -0.5334 -0.4090 -0.2342
 1739TIP3    H126708   6.365   2.799   5.901 -0.8606  0.2200 -2.2519
 1739TIP3    H226709   6.313   2.679   5.826 -1.2698 -1.1502  0.1605
 1740TIP3   OH226710   6.501   4.683   4.005  0.1843  0.0709 -0.6322
 1740TIP3    H126711   6.430   4.737   3.969 -1.2655 -2.0485 -1.1128
 1740TIP3    H226712   6.519   4.720   4.091 -1.5472  0.6532 -0.4920
 1741TIP3   OH226713   5.675   1.717   2.465 -0.2115  0.1083 -0.6998
 1741TIP3    H126714   5.737   1.751   2.401 -0.5935  0.2706 -0.9849
 1741TIP3    H226715   5.724   1.650   2.513  0.0074 -0.1719 -1.3113
 1742TIP3   OH226716   4.668   2.335   1.017 -0.2387 -0.3092 -0.5160
 1742TIP3    H126717   4.668   2.421   0.975  0.3077 -0.3277 -0.5579
 1742TIP3    H226718   4.649   2.274   0.946 -3.0982 -0.0238 -0.0443
 1743TIP3   OH226719   1.123   0.698  12.120 -0.2151  0.1570 -0.6085
 1743TIP3    H126720   1.120   0.728  12.029  0.8586  2.7246  0.1573
 1743TIP3    H226721   1.215   0.675  12.135 -0.3146  0.0957 -0.0760
 1744TIP3   OH226722   3.608   5.390   2.818  0.4795  0.3770 -0.4477
 1744TIP3    H126723   3.615   5.426   2.907  0.5594  0.3044 -0.4241
 1744TIP3    H226724   3.651   5.455   2.763  1.3937 -0.0943 -0.2975
 1745TIP3   OH226725   2.503   1.272  10.649 -0.2918  0.5364  0.0415
 1745TIP3    H126726   2.524   1.195  10.702  2.7417  0.9729 -0.4488
 1745TIP3    H226727   2.522   1.247  10.559 -0.0194  1.6059 -0.2124
 1746TIP3   OH226728   3.801   2.747   3.368  0.9126 -0.1459 -0.3803
 1746TIP3    H126729   3.799   2.763   3.463 -0.6808 -0.9184 -0.2579
 1746TIP3    H226730   3.841   2.825   3.331 -1.5370  1.6622  0.6555
 1747TIP3   OH226731   2.997   4.129   1.326 -0.1693  0.1984  0.3314
 1747TIP3    H126732   2.908   4.127   1.361 -0.2559  2.0078  0.2740
 1747TIP3    H226733   2.986   4.113   1.232 -0.4149  0.1784  0.3632
 1748TIP3   OH226734   2.350   6.639  16.998 -0.1635  0.4803 -0.0263
 1748TIP3    H126735   2.275   6.665  17.051  0.2684  1.6327  0.0337
 1748TIP3    H226736   2.394   6.722  16.976 -0.4825  0.0390 -2.3976
 1749TIP3   OH226737   2.012   6.588  14.056 -0.6187 -0.0481 -0.0324
 1749TIP3    H126738   2.099   6.627  14.060 -0.0431 -1.2764 -0.3714
 1749TIP3    H226739   1.996   6.557  14.145 -1.1677  1.1191  0.2920
 1750TIP3   OH226740   0.364   6.475  15.609 -0.4882 -0.0352 -0.0548
 1750TIP3    H126741   0.374   6.568  15.590 -0.3984 -0.0107  0.1057
 1750TIP3    H226742   0.375   6.431  15.525 -1.0054  0.1343 -0.2116
 1751TIP3   OH226743   1.850   3.352   0.892 -0.1956  0.3477  0.5078
 1751TIP3    H126744   1.870   3.413   0.821 -0.3485 -0.2704 -0.0802
 1751TIP3    H226745   1.932   3.305   0.908  0.2489  1.5565  1.8049
 1752TIP3   OH226746   1.548   0.328  15.423  0.5050 -0.5330  0.4849
 1752TIP3    H126747   1.582   0.368  15.503  0.2840 -2.0588  1.3603
 1752TIP3    H226748   1.460   0.299  15.445 -0.6207  1.5311 -1.1603
 1753TIP3   OH226749   3.778   3.770   1.782  0.4794 -0.3537  0.1188
 1753TIP3    H126750   3.847   3.786   1.718 -1.2033  1.4476 -1.2749
 1753TIP3    H226751   3.747   3.682   1.762  0.7016 -0.2211 -0.8429
 1754TIP3   OH226752   5.159   3.022  12.586  0.2595 -0.3377 -0.3447
 1754TIP3    H126753   5.219   2.965  12.634 -0.2575 -1.4520 -0.9937
 1754TIP3    H226754   5.089   2.964  12.557 -1.5116  1.0785  0.9954
 1755TIP3   OH226755   2.177   0.709  13.593 -0.1492 -0.3264 -0.3892
 1755TIP3    H126756   2.215   0.622  13.606  0.9851  0.1178 -0.6865
 1755TIP3    H226757   2.204   0.759  13.670  2.2069  0.7887 -1.8859
 1756TIP3   OH226758   5.585   0.116   2.286 -0.4345  0.0229 -0.0432
 1756TIP3    H126759   5.640   0.123   2.363  1.2393  1.5215 -1.3363
 1756TIP3    H226760   5.540   0.200   2.281 -0.4205 -0.0114 -0.7859
 1757TIP3   OH226761   6.289   2.512   0.390 -0.5690 -0.1016  0.2763
 1757TIP3    H126762   6.378   2.538   0.368 -0.4863 -1.0441 -0.5167
 1757TIP3    H226763   6.254   2.474   0.309 -1.2139 -1.0254  0.9800
 1758TIP3   OH226764   4.041   0.253   5.704 -0.3805  0.3730  0.0175
 1758TIP3    H126765   4.133   0.230   5.689 -0.9068 -1.4472 -0.4232
 1758TIP3    H226766   4.032   0.256   5.800  0.1794  0.7914  0.0625
 1759TIP3   OH226767   0.932   3.893  12.972  0.3569  0.2196  0.6336
 1759TIP3    H126768   1.006   3.845  13.008  0.1356 -1.3890 -1.0255
 1759TIP3    H226769   0.972   3.968  12.928  1.0817 -1.0009 -0.8337
 1760TIP3   OH226770   5.377   3.095  11.820 -0.3658  0.5154  0.1059
 1760TIP3    H126771   5.303   3.042  11.791  0.0668 -0.3005  0.4722
 1760TIP3    H226772   5.393   3.066  11.910  2.5853 -1.8391 -1.0713
 1761TIP3   OH226773   1.355   1.582  14.689  0.0955  0.0469  0.0236
 1761TIP3    H126774   1.409   1.517  14.733 -2.0851 -1.8020  0.0080
 1761TIP3    H226775   1.345   1.549  14.600 -0.5740  0.6854 -0.1423
 1762TIP3   OH226776   4.479   4.369   0.330  0.2045  0.2622 -0.6726
 1762TIP3    H126777   4.448   4.279   0.329  1.2927 -0.1274 -0.6291
 1762TIP3    H226778   4.444   4.406   0.411 -0.7089  0.0459 -0.9711
 1763TIP3   OH226779   2.397   1.120   6.358  0.2491 -0.1474  0.2110
 1763TIP3    H126780   2.488   1.096   6.338 -0.3600 -1.7189 -0.8518
 1763TIP3    H226781   2.374   1.066   6.434 -0.2846 -0.9461 -0.5099
 1764TIP3   OH226782   2.478   6.283   4.271 -1.0204 -0.4002  0.6188
 1764TIP3    H126783   2.467   6.240   4.355  0.9489 -0.7410  0.7163
 1764TIP3    H226784   2.459   6.376   4.288 -0.0202 -0.3700  1.5758
 1765TIP3   OH226785   0.093   5.479   2.721  0.5832  0.6045  0.2807
 1765TIP3    H126786   0.120   5.566   2.750  0.6698  0.6165  0.1605
 1765TIP3    H226787   0.173   5.427   2.723  0.7177  0.7634 -0.5371
 1766TIP3   OH226788   3.149   3.385  11.450 -0.2316 -0.3321  0.2818
 1766TIP3    H126789   3.170   3.376  11.543 -1.7783  0.3785  0.7284
 1766TIP3    H226790   3.207   3.454  11.418 -0.1084 -0.1678  0.8674
 1767TIP3   OH226791   0.944   4.875  11.352  0.2672  0.3318  0.3005
 1767TIP3    H126792   0.963   4.883  11.259 -0.5446 -1.9522 -0.1018
 1767TIP3    H226793   1.028   4.891  11.395  1.0210 -0.2785 -0.9247
 1768TIP3   OH226794   5.355   2.536  11.163  0.1513  0.3636 -0.3041
 1768TIP3    H126795   5.433   2.510  11.213  0.6773  0.9571 -0.8114
 1768TIP3    H226796   5.384   2.610  11.110 -0.2530 -0.6005 -1.9031
 1769TIP3   OH226797   6.121   4.072  15.337 -0.6461 -0.7571  0.5706
 1769TIP3    H126798   6.041   4.111  15.300  0.6625  0.4768 -1.0196
 1769TIP3    H226799   6.105   3.978  15.335 -1.5664 -0.5802 -0.8944
 1770TIP3   OH226800   0.088   4.034  14.380 -0.1103 -0.5580  0.0285
 1770TIP3    H126801   0.057   4.023  14.290  0.4759 -3.1094  0.0851
 1770TIP3    H226802   0.182   4.048  14.371 -0.2440  0.4596  0.1914
 1771TIP3   OH226803   4.771   4.681  15.128  0.6426 -0.6280  0.3435
 1771TIP3    H126804   4.753   4.740  15.055  1.0248 -1.3463 -0.3334
 1771TIP3    H226805   4.766   4.593  15.090  0.1295 -1.0352  1.3328
 1772TIP3   OH226806   2.360   5.062   4.153 -0.2751 -0.1569  0.3013
 1772TIP3    H126807   2.316   5.121   4.092  0.1752  0.2219  0.3425
 1772TIP3    H226808   2.298   4.989   4.164 -1.5735  1.0986  1.5353
 1773TIP3   OH226809   4.580   1.409   5.908  0.4189  0.0971  0.0123
 1773TIP3    H126810   4.533   1.412   5.992 -1.1959  1.8132 -0.9148
 1773TIP3    H226811   4.630   1.328   5.912 -0.2903 -0.2772  2.2974
 1774TIP3   OH226812   3.460   0.942  16.077 -0.5241 -0.2687 -0.1827
 1774TIP3    H126813   3.468   0.861  16.129  1.9636  1.1907  1.8151
 1774TIP3    H226814   3.541   0.945  16.026 -0.8323  0.7188 -0.6139
 1775TIP3   OH226815   3.649   0.138  12.623 -0.1549  0.0119 -0.0540
 1775TIP3    H126816   3.735   0.103  12.645 -0.1156 -0.2886 -0.6737
 1775TIP3    H226817   3.635   0.208  12.687 -0.3842 -1.3469  1.3955
 1776TIP3   OH226818   3.433   3.441   1.206  0.3463 -0.0754  0.0997
 1776TIP3    H126819   3.515   3.430   1.158  1.4137 -1.8153  2.2783
 1776TIP3    H226820   3.376   3.371   1.174 -0.2089  0.9429 -1.1852
 1777TIP3   OH226821   2.758   2.532   4.814 -0.4306  0.4515  0.6583
 1777TIP3    H126822   2.796   2.506   4.898 -1.5279  1.2786  1.4326
 1777TIP3    H226823   2.743   2.626   4.823 -0.6733  0.5141 -0.4197
 1778TIP3   OH226824   0.943   4.194  13.355 -0.0206  0.1731 -0.0209
 1778TIP3    H126825   0.919   4.184  13.263 -0.5195  1.3834 -0.0383
 1778TIP3    H226826   0.916   4.284  13.377  0.6112  0.0873  1.1420
 1779TIP3   OH226827   1.403   2.208   4.622  0.0621  0.2932  0.3626
 1779TIP3    H126828   1.314   2.239   4.607  0.4331  0.0192 -2.6762
 1779TIP3    H226829   1.402   2.117   4.594  1.2971  0.2635  0.3884
 1780TIP3   OH226830   4.055   2.496   1.996 -0.0270 -0.6487 -0.4441
 1780TIP3    H126831   4.062   2.587   1.967 -1.5072 -0.3086  0.2182
 1780TIP3    H226832   4.137   2.456   1.967  1.1994  1.1879  0.3398
 1781TIP3   OH226833   5.569   1.961  12.393  0.3358  0.0832 -0.4608
 1781TIP3    H126834   5.591   2.054  12.405  1.0832 -0.1535 -0.0140
 1781TIP3    H226835   5.558   1.927  12.481 -0.2379 -0.1937 -0.6322
 1782TIP3   OH226836   5.595   4.964   5.870 -0.3966  0.6984 -0.8468
 1782TIP3    H126837   5.684   4.931   5.875 -0.1904  1.0715 -1.9297
 1782TIP3    H226838   5.594   5.038   5.931 -0.2939 -0.0175  0.0298
 1783TIP3   OH226839   2.795   4.259   2.249 -0.4376  0.3729  0.5303
 1783TIP3    H126840   2.868   4.199   2.233 -0.3648  0.2777  1.2377
 1783TIP3    H226841   2.837   4.342   2.271 -0.5440  0.4342  0.5012
 1784TIP3   OH226842   4.293   6.212   3.383  0.9376  0.5626  0.0127
 1784TIP3    H126843   4.211   6.224   3.431  0.2687  2.5479 -1.5760
 1784TIP3    H226844   4.353   6.275   3.422  0.3295  2.3333 -1.8567
 1785TIP3   OH226845   6.384   6.546   0.363  0.0335  0.6861  0.1405
 1785TIP3    H126846   6.302   6.505   0.337 -0.0628  1.6153 -1.0350
 1785TIP3    H226847   6.377   6.557   0.458 -1.5221  1.4909 -0.0592
 1786TIP3   OH226848   3.273   1.314   6.331  0.1405 -0.1184  0.2888
 1786TIP3    H126849   3.220   1.374   6.384 -1.0896  0.8364 -1.9824
 1786TIP3    H226850   3.222   1.233   6.328 -1.2227  0.7803 -1.8442
 1787TIP3   OH226851   0.388   3.867  12.845  0.5308  0.5199  0.3719
 1787TIP3    H126852   0.478   3.836  12.834  0.1148 -0.2801 -0.8002
 1787TIP3    H226853   0.372   3.923  12.769  0.2674  1.2594  0.9553
 1788TIP3   OH226854   0.066   4.648   1.925  0.4429 -0.0342 -0.2780
 1788TIP3    H126855   0.020   4.660   1.842  2.0744 -1.1701 -1.3827
 1788TIP3    H226856   0.004   4.677   1.991 -0.5407  1.8157 -1.9472
 1789TIP3   OH226857   5.087   5.719   5.341  0.1410 -0.3150 -0.6416
 1789TIP3    H126858   5.154   5.752   5.281  0.4075  0.7540  0.2211
 1789TIP3    H226859   5.040   5.798   5.371  0.9258 -0.6624  1.6232
 1790TIP3   OH226860   6.688   6.472   6.763 -0.3756  0.1039 -0.0532
 1790TIP3    H126861   6.660   6.538   6.826  1.4345  1.2669 -0.4089
 1790TIP3    H226862   6.693   6.390   6.812 -0.8738  0.6121  0.8345
 1791TIP3   OH226863   2.745   0.300   2.653  0.2033  0.0189  0.0654
 1791TIP3    H126864   2.841   0.305   2.650  0.2592 -0.8291  0.2821
 1791TIP3    H226865   2.726   0.207   2.664 -0.6519  0.1733 -0.0625
 1792TIP3   OH226866   0.005   3.868  13.984  0.0188  0.4140  0.3666
 1792TIP3    H126867   0.048   3.821  13.913 -0.3251  0.3057  0.2308
 1792TIP3    H226868  -0.088   3.865  13.962 -0.3304 -1.5342  1.9362
 1793TIP3   OH226869   4.669   1.567  14.912  0.1808 -0.1022 -0.0227
 1793TIP3    H126870   4.608   1.602  14.976  1.3778  0.2757  0.9405
 1793TIP3    H226871   4.709   1.645  14.873  1.8199 -0.3553  1.1082
 1794TIP3   OH226872   6.119   5.161   2.703  0.2042  0.0112  0.3768
 1794TIP3    H126873   6.118   5.236   2.643  1.9707 -1.0948 -1.0682
 1794TIP3    H226874   6.168   5.192   2.779  0.9070  0.3423 -0.2049
 1795TIP3   OH226875   2.658   2.705  14.378  0.3980  0.4795  0.4170
 1795TIP3    H126876   2.724   2.677  14.315 -0.7764 -1.5982  0.0536
 1795TIP3    H226877   2.588   2.743  14.324 -0.3927 -0.8556  0.4818
 1796TIP3   OH226878   4.998   1.035   5.959 -0.5563 -0.5427  0.0419
 1796TIP3    H126879   5.041   1.099   6.016 -1.7622 -0.1992  0.5694
 1796TIP3    H226880   4.957   0.973   6.019  2.0655 -2.8756 -0.4354
 1797TIP3   OH226881   4.085   5.555  16.108  0.0351 -0.4876 -0.4731
 1797TIP3    H126882   4.047   5.550  16.020  1.5515  1.6940 -1.3035
 1797TIP3    H226883   4.164   5.502  16.103 -0.3780 -1.1462 -0.1256
 1798TIP3   OH226884   4.348   3.787  12.079  0.2247 -0.4185 -0.6734
 1798TIP3    H126885   4.295   3.817  12.153  1.9995  1.2368 -0.0265
 1798TIP3    H226886   4.330   3.850  12.009  0.4533 -0.5329 -0.8367
 1799TIP3   OH226887   5.522   6.657   5.743  0.3829  0.2457  0.0528
 1799TIP3    H126888   5.428   6.646   5.727  0.5725 -0.1154 -0.8225
 1799TIP3    H226889   5.536   6.620   5.830 -0.0104 -1.1812 -0.4776
 1800TIP3   OH226890   2.821   4.997  11.284 -0.2268 -0.0431 -0.3608
 1800TIP3    H126891   2.824   5.082  11.329 -1.8750 -0.3014  0.2728
 1800TIP3    H226892   2.808   4.933  11.354  1.7299 -0.8995 -0.7667
 1801TIP3   OH226893   3.265   2.955   3.710  0.5400 -0.2885  0.2815
 1801TIP3    H126894   3.322   3.006   3.767  2.2754 -1.5283 -0.3135
 1801TIP3    H226895   3.227   2.889   3.767 -0.4738  0.6615  0.7204
 1802TIP3   OH226896   6.604   3.226   2.769 -0.0356  0.0624  0.2160
 1802TIP3    H126897   6.606   3.229   2.864 -0.0878 -0.5414  0.2360
 1802TIP3    H226898   6.675   3.168   2.745 -0.2606 -0.0828 -0.1015
 1803TIP3   OH226899   0.212   4.477   3.264 -0.3528 -0.3848 -0.8226
 1803TIP3    H126900   0.118   4.482   3.280 -0.4088 -1.2772 -0.8505
 1803TIP3    H226901   0.232   4.555   3.211 -1.2795 -0.8004 -1.7945
 1804TIP3   OH226902   3.197   6.067   0.403  0.2564  0.0450 -0.1809
 1804TIP3    H126903   3.136   6.116   0.349  3.3918  2.6790 -1.4993
 1804TIP3    H226904   3.248   6.015   0.340  0.8665 -0.4201  0.6840
 1805TIP3   OH226905   3.447   0.952   0.051  0.0051 -0.0541  0.1566
 1805TIP3    H126906   3.510   0.930   0.119  0.8868 -0.3859 -0.7607
 1805TIP3    H226907   3.368   0.978   0.099  0.5340 -0.5284  1.2942
 1806TIP3   OH226908   6.143   2.269  14.455  0.3509  0.4179 -0.2158
 1806TIP3    H126909   6.218   2.228  14.497 -0.1012 -0.2158 -0.0274
 1806TIP3    H226910   6.077   2.276  14.524 -1.1793 -2.5860 -1.3189
 1807TIP3   OH226911   4.128   1.009   4.402  0.3843  0.1261  0.3360
 1807TIP3    H126912   4.112   1.094   4.442 -0.7631 -0.1434  0.4819
 1807TIP3    H226913   4.066   0.950   4.446 -1.0853 -0.1228 -1.9576
 1808TIP3   OH226914   0.215   6.394   1.919  0.2681  0.4398 -0.2623
 1808TIP3    H126915   0.136   6.447   1.924 -0.0352  0.0252 -0.6744
 1808TIP3    H226916   0.282   6.454   1.886 -0.4044  0.2231 -2.0903
 1809TIP3   OH226917   2.702   3.510  12.164  0.1839 -0.8518  0.4975
 1809TIP3    H126918   2.607   3.507  12.179  0.1962  0.2460  0.8321
 1809TIP3    H226919   2.732   3.587  12.213  1.3683 -1.6234  1.0223
 1810TIP3   OH226920   3.055   6.177   3.645 -0.2059 -0.6075  0.0184
 1810TIP3    H126921   3.109   6.098   3.649 -1.3127 -1.3417  1.0000
 1810TIP3    H226922   3.079   6.227   3.724 -1.2537 -1.1543  0.7010
 1811TIP3   OH226923   4.159   0.450  12.008 -0.3986  0.6319  0.1911
 1811TIP3    H126924   4.065   0.450  12.019 -0.6396 -0.9860 -1.5492
 1811TIP3    H226925   4.194   0.427  12.094 -1.6072  0.5754  0.6760
 1812TIP3   OH226926   4.506   5.181  12.270  0.1207  0.0948  0.3042
 1812TIP3    H126927   4.593   5.188  12.231 -0.5695  1.1019 -1.1026
 1812TIP3    H226928   4.448   5.224  12.206 -1.4313 -0.7824  1.1084
 1813TIP3   OH226929   5.754   3.712   0.932 -0.5072 -0.1331  0.1288
 1813TIP3    H126930   5.849   3.702   0.923 -0.7034 -1.1111 -0.9691
 1813TIP3    H226931   5.731   3.781   0.869 -0.2760  1.5272  1.8133
 1814TIP3   OH226932   0.684   1.028  16.012 -0.0285  0.4919 -0.3438
 1814TIP3    H126933   0.609   1.081  15.986  0.8131  2.2519  0.7032
 1814TIP3    H226934   0.758   1.089  16.013  1.2358 -0.9965 -0.4202
 1815TIP3   OH226935   2.128   6.528  12.436 -0.2785 -0.5257  0.5219
 1815TIP3    H126936   2.207   6.482  12.404 -0.3358  0.2993 -0.8539
 1815TIP3    H226937   2.056   6.470  12.412 -0.3551  0.2708 -1.2614
 1816TIP3   OH226938   4.344   2.043  12.596 -0.4332 -0.0976 -0.2703
 1816TIP3    H126939   4.311   2.095  12.523 -0.1340  0.8043  0.2387
 1816TIP3    H226940   4.370   1.960  12.555 -0.9786  0.1172 -1.0675
 1817TIP3   OH226941   1.432   3.620  16.140 -0.1127 -0.0601  0.5306
 1817TIP3    H126942   1.357   3.628  16.199  0.4474  1.1807  1.0842
 1817TIP3    H226943   1.407   3.551  16.079 -2.9471  2.3143 -1.1338
 1818TIP3   OH226944   1.007   1.463   5.855  0.0436 -0.4501  0.1750
 1818TIP3    H126945   1.019   1.534   5.919 -0.9505  0.2204 -0.3680
 1818TIP3    H226946   1.044   1.497   5.774 -1.0619 -0.2874 -0.2603
 1819TIP3   OH226947   1.391   0.806  12.118  0.2556 -0.4258 -0.1850
 1819TIP3    H126948   1.460   0.740  12.126  0.7260 -0.3133 -2.8449
 1819TIP3    H226949   1.429   0.872  12.060 -1.5684  0.3343 -0.5215
 1820TIP3   OH226950   4.094   3.477  12.817 -0.4809  0.2617 -0.8434
 1820TIP3    H126951   4.026   3.543  12.807 -0.4772  0.5798  1.1078
 1820TIP3    H226952   4.048   3.394  12.813 -0.7995  0.4399 -0.9082
 1821TIP3   OH226953   2.839   6.484  11.831  0.1589 -0.1081  0.3415
 1821TIP3    H126954   2.763   6.480  11.888  1.0330 -1.9629  1.3823
 1821TIP3    H226955   2.802   6.503  11.744 -1.5574 -1.7876  0.6811
 1822TIP3   OH226956   0.602   4.151  16.817 -0.0032 -0.5139  0.0224
 1822TIP3    H126957   0.691   4.183  16.820  0.6312 -2.2653  0.6771
 1822TIP3    H226958   0.569   4.161  16.907 -1.6269  3.1730 -0.8785
 1823TIP3   OH226959   4.117   0.424   1.647 -0.5149 -0.4132  0.1363
 1823TIP3    H126960   4.027   0.406   1.676  0.1008 -0.1530  2.2916
 1823TIP3    H226961   4.131   0.516   1.667  0.2731 -0.4796 -0.0962
 1824TIP3   OH226962   3.947   4.393  11.311  0.0595 -0.3104 -0.1509
 1824TIP3    H126963   3.896   4.473  11.314  1.9535  0.8336  3.9259
 1824TIP3    H226964   3.921   4.352  11.228 -1.1108  4.3328 -2.2522
 1825TIP3   OH226965   6.005   4.435   5.144 -0.7210  0.5280  0.6312
 1825TIP3    H126966   6.012   4.372   5.073  0.2256  0.4610  0.7759
 1825TIP3    H226967   5.933   4.403   5.198 -0.3202 -0.3812  0.6380
 1826TIP3   OH226968   1.570   5.821   3.472 -0.5065  0.4130  0.0892
 1826TIP3    H126969   1.567   5.832   3.567 -2.2207  1.1738 -0.0241
 1826TIP3    H226970   1.542   5.731   3.458 -1.1706  0.5849  0.2723
 1827TIP3   OH226971   0.555   6.588   0.094  0.3711  0.9326  1.0718
 1827TIP3    H126972   0.552   6.578   0.189  1.4507  1.2002  1.1426
 1827TIP3    H226973   0.641   6.554   0.069 -0.2328  0.0861  0.0880
 1828TIP3   OH226974   5.862   0.898  11.000 -0.6853 -0.3607 -0.3041
 1828TIP3    H126975   5.820   0.826  11.047 -1.1581  1.0340  1.4765
 1828TIP3    H226976   5.789   0.945  10.958 -0.5254 -0.0852 -0.2757
 1829TIP3   OH226977   0.625   2.206   4.180  0.3334 -0.4840  0.0780
 1829TIP3    H126978   0.657   2.173   4.264 -0.4755 -0.4849  0.3951
 1829TIP3    H226979   0.704   2.228   4.131  0.8502 -2.0398  0.1978
 1830TIP3   OH226980   1.028   2.601   4.929  0.3375 -0.1452  0.4404
 1830TIP3    H126981   1.032   2.620   4.836  2.9430  0.7335  0.6782
 1830TIP3    H226982   1.096   2.534   4.942 -0.8718 -1.1987  1.5130
 1831TIP3   OH226983   4.512   4.602   0.808  0.6559  0.5121  0.2725
 1831TIP3    H126984   4.586   4.585   0.865  1.7026  1.8553 -0.6613
 1831TIP3    H226985   4.460   4.668   0.854  1.8073  2.0288 -0.5613
 1832TIP3   OH226986   5.424   6.030   6.094  0.0047 -0.0332  0.2929
 1832TIP3    H126987   5.450   5.979   6.171  0.0373  0.0073  0.3098
 1832TIP3    H226988   5.330   6.045   6.105 -0.3388 -1.4930 -0.5506
 1833TIP3   OH226989   0.395   4.438   3.899 -0.3757 -0.2076  0.7073
 1833TIP3    H126990   0.443   4.431   3.817 -0.2177  1.7680  0.6122
 1833TIP3    H226991   0.455   4.480   3.960 -1.4834  0.9971  0.9971
 1834TIP3   OH226992   6.819   2.778   4.165  0.1198 -0.0270  0.1172
 1834TIP3    H126993   6.754   2.849   4.165  0.2946  0.1325  0.1731
 1834TIP3    H226994   6.819   2.746   4.255 -1.8950 -1.8688 -0.4697
 1835TIP3   OH226995   6.728   6.217   6.921 -0.3639  0.4442  0.3554
 1835TIP3    H126996   6.667   6.229   6.994 -1.0772 -1.5151  0.1068
 1835TIP3    H226997   6.733   6.122   6.909  1.1149  0.6695 -1.0055
 1836TIP3   OH226998   5.564   2.401  17.291 -0.2686  0.0782  0.6520
 1836TIP3    H126999   5.554   2.313  17.326  1.5389  0.3370  1.8729
 1836TIP3    H227000   5.567   2.389  17.196  2.8137 -1.5187  0.8974
 1837TIP3   OH227001   5.489   0.837  12.819  0.2171 -0.4089  0.1214
 1837TIP3    H127002   5.553   0.906  12.835 -0.0566  0.0738 -0.8251
 1837TIP3    H227003   5.519   0.794  12.739 -0.3790 -0.4707 -0.0745
 1838TIP3   OH227004   2.166   2.733  14.199  0.0674 -0.5123 -0.0930
 1838TIP3    H127005   2.098   2.686  14.150  0.1958 -0.5784 -0.2068
 1838TIP3    H227006   2.149   2.712  14.290 -0.2641 -0.2699 -0.0969
 1839TIP3   OH227007   5.257   4.701   0.709  0.3184  0.5250 -0.1077
 1839TIP3    H127008   5.250   4.796   0.699  2.2138  0.7312  0.2790
 1839TIP3    H227009   5.327   4.676   0.648 -0.2242 -0.6303 -0.2642
 1840TIP3   OH227010   4.537   2.214  13.957 -0.9924  0.7077 -0.1274
 1840TIP3    H127011   4.477   2.192  13.886  0.2056 -1.4778 -0.4977
 1840TIP3    H227012   4.615   2.162  13.939  0.0110  1.5213  1.8016
 1841TIP3   OH227013   0.343   4.842  12.456 -0.6926 -0.3180 -0.0053
 1841TIP3    H127014   0.349   4.813  12.547  1.4412  1.1385  0.3591
 1841TIP3    H227015   0.426   4.814  12.417 -1.3739 -0.4741 -1.3671
 1842TIP3   OH227016   6.431   3.757   2.998 -0.0428 -0.1367 -0.4955
 1842TIP3    H127017   6.363   3.822   3.012 -0.8527 -0.9766 -0.4977
 1842TIP3    H227018   6.399   3.703   2.927 -0.0060 -1.3724  0.4067
 1843TIP3   OH227019   3.998   4.344   5.318 -0.3179  0.0995  0.0944
 1843TIP3    H127020   3.908   4.313   5.320 -0.2467 -0.1117  0.0334
 1843TIP3    H227021   4.002   4.412   5.386 -0.7681  0.7847 -0.5500
 1844TIP3   OH227022   4.925   3.063   5.840  0.1350 -0.3269  0.1021
 1844TIP3    H127023   4.937   3.127   5.910  0.9247  0.8904 -1.1319
 1844TIP3    H227024   5.003   3.007   5.845  1.1102  0.8986 -0.9588
 1845TIP3   OH227025   3.680   1.444   0.556 -0.4577  0.0584  0.1283
 1845TIP3    H127026   3.686   1.352   0.580  0.7564  0.1079  0.0371
 1845TIP3    H227027   3.627   1.445   0.476  0.1465 -0.6346 -0.2883
 1846TIP3   OH227028   5.313   3.268  16.579  0.5629  0.4505  0.1321
 1846TIP3    H127029   5.375   3.308  16.518 -0.6090  3.2148  0.6989
 1846TIP3    H227030   5.310   3.327  16.653 -1.8128 -0.2887  0.6700
 1847TIP3   OH227031   4.451   3.288  14.357 -0.2736 -0.0494 -0.6284
 1847TIP3    H127032   4.466   3.221  14.424 -0.7374  0.6394  0.1686
 1847TIP3    H227033   4.356   3.300  14.358 -0.1694  0.7579 -0.6417
 1848TIP3   OH227034   4.069   1.414  11.312  0.0880 -0.0919 -0.0001
 1848TIP3    H127035   4.160   1.439  11.299 -0.0462  0.0904 -0.6135
 1848TIP3    H227036   4.058   1.408  11.407  1.0194 -1.1607  0.0494
 1849TIP3   OH227037   5.097   2.784  16.458  0.1848 -0.3764  0.1386
 1849TIP3    H127038   5.114   2.879  16.455 -0.2427 -0.3302 -1.7965
 1849TIP3    H227039   5.010   2.775  16.421  0.6755 -1.6311 -0.7269
 1850TIP3   OH227040   6.618   3.122   4.570  0.2486  0.2173 -0.1474
 1850TIP3    H127041   6.649   3.169   4.493  0.4147  0.4681  0.0679
 1850TIP3    H227042   6.533   3.162   4.590  1.9572  2.9242  2.1316
 1851TIP3   OH227043   3.527   6.645  14.224 -0.2508 -0.2526  0.3942
 1851TIP3    H127044   3.521   6.732  14.261 -0.0620 -0.6305  1.3352
 1851TIP3    H227045   3.450   6.599  14.257  0.0502 -0.6658  0.5305
 1852TIP3   OH227046   3.843   4.192  11.147  0.4248  0.3887  0.3035
 1852TIP3    H127047   3.764   4.177  11.199  1.2642 -0.6908  1.3096
 1852TIP3    H227048   3.827   4.144  11.065  0.7343 -1.2814  1.2018
 1853TIP3   OH227049   5.427   4.299   1.882 -0.1350 -0.2139 -0.0713
 1853TIP3    H127050   5.396   4.389   1.882 -0.6822 -0.4024  0.0682
 1853TIP3    H227051   5.408   4.266   1.794 -1.2006 -0.6238  0.3030
 1854TIP3   OH227052   0.196   1.110  15.684 -0.0223  0.2708 -0.1825
 1854TIP3    H127053   0.264   1.044  15.674  0.3786  0.3243  1.9556
 1854TIP3    H227054   0.232   1.189  15.643  0.6592 -0.0626 -0.2274
 1855TIP3   OH227055   3.348   4.023   3.965  0.1711  0.1780  0.6840
 1855TIP3    H127056   3.361   3.928   3.958  1.1084  0.3298  0.2217
 1855TIP3    H227057   3.390   4.058   3.886 -1.4734  0.8660  0.0875
 1856TIP3   OH227058   1.458   0.833  12.750 -0.5865 -1.1446 -0.2332
 1856TIP3    H127059   1.551   0.856  12.750 -0.6760 -0.7766 -0.1371
 1856TIP3    H227060   1.454   0.752  12.700 -0.4913  0.0188 -2.1993
 1857TIP3   OH227061   2.530   3.694  14.646 -0.2254 -0.6630  0.0852
 1857TIP3    H127062   2.518   3.783  14.614 -0.3702 -1.2515 -1.5470
 1857TIP3    H227063   2.604   3.700  14.706  1.4158  0.1042 -1.9719
 1858TIP3   OH227064   2.457   4.025   1.559  0.2566 -0.1196 -0.0467
 1858TIP3    H127065   2.372   4.064   1.537  0.3947  0.5307  0.5315
 1858TIP3    H227066   2.463   4.037   1.654  2.1985  2.2971 -0.4161
 1859TIP3   OH227067   0.482   3.545   1.689 -0.3970  0.3913  0.2739
 1859TIP3    H127068   0.524   3.464   1.718  0.1096  1.1419  1.6525
 1859TIP3    H227069   0.388   3.528   1.695 -0.2881  0.0468  0.9483
 1860TIP3   OH227070   5.015   2.173   5.962 -0.0090 -0.4525  0.2164
 1860TIP3    H127071   5.004   2.239   6.031 -4.1443 -2.3101  1.5101
 1860TIP3    H227072   4.968   2.210   5.887 -0.6892 -1.0340  0.3477
 1861TIP3   OH227073   3.864   3.575  15.472  0.2756 -0.2949 -0.3297
 1861TIP3    H127074   3.866   3.564  15.567  1.3401 -0.7743 -0.3989
 1861TIP3    H227075   3.775   3.550  15.447  0.2099 -0.8790  0.4605
 1862TIP3   OH227076   1.388   3.282  12.438  0.1550 -0.1674 -0.0161
 1862TIP3    H127077   1.451   3.302  12.368 -0.3288  0.5994 -0.2371
 1862TIP3    H227078   1.337   3.208  12.404  0.1415 -0.0103 -0.3365
 1863TIP3   OH227079   4.291   2.809  13.598  0.8961 -0.0097  0.3633
 1863TIP3    H127080   4.354   2.872  13.634  1.1394 -0.3473  0.5330
 1863TIP3    H227081   4.246   2.774  13.675  2.4389 -1.8203  0.4727
 1864TIP3   OH227082   2.085   3.393  15.687 -0.3084  0.1714 -0.0830
 1864TIP3    H127083   2.167   3.365  15.646 -1.6097 -0.7843 -2.1220
 1864TIP3    H227084   2.044   3.313  15.717 -0.8977  0.5714  0.1915
 1865TIP3   OH227085   4.916   0.056  16.620 -0.3303 -0.1859 -0.0390
 1865TIP3    H127086   4.978   0.129  16.618 -1.3082  0.7415  1.8625
 1865TIP3    H227087   4.962  -0.014  16.665 -0.4140  0.2686  0.7627
 1866TIP3   OH227088   0.016   2.707   6.114  0.4114 -0.3196 -0.3038
 1866TIP3    H127089   0.026   2.710   6.019 -0.6536 -1.2148 -0.4485
 1866TIP3    H227090   0.052   2.790   6.145  0.6078  0.0415 -1.4996
 1867TIP3   OH227091   4.284   3.510  14.889  0.3350 -0.5224 -0.0352
 1867TIP3    H127092   4.279   3.601  14.919  1.3651 -0.4493 -0.0531
 1867TIP3    H227093   4.252   3.459  14.963 -1.3977 -0.0882 -0.4523
 1868TIP3   OH227094   2.402   1.978  15.812  0.0447  0.5383 -0.0312
 1868TIP3    H127095   2.408   2.025  15.729  1.3926 -1.1777 -0.9444
 1868TIP3    H227096   2.335   1.912  15.798  0.9434 -0.3786 -0.1002
 1869TIP3   OH227097   5.954   6.431  15.393  0.2555 -0.3953 -0.4677
 1869TIP3    H127098   5.917   6.346  15.369 -0.4481  0.1273 -1.2809
 1869TIP3    H227099   5.919   6.492  15.327 -0.6710  0.8514  1.1471
 1870TIP3   OH227100   3.110   4.990   3.941 -0.0258  0.7480  0.1107
 1870TIP3    H127101   3.078   5.058   4.000  0.3314  1.8339 -0.9046
 1870TIP3    H227102   3.052   4.916   3.955 -0.2104  1.1513  1.4883
 1871TIP3   OH227103   1.512   5.688   4.428 -0.0814  0.0942 -0.3032
 1871TIP3    H127104   1.571   5.732   4.488 -0.0219  0.7147 -0.8106
 1871TIP3    H227105   1.475   5.616   4.479  0.5853  0.1219  0.2215
 1872TIP3   OH227106   5.323   3.176   1.645 -0.0537  0.0260 -0.3622
 1872TIP3    H127107   5.373   3.253   1.672 -0.0954 -0.4968  1.2490
 1872TIP3    H227108   5.258   3.210   1.583  0.1346  1.2250  0.0894
 1873TIP3   OH227109   5.784   1.760  13.395 -0.0557 -0.2223  0.5060
 1873TIP3    H127110   5.865   1.767  13.345  0.3260 -2.7230  0.6919
 1873TIP3    H227111   5.800   1.813  13.473  1.0186  0.1461  0.0476
 1874TIP3   OH227112   4.219   2.203  12.950  0.8652  0.1393 -0.1498
 1874TIP3    H127113   4.208   2.298  12.942 -1.3421  0.0151  0.9595
 1874TIP3    H227114   4.195   2.184  13.041  2.4777 -1.3397 -0.0165
 1875TIP3   OH227115   4.143   4.842   1.208  1.2431  0.0647 -0.0908
 1875TIP3    H127116   4.208   4.913   1.209  2.5947 -1.1628  1.0650
 1875TIP3    H227117   4.127   4.826   1.115  2.8276  0.1909 -0.4045
 1876TIP3   OH227118   3.635   5.825   3.252  0.0633 -0.2642  0.2749
 1876TIP3    H127119   3.679   5.746   3.219 -0.6862 -0.4871 -0.1870
 1876TIP3    H227120   3.627   5.881   3.175 -0.6679 -0.3206  0.3089
 1877TIP3   OH227121   5.487   0.684   1.611 -0.1635 -0.2565  0.0620
 1877TIP3    H127122   5.455   0.633   1.536  1.2563  0.5184 -1.0857
 1877TIP3    H227123   5.582   0.674   1.608 -0.0902 -0.4269  1.9378
 1878TIP3   OH227124   4.134   0.750   3.002  0.0659  0.2438 -0.1930
 1878TIP3    H127125   4.040   0.730   2.997  0.4989 -1.6562 -0.8818
 1878TIP3    H227126   4.144   0.829   2.949 -1.3355  1.1614  0.8799
 1879TIP3   OH227127   3.793   3.103   3.526  0.7464 -0.1175  0.5730
 1879TIP3    H127128   3.703   3.074   3.543 -0.1523  2.8709  1.1871
 1879TIP3    H227129   3.789   3.143   3.439  1.4231  0.2854  0.7232
 1880TIP3   OH227130   0.814   0.805   5.337  0.0929  0.0766  0.4257
 1880TIP3    H127131   0.874   0.878   5.324  0.2713  0.4030  2.8977
 1880TIP3    H227132   0.871   0.728   5.345 -0.0506 -0.2292 -1.2291
 1881TIP3   OH227133   5.307   3.454   3.386 -0.5167  0.1741  0.0080
 1881TIP3    H127134   5.389   3.469   3.341  0.2808 -0.4458  1.2133
 1881TIP3    H227135   5.248   3.421   3.319  0.5184 -0.3379 -0.6634
 1882TIP3   OH227136   6.490   4.718   1.422 -0.2309 -0.5229  0.3125
 1882TIP3    H127137   6.473   4.721   1.516  0.5458  0.2890  0.4315
 1882TIP3    H227138   6.428   4.654   1.389  0.6126 -2.0713  1.6349
 1883TIP3   OH227139   6.236   2.950  10.835  0.4139 -0.3491 -0.1936
 1883TIP3    H127140   6.325   2.919  10.820  0.3947 -0.2394 -0.5396
 1883TIP3    H227141   6.193   2.879  10.882  0.2524 -1.0174 -1.3458
 1884TIP3   OH227142   1.072   6.468  16.341  0.3209 -0.0500  0.2726
 1884TIP3    H127143   1.159   6.429  16.338  0.6914  0.5096  2.7976
 1884TIP3    H227144   1.087   6.561  16.354 -0.6204  0.5816 -2.8260
 1885TIP3   OH227145   4.573   0.708   6.491 -0.7562  0.1567 -0.3890
 1885TIP3    H127146   4.576   0.614   6.479 -0.5416 -0.0272  0.9758
 1885TIP3    H227147   4.665   0.734   6.501 -0.7775  0.5827 -1.2448
 1886TIP3   OH227148   0.838   5.487  16.905 -0.2381  0.3679 -0.2789
 1886TIP3    H127149   0.828   5.397  16.873 -2.0526  0.4047  0.0938
 1886TIP3    H227150   0.920   5.487  16.953  0.3016 -0.8169 -1.1809
 1887TIP3   OH227151   4.496   0.411   1.693  0.7161  0.2462  0.4613
 1887TIP3    H127152   4.451   0.329   1.715  0.3649  1.1626  3.4526
 1887TIP3    H227153   4.429   0.465   1.651 -0.0852  0.2816  1.7276
 1888TIP3   OH227154   1.758   6.563   6.323 -0.5565  0.2593 -0.2524
 1888TIP3    H127155   1.732   6.485   6.373 -1.1719  0.1733 -0.7003
 1888TIP3    H227156   1.848   6.546   6.296 -0.3680  0.1163  0.4623
 1889TIP3   OH227157   2.669   4.985   1.706 -0.1180 -0.6323 -0.1553
 1889TIP3    H127158   2.704   5.035   1.781 -0.9660 -0.7511  0.3301
 1889TIP3    H227159   2.664   5.049   1.635 -4.3541  0.9069  1.3816
 1890TIP3   OH227160   6.609   2.880  11.238  0.0786  0.0887  0.6532
 1890TIP3    H127161   6.527   2.914  11.203  1.4878  2.5423 -0.3849
 1890TIP3    H227162   6.666   2.871  11.162  0.8946 -1.2800  1.4066
 1891TIP3   OH227163   0.996   4.060   5.234 -0.4013 -0.9804  0.1823
 1891TIP3    H127164   1.053   3.987   5.210 -2.2189 -2.9914  1.7296
 1891TIP3    H227165   1.035   4.094   5.315 -0.5087 -1.3342  0.3842
 1892TIP3   OH227166   6.357   0.999   1.813 -0.2591  0.1614 -0.0264
 1892TIP3    H127167   6.276   1.047   1.799  0.7195  1.3750 -1.8222
 1892TIP3    H227168   6.425   1.066   1.813  0.9878 -1.0547 -1.0717
 1893TIP3   OH227169   6.077   2.460  15.086  0.6291  0.3123  0.2523
 1893TIP3    H127170   6.026   2.416  15.019  2.2721  2.4094 -2.4806
 1893TIP3    H227171   6.029   2.540  15.105  1.0382  0.5302  0.3779
 1894TIP3   OH227172   2.911   4.477   0.331  0.0615  0.4134 -0.2822
 1894TIP3    H127173   2.938   4.385   0.327  0.6168  0.5684 -0.2169
 1894TIP3    H227174   2.826   4.479   0.288  1.2835  0.3241 -2.8260
 1895TIP3   OH227175   2.251   5.868   2.874  0.0357 -0.6032 -0.0502
 1895TIP3    H127176   2.174   5.816   2.855 -0.9963  0.2610  1.5992
 1895TIP3    H227177   2.228   5.916   2.954  0.7387  2.7594 -1.7943
 1896TIP3   OH227178   0.432   1.570   5.113  0.3085  0.4650  0.7877
 1896TIP3    H127179   0.472   1.557   5.199  0.5630  1.0214  0.7584
 1896TIP3    H227180   0.394   1.485   5.091  1.0984  0.0429  1.0162
 1897TIP3   OH227181   2.749   0.165  14.586  0.4301 -0.4616  0.3204
 1897TIP3    H127182   2.796   0.129  14.661  0.6361  1.1799  1.0173
 1897TIP3    H227183   2.740   0.258  14.607 -0.9875 -0.3063 -0.9343
 1898TIP3   OH227184   1.490   1.129  11.973 -0.0649  0.2632  0.1403
 1898TIP3    H127185   1.433   1.182  12.028 -0.7065  0.5359 -0.7765
 1898TIP3    H227186   1.446   1.127  11.888  0.8524 -0.2543 -0.3259
 1899TIP3   OH227187   5.079   0.302  15.635  0.0285 -0.2097  0.7065
 1899TIP3    H127188   4.991   0.333  15.615  0.4079 -0.0542 -0.8365
 1899TIP3    H227189   5.114   0.366  15.697 -1.1393 -0.5993  1.7898
 1900TIP3   OH227190   4.231   3.992   0.457  0.5649  0.0058 -0.2234
 1900TIP3    H127191   4.293   4.057   0.425  1.7139 -0.7475  0.4648
 1900TIP3    H227192   4.246   3.987   0.551  0.1653 -0.9136 -0.1942
 1901TIP3   OH227193   5.276   0.004   5.981 -0.1657 -0.1622 -0.0555
 1901TIP3    H127194   5.314  -0.080   5.955  1.6538  1.0418 -1.3838
 1901TIP3    H227195   5.198   0.013   5.926 -0.2476 -0.8790 -0.0564
 1902TIP3   OH227196   6.500   1.501   5.444  1.1629 -0.2840 -0.1136
 1902TIP3    H127197   6.589   1.498   5.408  0.7518 -0.1305 -1.1669
 1902TIP3    H227198   6.461   1.418   5.420  1.6830 -1.2361  2.1683
 1903TIP3   OH227199   6.247   4.922   0.296 -0.4062  0.1493  0.7681
 1903TIP3    H127200   6.160   4.884   0.280 -0.6101 -0.2179  2.6187
 1903TIP3    H227201   6.306   4.847   0.295 -0.3992  0.1458  1.5497
 1904TIP3   OH227202   6.034   1.295  14.137  0.7225 -0.4749  0.3490
 1904TIP3    H127203   6.055   1.388  14.129 -0.1444 -0.3209 -0.1773
 1904TIP3    H227204   6.107   1.250  14.094  0.7159  0.0042 -0.1682
 1905TIP3   OH227205   5.672   6.148  13.321  0.0591  0.0708  0.3880
 1905TIP3    H127206   5.685   6.226  13.266 -3.5897  0.6730  0.2893
 1905TIP3    H227207   5.758   6.133  13.360  1.8673  1.7608 -2.6692
 1906TIP3   OH227208   0.289   2.112  16.871 -0.3253  0.3211 -0.1621
 1906TIP3    H127209   0.248   2.195  16.844 -0.3940 -0.1534 -1.5594
 1906TIP3    H227210   0.373   2.138  16.908  0.2359  0.9242 -1.8172
 1907TIP3   OH227211   6.637   1.398  17.256 -0.2157  0.6106 -0.3950
 1907TIP3    H127212   6.728   1.421  17.239 -0.3137  0.4173 -1.2127
 1907TIP3    H227213   6.639   1.354  17.341  0.3445  1.2624 -0.0701
 1908TIP3   OH227214   5.908   2.527  15.646 -0.2069 -0.7097  0.1966
 1908TIP3    H127215   5.860   2.610  15.639  0.4383 -0.3961 -0.6642
 1908TIP3    H227216   5.999   2.554  15.661 -0.1220 -1.2757  0.6840
 1909TIP3   OH227217   0.414   6.820   4.381 -0.1940  0.0153 -0.6893
 1909TIP3    H127218   0.376   6.825   4.294 -0.4443 -0.3348 -0.6019
 1909TIP3    H227219   0.467   6.740   4.379 -1.7762 -1.0636  0.0982
 1910TIP3   OH227220   3.248   4.272  12.060 -0.0977 -0.9443  0.8912
 1910TIP3    H127221   3.174   4.321  12.023  0.1765 -0.3071  1.1778
 1910TIP3    H227222   3.322   4.295  12.004  0.0474 -0.9748  1.0705
 1911TIP3   OH227223   4.636   1.916   4.256  0.6767 -0.0461 -0.4006
 1911TIP3    H127224   4.595   1.835   4.284  2.5147 -0.6469  0.6167
 1911TIP3    H227225   4.650   1.904   4.162  0.1795 -0.5675 -0.4090
 1912TIP3   OH227226   3.289   1.111  11.478  0.4282 -0.4513 -0.6028
 1912TIP3    H127227   3.319   1.020  11.490  1.4317 -0.4191 -2.7245
 1912TIP3    H227228   3.354   1.163  11.525 -1.3745 -0.9082  2.5568
 1913TIP3   OH227229   5.335   3.396  12.660 -0.2800 -0.8267 -0.3993
 1913TIP3    H127230   5.290   3.463  12.711 -2.1129 -4.0206  2.3592
 1913TIP3    H227231   5.276   3.377  12.588  0.7684  1.2524 -1.8675
 1914TIP3   OH227232   0.163   0.753   0.736 -0.4569 -0.0109 -0.0546
 1914TIP3    H127233   0.173   0.817   0.807 -1.5902 -0.1122  0.2186
 1914TIP3    H227234   0.110   0.799   0.671  0.6834  0.1186 -0.8857
 1915TIP3   OH227235   4.667   1.587  16.611 -0.3210 -0.1699  0.0564
 1915TIP3    H127236   4.716   1.632  16.543  0.4983 -0.5318  0.4057
 1915TIP3    H227237   4.640   1.656  16.672  0.0324 -0.0178  0.0397
 1916TIP3   OH227238   5.223   2.301   5.638 -0.2907 -0.3982 -0.0843
 1916TIP3    H127239   5.151   2.361   5.619  0.9460  1.1665 -0.0604
 1916TIP3    H227240   5.184   2.214   5.641 -2.1940  0.4503  0.1537
 1917TIP3   OH227241   0.938   3.204  14.828  0.6155 -0.3001  0.4208
 1917TIP3    H127242   1.029   3.178  14.814  0.5494  0.6534 -2.0640
 1917TIP3    H227243   0.887   3.138  14.781 -0.1217 -1.7037  3.0445
 1918TIP3   OH227244   1.533   3.864  16.065 -0.3440  0.3163 -0.0532
 1918TIP3    H127245   1.547   3.773  16.090 -0.3886  0.3730  0.1793
 1918TIP3    H227246   1.467   3.896  16.126 -1.5081  0.0516 -1.1490
 1919TIP3   OH227247   4.508   3.195   4.265  0.2343  0.3333  0.0588
 1919TIP3    H127248   4.536   3.221   4.177 -1.3615  1.8660 -0.0147
 1919TIP3    H227249   4.460   3.271   4.298  1.8601  0.2473  2.7464
 1920TIP3   OH227250   1.009   3.506   5.212 -0.2411 -0.4066 -0.1340
 1920TIP3    H127251   1.030   3.488   5.120  0.1287  1.3770 -0.4255
 1920TIP3    H227252   1.055   3.438   5.261  1.0498 -0.3005 -1.1640
 1921TIP3   OH227253   0.034   0.500   2.433  1.0751  0.6192 -0.4549
 1921TIP3    H127254   0.046   0.593   2.415  0.4544  0.8279  0.2031
 1921TIP3    H227255   0.114   0.474   2.479  1.1642  0.8721 -0.4680
 1922TIP3   OH227256   4.658   2.239  15.443  0.0497 -0.4660 -0.0082
 1922TIP3    H127257   4.728   2.195  15.492 -0.0227  0.2023  0.7201
 1922TIP3    H227258   4.698   2.320  15.411 -0.5684  0.2539  1.0005
 1923TIP3   OH227259   1.800   5.648   1.724 -0.2459  0.1809  0.1631
 1923TIP3    H127260   1.838   5.586   1.786 -0.3265 -1.9724 -1.8795
 1923TIP3    H227261   1.708   5.656   1.750  0.1200  0.6174  1.3330
 1924TIP3   OH227262   1.364   0.500  13.299  0.5215 -0.1251 -0.3031
 1924TIP3    H127263   1.279   0.454  13.303 -1.1557  2.7844 -1.4127
 1924TIP3    H227264   1.344   0.589  13.329  3.1761  0.6373 -0.7493
 1925TIP3   OH227265   1.920   6.592   3.456  0.2621  0.5261 -0.3189
 1925TIP3    H127266   1.957   6.671   3.416  0.8941 -0.0051 -0.8008
 1925TIP3    H227267   1.997   6.542   3.484 -0.1299 -0.0842 -0.3337
 1926TIP3   OH227268   1.705   4.669  10.508 -0.0810 -0.6373 -0.1042
 1926TIP3    H127269   1.614   4.641  10.513 -0.5852  0.7514 -1.1865
 1926TIP3    H227270   1.755   4.587  10.514 -1.4543 -1.5818 -1.1531
 1927TIP3   OH227271   0.577   1.787  16.853  0.6092 -0.0245 -0.1318
 1927TIP3    H127272   0.653   1.828  16.894  0.4213 -0.2854  0.4924
 1927TIP3    H227273   0.512   1.782  16.923  0.0755  0.0515 -0.6199
 1928TIP3   OH227274   3.652   1.627   3.127  0.3301 -0.1536 -0.3448
 1928TIP3    H127275   3.682   1.716   3.109  0.7893 -0.4675 -1.1667
 1928TIP3    H227276   3.564   1.623   3.091  0.4881 -0.1762 -0.7250
 1929TIP3   OH227277   3.591   0.392   5.562 -0.3887  1.1852  0.6609
 1929TIP3    H127278   3.514   0.385   5.618 -0.2412  1.8271  0.9438
 1929TIP3    H227279   3.620   0.302   5.551 -0.3472  1.0609  1.7215
 1930TIP3   OH227280   2.583   6.452  13.129 -0.7908 -0.7825  0.2691
 1930TIP3    H127281   2.596   6.363  13.161 -0.4757 -0.7116  0.3413
 1930TIP3    H227282   2.511   6.445  13.067 -0.6993 -1.1076  0.1985
 1931TIP3   OH227283   4.682   1.072   0.340 -0.0769 -0.1818 -0.4192
 1931TIP3    H127284   4.608   1.019   0.370  0.2196 -0.5087 -0.2600
 1931TIP3    H227285   4.750   1.008   0.318  0.7488  0.1759  0.9944
 1932TIP3   OH227286   1.311   1.633  13.694 -0.0738 -0.8380 -0.3874
 1932TIP3    H127287   1.344   1.713  13.735 -1.2960  0.3850 -1.7479
 1932TIP3    H227288   1.383   1.604  13.638  0.1341 -0.3175 -0.3971
 1933TIP3   OH227289   0.141   4.924  13.192 -0.2111  0.4603 -0.4230
 1933TIP3    H127290   0.049   4.949  13.199 -0.3276 -0.5360  1.9911
 1933TIP3    H227291   0.168   4.957  13.106 -2.4162  2.0363 -0.5609
 1934TIP3   OH227292   0.679   1.176  14.510 -0.0215 -0.1371 -0.0086
 1934TIP3    H127293   0.662   1.232  14.435  0.3790  0.4594  0.3471
 1934TIP3    H227294   0.623   1.100  14.496  0.0652 -0.0419 -0.9207
 1935TIP3   OH227295   6.078   4.063   5.103  0.4910 -0.5152  0.2169
 1935TIP3    H127296   6.161   4.111   5.100  0.0305  0.2891  0.1812
 1935TIP3    H227297   6.078   4.011   5.023  0.3313  0.5570 -0.4966
 1936TIP3   OH227298   6.740   4.971  12.354  0.0395  0.7059 -0.1179
 1936TIP3    H127299   6.687   5.012  12.285  0.5395  1.1163 -0.2627
 1936TIP3    H227300   6.831   4.984  12.325  0.1809 -1.6493 -0.8116
 1937TIP3   OH227301   0.831   0.439  10.892  0.8580  0.0711 -0.0818
 1937TIP3    H127302   0.769   0.491  10.841  1.5717  1.0034 -0.0088
 1937TIP3    H227303   0.798   0.349  10.885  0.2365  0.3693 -1.1214
 1938TIP3   OH227304   5.348   1.828   4.566  0.1314  0.1265  0.2526
 1938TIP3    H127305   5.282   1.818   4.497  1.6424 -2.4808 -0.9065
 1938TIP3    H227306   5.408   1.755   4.551  3.9945  3.1451  0.4835
 1939TIP3   OH227307   4.701   5.534   3.006  0.0133 -0.2472 -0.0644
 1939TIP3    H127308   4.643   5.533   3.082  1.3110  0.7650  0.9766
 1939TIP3    H227309   4.735   5.444   3.002  0.5452 -0.1157  1.0598
 1940TIP3   OH227310   0.988   4.813   2.943  0.1251  0.3765  0.2116
 1940TIP3    H127311   0.952   4.750   2.880 -0.3663 -2.1254  2.8415
 1940TIP3    H227312   0.918   4.876   2.956 -0.2219  0.2145 -0.8357
 1941TIP3   OH227313   6.738   1.083  15.133  0.4249 -0.5699  0.2363
 1941TIP3    H127314   6.658   1.100  15.184  1.2359  0.7793  1.0967
 1941TIP3    H227315   6.731   0.991  15.107 -1.6056 -0.3548 -0.0558
 1942TIP3   OH227316   0.510   1.818  13.792 -0.1123 -0.4844 -0.3735
 1942TIP3    H127317   0.534   1.903  13.756 -1.3976 -0.3511 -0.9297
 1942TIP3    H227318   0.487   1.837  13.883  1.1096 -0.5017 -0.0402
 1943TIP3   OH227319   5.601   5.030   1.333  0.4439  0.5468  0.1053
 1943TIP3    H127320   5.619   5.061   1.422  0.1915 -1.6171  0.9287
 1943TIP3    H227321   5.512   5.062   1.314  0.5475  1.1120  0.5750
 1944TIP3   OH227322   0.556   4.477   5.422 -0.7551 -0.5950  0.3674
 1944TIP3    H127323   0.584   4.445   5.337  0.7350 -2.3504  1.4782
 1944TIP3    H227324   0.490   4.414   5.451 -0.7511 -0.3981  0.8123
 1945TIP3   OH227325   2.444   4.618   0.473  0.3739  0.7105  0.0651
 1945TIP3    H127326   2.359   4.591   0.437  1.0394 -0.1331 -0.8764
 1945TIP3    H227327   2.427   4.631   0.566 -0.3378 -1.3897  0.2464
 1946TIP3   OH227328   4.612   4.326   0.690 -0.4810  0.0918 -0.4894
 1946TIP3    H127329   4.672   4.378   0.637  0.8749 -0.3314  0.5735
 1946TIP3    H227330   4.668   4.259   0.730 -1.4328  0.4279  1.4839
 1947TIP3   OH227331   2.309   6.715  15.665 -0.1727 -0.2502 -0.1788
 1947TIP3    H127332   2.349   6.796  15.635  0.4645 -0.6071 -0.3033
 1947TIP3    H227333   2.382   6.653  15.673 -0.5538 -0.6219  0.5490
 1948TIP3   OH227334   3.215   5.206  15.463  0.2438 -0.0733 -0.1056
 1948TIP3    H127335   3.262   5.283  15.495 -0.2751  0.3888 -0.4462
 1948TIP3    H227336   3.185   5.162  15.542 -1.3304  1.2410  0.0499
 1949TIP3   OH227337   1.037   6.368  13.767 -0.9158 -0.0439 -0.4084
 1949TIP3    H127338   0.946   6.396  13.767 -0.5362  1.2237  0.3685
 1949TIP3    H227339   1.082   6.433  13.713 -0.1228  0.5190  0.9107
 1950TIP3   OH227340   3.201   3.347  11.714 -0.1612 -0.1044  0.8552
 1950TIP3    H127341   3.197   3.312  11.803  1.7483  0.2181  1.0913
 1950TIP3    H227342   3.253   3.427  11.722  0.1363 -0.1405 -0.5612
 1951TIP3   OH227343   0.092   4.009  13.403  0.2942 -0.3127 -0.2991
 1951TIP3    H127344   0.161   4.015  13.337  0.5019  2.1494  0.0881
 1951TIP3    H227345   0.140   4.004  13.486  0.0450  1.4983 -0.0203
 1952TIP3   OH227346   3.503   1.743   2.379 -0.2156 -0.0101  0.1708
 1952TIP3    H127347   3.514   1.654   2.345 -0.9619 -0.2622  0.5807
 1952TIP3    H227348   3.560   1.797   2.324  0.7739 -0.8453  0.3649
 1953TIP3   OH227349   3.967   2.887  17.245 -0.1691 -0.3751  0.1088
 1953TIP3    H127350   3.913   2.822  17.289 -0.5424 -0.1206  0.0301
 1953TIP3    H227351   3.981   2.851  17.157 -0.3349 -0.3760  0.0818
 1954TIP3   OH227352   2.019   4.932   4.696  0.3147  0.1601 -0.3431
 1954TIP3    H127353   2.074   4.855   4.682  0.8434  0.4166  0.2475
 1954TIP3    H227354   2.067   5.003   4.653 -0.2454  0.1365 -1.0190
 1955TIP3   OH227355   1.969   2.805  13.424  0.0759  0.1689 -0.4904
 1955TIP3    H127356   1.978   2.853  13.507 -0.8719 -0.8784  0.2263
 1955TIP3    H227357   1.937   2.719  13.450 -1.2947  0.1956 -2.0343
 1956TIP3   OH227358   4.965   2.092   2.042 -0.3690  0.3733 -0.0729
 1956TIP3    H127359   4.951   2.084   1.947 -0.1465  1.0841 -0.1718
 1956TIP3    H227360   4.877   2.105   2.077 -0.5634 -0.8993 -0.0682
 1957TIP3   OH227361   6.611   5.307  13.895  0.1319 -0.6782  0.1384
 1957TIP3    H127362   6.540   5.252  13.860 -0.6157  0.2741  0.1544
 1957TIP3    H227363   6.568   5.365  13.957  0.8753  0.1698 -0.1407
 1958TIP3   OH227364   0.212   3.638  11.315 -0.3954  0.4691  0.3342
 1958TIP3    H127365   0.175   3.632  11.227 -0.5945 -0.8135  0.4925
 1958TIP3    H227366   0.278   3.568  11.317 -0.4181  0.4747  1.2258
 1959TIP3   OH227367   6.115   5.965  15.314  0.1843  0.0524  0.3194
 1959TIP3    H127368   6.075   5.879  15.323 -1.1054  0.3002 -2.4698
 1959TIP3    H227369   6.050   6.026  15.350 -0.2106  0.1021 -0.4655
 1960TIP3   OH227370   4.277   6.169  14.818  0.8219  0.1169 -0.8035
 1960TIP3    H127371   4.321   6.093  14.781  2.7042  0.2000  1.1825
 1960TIP3    H227372   4.341   6.240  14.813  0.3216  0.6847  0.5550
 1961TIP3   OH227373   5.179   0.320  17.179  0.1237  0.6180 -0.4635
 1961TIP3    H127374   5.223   0.330  17.263  3.1969 -0.3649 -1.8430
 1961TIP3    H227375   5.135   0.403  17.164  0.7248  1.3077  1.4455
 1962TIP3   OH227376   3.605   6.597   0.744 -0.1944 -0.3715 -0.1878
 1962TIP3    H127377   3.674   6.590   0.811 -1.0677  1.2701  0.9046
 1962TIP3    H227378   3.635   6.540   0.673  2.3471  0.4314  0.2103
 1963TIP3   OH227379   0.700   3.553  12.135 -0.3295 -0.5602 -0.4543
 1963TIP3    H127380   0.752   3.631  12.152 -0.3761 -0.7261  0.4794
 1963TIP3    H227381   0.764   3.486  12.110  0.3983 -1.7722  4.0904
 1964TIP3   OH227382   0.540   4.251   5.895  0.0051 -0.0847 -0.8407
 1964TIP3    H127383   0.498   4.184   5.948  0.4703  0.0567 -0.2803
 1964TIP3    H227384   0.591   4.303   5.958  0.7831 -0.0829 -1.4632
 1965TIP3   OH227385   1.636   0.686  11.561  0.7220  0.0669  0.3637
 1965TIP3    H127386   1.714   0.682  11.615 -0.2929  1.5479  1.9802
 1965TIP3    H227387   1.609   0.595  11.552  2.1864 -0.3862  0.4311
 1966TIP3   OH227388   0.260   5.160  15.234 -0.5350 -0.5387  0.1655
 1966TIP3    H127389   0.302   5.130  15.154  0.4347 -0.0842  0.4984
 1966TIP3    H227390   0.166   5.147  15.218 -0.2759 -1.6285 -0.5539
 1967TIP3   OH227391   0.638   3.535   2.738 -0.8274 -0.0833 -0.4776
 1967TIP3    H127392   0.617   3.553   2.830  1.2116 -0.2010  0.0419
 1967TIP3    H227393   0.671   3.618   2.704  2.0065 -0.9750 -0.0215
 1968TIP3   OH227394   4.849   1.997   5.424  0.1839 -0.7313  0.5238
 1968TIP3    H127395   4.760   1.997   5.460 -0.2746 -2.2787 -0.5179
 1968TIP3    H227396   4.836   2.006   5.329  1.2645  1.3082  0.5429
 1969TIP3   OH227397   2.613   4.132   0.535  0.1935 -0.1533  0.0140
 1969TIP3    H127398   2.637   4.132   0.627 -0.0198  1.8669  0.0880
 1969TIP3    H227399   2.694   4.108   0.489  0.5468 -0.1838  0.6556
 1970TIP3   OH227400   5.238   2.011   5.712  0.0875  0.3415  0.8603
 1970TIP3    H127401   5.145   2.034   5.703  0.6919  2.7206  0.1734
 1970TIP3    H227402   5.270   2.071   5.780  0.9666 -0.9958  1.6455
 1971TIP3   OH227403   4.715   1.827   0.153 -0.0383 -0.0785 -0.8493
 1971TIP3    H127404   4.625   1.861   0.157 -0.3368 -0.7725 -1.5192
 1971TIP3    H227405   4.713   1.765   0.080  0.8659 -0.4615 -0.5419
 1972TIP3   OH227406   5.212   0.423   2.269 -0.0906 -0.2280  0.2702
 1972TIP3    H127407   5.252   0.411   2.355 -1.6525  1.3149  1.2468
 1972TIP3    H227408   5.142   0.358   2.265  1.0780 -1.4758 -0.5739
 1973TIP3   OH227409   3.348   3.690   1.605  0.4415  0.3064 -0.2199
 1973TIP3    H127410   3.313   3.757   1.546  0.7704  0.5856 -0.1029
 1973TIP3    H227411   3.421   3.651   1.556  1.2458  1.1094  0.3239
 1974TIP3   OH227412   5.155   1.638  10.398 -0.6316  0.0541  0.7996
 1974TIP3    H127413   5.208   1.669  10.472  0.4175  0.8754 -0.2816
 1974TIP3    H227414   5.066   1.665  10.420 -0.2317  0.8803  1.4578
 1975TIP3   OH227415   5.748   1.718   4.061 -0.2532 -0.4225  0.2826
 1975TIP3    H127416   5.703   1.748   3.982 -0.2700 -0.1159  0.4066
 1975TIP3    H227417   5.678   1.701   4.124 -0.1560  0.7947  0.7261
 1976TIP3   OH227418   5.593   6.246  14.524 -0.2380  0.0570  0.4666
 1976TIP3    H127419   5.543   6.294  14.590  0.1386 -0.7919  1.3875
 1976TIP3    H227420   5.683   6.277  14.535 -0.4326  1.1270 -0.7697
 1977TIP3   OH227421   6.590   3.700  11.826  0.5544 -0.3338  0.1708
 1977TIP3    H127422   6.630   3.613  11.836 -1.7149 -1.4452 -0.0687
 1977TIP3    H227423   6.531   3.708  11.901 -0.9354  0.0432 -1.0236
 1978TIP3   OH227424   4.344   1.531   5.424  0.9190 -0.1364 -0.0715
 1978TIP3    H127425   4.316   1.593   5.492 -0.7232 -2.1896  1.1923
 1978TIP3    H227426   4.437   1.550   5.411  0.4590  2.5688  0.2931
 1979TIP3   OH227427   5.445   5.840   1.282 -0.3329  0.1955  0.2842
 1979TIP3    H127428   5.432   5.803   1.370  0.4863  0.2432  0.4366
 1979TIP3    H227429   5.537   5.867   1.282 -0.1001 -0.5807 -0.8832
 1980TIP3   OH227430   6.405   2.997   4.194 -0.2502  0.2180 -0.2362
 1980TIP3    H127431   6.324   3.014   4.242  0.6379 -0.2812  1.4537
 1980TIP3    H227432   6.408   2.902   4.182 -0.2554  0.2984 -0.9285
 1981TIP3   OH227433   1.106   5.125   3.832 -0.5042 -0.0591 -0.3534
 1981TIP3    H127434   1.196   5.141   3.806 -0.0779 -1.0138  0.4723
 1981TIP3    H227435   1.077   5.053   3.776  0.1156 -1.4992  1.1182
 1982TIP3   OH227436   4.640   1.685  17.180 -0.5687  0.0399 -0.1974
 1982TIP3    H127437   4.553   1.709  17.146 -0.3089  1.9004  0.4143
 1982TIP3    H227438   4.691   1.665  17.102 -0.8734  1.2319 -0.7136
 1983TIP3   OH227439   6.804   3.569   2.471  0.0535  0.4407 -0.0103
 1983TIP3    H127440   6.785   3.663   2.477 -1.1951  0.2950 -1.3008
 1983TIP3    H227441   6.808   3.552   2.377  0.6064 -0.7372  0.2198
 1984TIP3   OH227442   2.985   6.694   4.592 -0.0309 -0.2827  0.3198
 1984TIP3    H127443   2.978   6.607   4.552  0.0921 -0.5903  0.9565
 1984TIP3    H227444   2.995   6.753   4.518  0.8942 -0.9181 -0.0727
 1985TIP3   OH227445   5.495   6.250   1.153  0.3422 -0.0159 -0.2766
 1985TIP3    H127446   5.434   6.178   1.168 -0.3493  1.0953  2.5891
 1985TIP3    H227447   5.445   6.314   1.104  0.3907 -0.6738 -1.2072
 1986TIP3   OH227448   4.664   3.714  15.173  0.5210 -0.2990 -0.3409
 1986TIP3    H127449   4.746   3.721  15.223  0.5030 -1.1144 -0.1825
 1986TIP3    H227450   4.683   3.755  15.089 -0.0665  2.9758  1.0464
 1987TIP3   OH227451   0.954   1.400   0.885  0.1240 -0.3444 -0.1943
 1987TIP3    H127452   0.936   1.312   0.919  0.1274 -1.0003 -1.8723
 1987TIP3    H227453   0.886   1.455   0.924  0.1577 -1.0653  0.9159
 1988TIP3   OH227454   1.591   5.300  14.298 -0.4930 -0.1044  0.4470
 1988TIP3    H127455   1.659   5.233  14.291 -1.2844 -0.7193 -1.7412
 1988TIP3    H227456   1.639   5.383  14.296  0.2606 -0.5471 -0.2650
 1989TIP3   OH227457   4.734   0.167   2.450 -0.0337 -0.2997 -0.2776
 1989TIP3    H127458   4.743   0.077   2.420 -0.6976 -0.5402  0.2370
 1989TIP3    H227459   4.737   0.162   2.545  0.4137  0.2764 -0.2604
 1990TIP3   OH227460   5.705   2.022   2.980 -0.1335  0.5529 -0.5601
 1990TIP3    H127461   5.686   1.929   2.989 -2.4152  1.0476 -0.1798
 1990TIP3    H227462   5.640   2.066   3.033  0.6524  2.4081 -1.0890
 1991TIP3   OH227463   1.526   5.728  12.851  0.9892  0.1469 -0.2523
 1991TIP3    H127464   1.583   5.804  12.858  0.8004  0.1280  2.0784
 1991TIP3    H227465   1.499   5.726  12.760  0.7906  3.0219 -0.2954
 1992TIP3   OH227466   6.579   0.104   5.081 -0.5260 -0.1124  0.5389
 1992TIP3    H127467   6.609   0.035   5.141 -0.7107  0.0083  0.7714
 1992TIP3    H227468   6.640   0.177   5.095 -2.1595  0.9119  2.5372
 1993TIP3   OH227469   3.029   4.843   2.340 -0.1177 -0.4462 -0.7385
 1993TIP3    H127470   2.971   4.778   2.299 -1.4769 -0.4330  1.0953
 1993TIP3    H227471   2.976   4.883   2.409  2.2885 -0.9203  1.4770
 1994TIP3   OH227472   5.470   5.347   2.448  0.3124 -0.2908  0.1353
 1994TIP3    H127473   5.408   5.399   2.498  0.1926 -0.1832 -0.1227
 1994TIP3    H227474   5.450   5.367   2.356 -1.0018 -2.2175 -0.0275
 1995TIP3   OH227475   3.505   4.809   5.100  0.1045 -0.6455 -0.2272
 1995TIP3    H127476   3.534   4.761   5.178  1.9198 -0.4437 -0.7672
 1995TIP3    H227477   3.493   4.741   5.034 -2.8559 -0.9988  0.5951
 1996TIP3   OH227478   0.755   4.731  14.100  0.1201 -0.0718  0.0510
 1996TIP3    H127479   0.794   4.723  14.187  1.7462  0.6864 -0.5844
 1996TIP3    H227480   0.738   4.641  14.073 -0.0209 -0.3290  0.9967
 1997TIP3   OH227481   1.540   5.815   5.664  0.1278 -0.7940  0.6457
 1997TIP3    H127482   1.568   5.733   5.704 -2.6646 -1.7300  0.8136
 1997TIP3    H227483   1.474   5.789   5.600 -0.0002  1.2265 -0.0871
 1998TIP3   OH227484   4.480   6.399  14.863  0.1033  0.1387  0.0527
 1998TIP3    H127485   4.448   6.480  14.902  1.5137  0.7644 -0.0441
 1998TIP3    H227486   4.514   6.348  14.936  1.9542  0.9422 -0.2017
 1999TIP3   OH227487   6.446   0.296   4.540 -0.1635  0.0738 -0.0436
 1999TIP3    H127488   6.524   0.330   4.498  0.8578 -0.5163  1.3457
 1999TIP3    H227489   6.430   0.212   4.497  0.0048  0.1622 -0.2803
 2000TIP3   OH227490   3.157   0.453  15.000  0.1852  0.1297 -0.1900
 2000TIP3    H127491   3.133   0.521  15.063 -2.5215  0.3194 -1.3477
 2000TIP3    H227492   3.080   0.397  14.995  2.8384 -3.9019  1.7542
 2001TIP3   OH227493   1.478   2.493  15.249  0.4856 -0.1160 -0.1063
 2001TIP3    H127494   1.406   2.430  15.246  1.3133 -1.0356 -1.5692
 2001TIP3    H227495   1.546   2.449  15.300  0.9077 -0.2402 -0.7719
 2002TIP3   OH227496   4.266   1.585   1.458  0.8653  0.7299  0.0308
 2002TIP3    H127497   4.178   1.593   1.494  1.1122 -0.3541  0.9200
 2002TIP3    H227498   4.255   1.593   1.363 -0.0305  1.7712  0.2154
 2003TIP3   OH227499   1.921   1.479   2.784 -0.5881  0.3030  0.1487
 2003TIP3    H127500   1.885   1.435   2.707  2.0121 -3.1778  0.8061
 2003TIP3    H227501   2.010   1.504   2.758 -0.2279  0.4955  1.5159
 2004TIP3   OH227502   4.384   3.374  12.262  0.2025 -0.6541 -0.0786
 2004TIP3    H127503   4.373   3.359  12.356  1.3357  0.4079  0.2310
 2004TIP3    H227504   4.370   3.288  12.223 -4.2333 -0.4120  0.6543
 2005TIP3   OH227505   2.246   6.683   3.636 -0.3391 -0.2587  0.0118
 2005TIP3    H127506   2.175   6.734   3.675 -0.5307 -0.7435  0.3077
 2005TIP3    H227507   2.205   6.601   3.610  0.1359 -0.5919  0.2974
 2006TIP3   OH227508   3.029   2.826   1.272 -0.5071  0.4663  0.0756
 2006TIP3    H127509   3.119   2.792   1.273  0.3942  2.7871  1.8338
 2006TIP3    H227510   3.024   2.878   1.192 -0.3249  0.2036 -0.1063
 2007TIP3   OH227511   6.290   1.662   5.450 -0.6705 -0.0411  0.2094
 2007TIP3    H127512   6.360   1.598   5.437  0.4599  1.2383 -0.2050
 2007TIP3    H227513   6.292   1.682   5.543 -3.7354 -3.5853  1.1375
 2008TIP3   OH227514   2.276   5.484  14.027  0.0157 -0.3547  0.0528
 2008TIP3    H127515   2.369   5.499  14.012 -0.3768  1.1405 -1.0298
 2008TIP3    H227516   2.244   5.564  14.068 -1.3129  0.2859 -2.0919
 2009TIP3   OH227517   1.730   3.138  12.441 -0.4638  0.1597 -0.5051
 2009TIP3    H127518   1.808   3.084  12.444  0.6184  1.6590 -1.0314
 2009TIP3    H227519   1.657   3.076  12.434  0.5259 -1.3195  1.8614
 2010TIP3   OH227520   0.697   5.148  15.586 -0.5116 -0.1462  0.5260
 2010TIP3    H127521   0.633   5.217  15.572 -0.7474 -0.3755  0.4565
 2010TIP3    H227522   0.710   5.145  15.681  1.3396  1.6344  0.3672
 2011TIP3   OH227523   5.143   2.962  11.470 -0.6003 -0.4665 -0.0908
 2011TIP3    H127524   5.075   2.903  11.502 -0.9789 -0.9985 -1.7827
 2011TIP3    H227525   5.200   2.905  11.417 -0.0237  0.3669 -0.3737
 2012TIP3   OH227526   1.668   0.934  13.057 -0.3314  0.1925  0.3570
 2012TIP3    H127527   1.721   0.874  13.111 -0.9899 -0.3168  0.4497
 2012TIP3    H227528   1.582   0.892  13.054 -0.9603  1.4351  0.8987
 2013TIP3   OH227529   1.847   1.115   2.730 -0.2683  0.1634  0.3539
 2013TIP3    H127530   1.834   1.207   2.706 -0.6742  0.0077 -0.0332
 2013TIP3    H227531   1.880   1.118   2.819  0.5022  0.7188  0.0500
 2014TIP3   OH227532   3.925   5.031  12.619  0.0180  0.5393  0.0533
 2014TIP3    H127533   3.930   5.079  12.536  1.7372  1.3828  0.6172
 2014TIP3    H227534   3.864   5.081  12.673 -0.1266  0.6908 -0.2507
 2015TIP3   OH227535   3.741   4.732  16.550 -0.2256 -0.6396 -0.1769
 2015TIP3    H127536   3.772   4.799  16.490 -1.5814 -0.8576 -1.1624
 2015TIP3    H227537   3.689   4.780  16.615 -1.3200 -0.7176 -0.9687
 2016TIP3   OH227538   1.795   4.901  15.669 -0.2901 -0.3577 -0.0295
 2016TIP3    H127539   1.796   4.830  15.733  2.9427  0.3209  0.7846
 2016TIP3    H227540   1.782   4.980  15.721 -1.6935 -0.1506 -0.6838
 2017TIP3   OH227541   4.266   4.019   5.015 -0.0306  0.2978  0.3796
 2017TIP3    H127542   4.179   3.988   5.039 -0.1421  0.3705  0.0781
 2017TIP3    H227543   4.298   4.064   5.093 -0.9900  1.8297 -0.0899
 2018TIP3   OH227544   6.549   6.069   1.966  0.2407  0.3368 -0.3723
 2018TIP3    H127545   6.486   6.137   1.939  1.2161  1.0584 -0.8454
 2018TIP3    H227546   6.556   6.012   1.890  0.6302  0.6174 -0.5515
 2019TIP3   OH227547   1.863   0.565   1.596 -0.4952 -0.5220 -0.3236
 2019TIP3    H127548   1.901   0.557   1.684 -0.0108 -1.0323 -0.5786
 2019TIP3    H227549   1.935   0.545   1.537 -0.7143  0.2459 -0.8511
 2020TIP3   OH227550   0.445   3.200  11.757 -0.3515  0.2581 -0.0109
 2020TIP3    H127551   0.475   3.266  11.820  0.6311 -0.8714  0.7223
 2020TIP3    H227552   0.373   3.243  11.710 -0.4977  1.4334  1.2508
 2021TIP3   OH227553   4.313   5.425   5.452 -0.5541  0.1310 -0.5855
 2021TIP3    H127554   4.251   5.415   5.379 -1.3806 -1.0934  0.2620
 2021TIP3    H227555   4.392   5.380   5.422 -0.1964  1.3451 -1.5104
 2022TIP3   OH227556   3.731   1.898   3.158  0.4970 -0.0924 -0.0877
 2022TIP3    H127557   3.816   1.937   3.176  0.0927  0.9359 -0.4123
 2022TIP3    H227558   3.669   1.948   3.210  0.1406 -1.1595  0.5329
 2023TIP3   OH227559   2.378   6.792   4.631  0.0053  0.0864 -0.0448
 2023TIP3    H127560   2.417   6.748   4.555  0.6018 -1.1378  0.9549
 2023TIP3    H227561   2.287   6.806   4.606 -0.2687 -1.9803 -0.2689
 2024TIP3   OH227562   5.030   2.122  13.380  0.3994 -0.4797 -0.1609
 2024TIP3    H127563   5.040   2.035  13.420 -2.7279 -0.1897  1.4168
 2024TIP3    H227564   5.102   2.173  13.415  1.9788 -2.2962 -0.6995
 2025TIP3   OH227565   6.675   0.196   1.269 -0.0052 -0.1295  0.3303
 2025TIP3    H127566   6.751   0.155   1.229  0.3569  1.2564 -0.4396
 2025TIP3    H227567   6.698   0.201   1.362  0.0968 -1.3106  0.3759
 2026TIP3   OH227568   5.844   6.442  15.967  0.0015  0.4226  0.3008
 2026TIP3    H127569   5.920   6.499  15.978  0.8036 -0.6573  0.5235
 2026TIP3    H227570   5.848   6.414  15.876  1.0265 -1.2128  0.8313
 2027TIP3   OH227571   4.024   4.557   2.066 -0.3213 -0.5799 -0.2592
 2027TIP3    H127572   4.007   4.468   2.033  0.6488 -1.5305  1.7238
 2027TIP3    H227573   4.119   4.563   2.068 -0.3600 -0.4616  2.1027
 2028TIP3   OH227574   0.402   0.387  13.581  0.4300  0.0132  0.5457
 2028TIP3    H127575   0.422   0.294  13.571 -0.7785 -0.1374 -0.7644
 2028TIP3    H227576   0.444   0.428  13.505 -0.5440  0.2657  0.1272
 2029TIP3   OH227577   2.014   0.174  12.887  0.4443  0.6564  0.1328
 2029TIP3    H127578   2.057   0.132  12.812  0.4952 -0.5856  0.8544
 2029TIP3    H227579   2.014   0.267  12.864  0.9271  0.3545 -1.1799
 2030TIP3   OH227580   3.559   0.215   3.951  0.2312  0.5069  0.4183
 2030TIP3    H127581   3.622   0.245   3.886 -1.6237  0.3483 -1.5203
 2030TIP3    H227582   3.571   0.120   3.954  0.8096  0.5892  0.8612
 2031TIP3   OH227583   3.406   0.104  14.203  0.1208 -0.1985  0.3277
 2031TIP3    H127584   3.482   0.139  14.156  0.7937  1.0940  2.3046
 2031TIP3    H227585   3.332   0.153  14.166  0.4914 -0.0356 -0.2152
 2032TIP3   OH227586   1.937   6.030   5.225 -0.1866 -0.1926  0.5080
 2032TIP3    H127587   1.874   6.097   5.201  0.7513  0.1985 -0.9223
 2032TIP3    H227588   1.895   5.982   5.297 -1.7925  0.5012  0.0493
 2033TIP3   OH227589   2.578   5.039   2.573 -0.3551  0.7479  0.0493
 2033TIP3    H127590   2.553   5.057   2.663  0.9492  0.1923  0.5365
 2033TIP3    H227591   2.546   4.950   2.556 -0.7163  0.9016 -0.0884
 2034TIP3   OH227592   2.271   0.081   2.116 -0.2234 -0.2031 -0.1577
 2034TIP3    H127593   2.270   0.174   2.096  0.7451  0.1074  1.1396
 2034TIP3    H227594   2.250   0.076   2.210 -0.1625 -1.2745 -0.1888
 2035TIP3   OH227595   2.095   2.095   1.655 -0.4116 -0.2315 -0.2179
 2035TIP3    H127596   2.028   2.030   1.673 -1.5737  0.5119 -1.7785
 2035TIP3    H227597   2.054   2.179   1.677  0.0322  0.2237 -1.1039
 2036TIP3   OH227598   1.128   2.214   4.491  0.1878 -0.4367  0.3281
 2036TIP3    H127599   1.155   2.127   4.463 -0.1888 -0.4552  0.0268
 2036TIP3    H227600   1.065   2.199   4.562 -0.6406 -0.4289 -0.3993
 2037TIP3   OH227601   1.627   0.102   1.979 -0.2316 -0.1191 -0.4023
 2037TIP3    H127602   1.552   0.088   1.921 -3.4811  3.2195  2.7255
 2037TIP3    H227603   1.661   0.188   1.954  0.5785 -0.2183  0.3368
 2038TIP3   OH227604   6.277   4.431  17.142  0.2581 -0.5441  0.1725
 2038TIP3    H127605   6.214   4.501  17.127 -0.7393 -1.5301 -0.3411
 2038TIP3    H227606   6.246   4.388  17.222  2.1299  0.9521  1.7699
 2039TIP3   OH227607   1.829   5.725  12.543  0.2477  0.1079  1.2301
 2039TIP3    H127608   1.914   5.761  12.570  1.0060  0.7050 -1.7334
 2039TIP3    H227609   1.851   5.665  12.472 -1.7151 -0.7330  1.3055
 2040TIP3   OH227610   0.667   4.302   3.060 -0.2364  0.5320 -1.1095
 2040TIP3    H127611   0.585   4.260   3.086 -0.1888  0.7564 -0.5903
 2040TIP3    H227612   0.731   4.273   3.124 -0.3715  1.9940 -0.2821
 2041TIP3   OH227613   5.464   1.249   5.641 -0.3428 -0.0393  0.2301
 2041TIP3    H127614   5.433   1.158   5.642  2.1929 -0.9475  0.5057
 2041TIP3    H227615   5.414   1.291   5.571 -1.4584 -1.6721  0.0174
 2042TIP3   OH227616   2.804   6.652   0.261  0.2692  0.1279  0.0141
 2042TIP3    H127617   2.841   6.629   0.176  0.6956  0.3694  0.1329
 2042TIP3    H227618   2.839   6.587   0.321 -2.3890 -1.8617 -0.5077
 2043TIP3   OH227619   6.522   0.100  13.469  0.3392  0.2360 -0.1178
 2043TIP3    H127620   6.528   0.119  13.375 -1.7047 -3.3517 -1.1046
 2043TIP3    H227621   6.612   0.091  13.498  0.9920  0.8251 -1.8883
 2044TIP3   OH227622   4.161   5.493  11.859 -0.0384 -0.2631 -0.3214
 2044TIP3    H127623   4.162   5.510  11.954 -0.1480 -0.4536 -0.2865
 2044TIP3    H227624   4.249   5.463  11.839  0.7041  2.1005 -0.7053
 2045TIP3   OH227625   6.199   0.702  12.001 -0.0998 -0.4486 -0.0710
 2045TIP3    H127626   6.152   0.624  11.973  0.0521 -1.0860  1.3953
 2045TIP3    H227627   6.289   0.672  12.015  0.9845  0.9088 -3.5366
 2046TIP3   OH227628   5.568   3.397  12.168  0.2056  0.0558  0.8528
 2046TIP3    H127629   5.544   3.321  12.221  1.2602 -1.5711 -0.9277
 2046TIP3    H227630   5.664   3.395  12.165  0.2825  1.8831  1.3582
 2047TIP3   OH227631   2.036   4.146   5.575  0.4228 -0.4062  0.0539
 2047TIP3    H127632   1.958   4.103   5.541  1.6587 -1.3303 -1.6608
 2047TIP3    H227633   2.106   4.081   5.566  1.4590  0.4856  1.3561
 2048TIP3   OH227634   0.314   5.349   1.674  0.1776 -0.2187 -0.2575
 2048TIP3    H127635   0.324   5.399   1.756  1.1968  1.5768 -1.4428
 2048TIP3    H227636   0.278   5.413   1.612 -0.6931 -1.6027 -1.1890
 2049TIP3   OH227637   4.145   6.011  10.743 -0.4594 -0.0048  0.3330
 2049TIP3    H127638   4.203   6.064  10.799 -0.6243  1.0824 -0.5020
 2049TIP3    H227639   4.189   5.927  10.735  0.3406  0.3612  0.8255
 2050TIP3   OH227640   0.201   3.698   4.411  0.0082  0.1605  0.6047
 2050TIP3    H127641   0.294   3.679   4.425  0.0898  0.2184  0.1473
 2050TIP3    H227642   0.157   3.614   4.425  0.2785 -0.1799 -0.5729
 2051TIP3   OH227643   1.780   5.690   4.337  0.2553  0.0919  0.0521
 2051TIP3    H127644   1.686   5.701   4.322  0.3328  0.5445 -0.1389
 2051TIP3    H227645   1.803   5.611   4.289 -0.1281 -0.3147  0.5406
 2052TIP3   OH227646   3.746   3.915  16.345 -0.2838 -0.3658 -0.4344
 2052TIP3    H127647   3.652   3.901  16.359 -0.2573  0.0413  0.1904
 2052TIP3    H227648   3.751   3.966  16.264 -0.5200 -1.5882 -1.2440
 2053TIP3   OH227649   1.813   4.009   6.065 -0.0504  0.5997 -0.5914
 2053TIP3    H127650   1.841   4.043   5.980 -0.8104  0.7589 -0.7740
 2053TIP3    H227651   1.732   4.055   6.084  1.2259  2.2024  1.2387
 2054TIP3   OH227652   5.901   3.826  13.733 -0.4407 -0.2270 -0.0801
 2054TIP3    H127653   5.883   3.742  13.690 -1.7734 -0.2609  0.5236
 2054TIP3    H227654   5.995   3.823  13.753 -0.0393 -0.6996 -1.8992
 2055TIP3   OH227655   3.240   0.567  11.875 -0.4109 -0.0677 -0.1001
 2055TIP3    H127656   3.211   0.520  11.953 -0.4638 -0.4673 -0.3646
 2055TIP3    H227657   3.275   0.500  11.817  0.9298  0.3899  0.1568
 2056TIP3   OH227658   3.638   2.323   0.041 -0.4345 -0.0349 -0.2704
 2056TIP3    H127659   3.705   2.338   0.108 -1.5106  2.6386  0.2796
 2056TIP3    H227660   3.688   2.320  -0.041  0.5959 -0.4198  0.3556
 2057TIP3   OH227661   2.941   3.202  14.291  0.2381 -0.2199 -0.3979
 2057TIP3    H127662   2.916   3.265  14.360 -2.4068  0.7158 -2.1157
 2057TIP3    H227663   2.912   3.117  14.325  0.2870  0.0290  0.2845
 2058TIP3   OH227664   3.935   0.214  16.872 -0.4773  0.1020  1.0680
 2058TIP3    H127665   3.984   0.296  16.873 -2.1448  1.1292  0.0581
 2058TIP3    H227666   3.893   0.210  16.958  0.4400 -0.2324  1.5122
 2059TIP3   OH227667   6.655   0.847   2.451  0.1369 -0.0354  0.4104
 2059TIP3    H127668   6.748   0.861   2.436 -0.4146  1.0621 -2.2111
 2059TIP3    H227669   6.628   0.786   2.383 -1.4947  1.3547 -0.2259
 2060TIP3   OH227670   1.852   2.565  12.074  1.3195  0.1499 -0.2421
 2060TIP3    H127671   1.807   2.646  12.050 -0.4008 -0.2232  1.5941
 2060TIP3    H227672   1.907   2.589  12.149  0.1663 -0.5456  0.8398
 2061TIP3   OH227673   4.134   4.764  14.524  0.2819  0.0243 -0.1862
 2061TIP3    H127674   4.187   4.827  14.475  0.0049  0.2179 -0.2395
 2061TIP3    H227675   4.043   4.789  14.505  0.1374 -1.7959 -2.0235
 2062TIP3   OH227676   3.647   1.818  15.422 -0.3183  0.2739  0.3389
 2062TIP3    H127677   3.693   1.902  15.416 -2.4406  1.3860 -0.8474
 2062TIP3    H227678   3.617   1.800  15.333 -0.8079 -1.2365  0.7921
 2063TIP3   OH227679   4.793   3.548  11.360 -0.0644  0.3706 -0.2758
 2063TIP3    H127680   4.855   3.500  11.305  0.5537  0.7574  0.0705
 2063TIP3    H227681   4.746   3.605  11.300  1.2799  1.4968 -0.2945
 2064TIP3   OH227682   1.477   6.535  11.594 -1.0939  0.2121  0.0058
 2064TIP3    H127683   1.461   6.608  11.533 -0.6786  0.1772 -0.1464
 2064TIP3    H227684   1.527   6.472  11.543 -0.8994  0.1026  0.3316
 2065TIP3   OH227685   1.152   0.683   1.887 -0.0494  0.0106  0.1102
 2065TIP3    H127686   1.175   0.745   1.956  2.6560 -0.6042 -0.2068
 2065TIP3    H227687   1.082   0.630   1.925 -0.5907  1.5497  1.3100
 2066TIP3   OH227688   6.120   6.798  14.226 -0.3291 -0.2211  0.8674
 2066TIP3    H127689   6.176   6.845  14.164  0.8194 -1.3035  1.0656
 2066TIP3    H227690   6.132   6.706  14.205 -0.7508 -0.5487  2.0103
 2067TIP3   OH227691   0.032   3.092   1.090 -0.1697  0.2639 -0.4002
 2067TIP3    H127692   0.063   3.127   1.006 -0.6163  2.9125  0.4672
 2067TIP3    H227693   0.107   3.047   1.127  1.1056  2.0763 -0.6951
 2068TIP3   OH227694   4.565   4.406   6.439  0.4095 -0.0669  0.0852
 2068TIP3    H127695   4.551   4.311   6.450 -0.0226 -0.1313 -0.9946
 2068TIP3    H227696   4.656   4.419   6.467  0.8281 -0.9847 -0.7847
 2069TIP3   OH227697   1.675   4.513   6.585 -1.0304 -0.1789  0.2088
 2069TIP3    H127698   1.721   4.465   6.517 -0.4236  0.1295  0.4045
 2069TIP3    H227699   1.596   4.461   6.602 -1.3381 -0.1038 -0.9446
 2070TIP3   OH227700   1.235   6.804  17.029  0.3390 -0.0570 -0.2330
 2070TIP3    H127701   1.227   6.890  17.070  0.9133  0.1769 -0.6089
 2070TIP3    H227702   1.144   6.778  17.011  0.1282  0.1675  0.4974
 2071TIP3   OH227703   2.615   0.572   5.666 -0.1095 -0.0009 -0.5535
 2071TIP3    H127704   2.700   0.584   5.707  0.6805  0.8126 -2.3701
 2071TIP3    H227705   2.557   0.633   5.710  0.6668  0.6836 -0.4773
 2072TIP3   OH227706   5.608   0.691   0.569 -0.2399 -0.4570 -0.1528
 2072TIP3    H127707   5.585   0.783   0.554 -1.3889 -0.6414  0.4050
 2072TIP3    H227708   5.528   0.652   0.605  1.0201 -1.0864  2.0737
 2073TIP3   OH227709   1.108   2.981   6.462  0.1583  0.2478  0.0908
 2073TIP3    H127710   1.051   2.913   6.498  1.4326 -1.4121 -0.9096
 2073TIP3    H227711   1.141   2.944   6.380  1.2283  1.8989 -0.2585
 2074TIP3   OH227712   5.080   5.154  14.225 -0.4386  0.2419 -0.5725
 2074TIP3    H127713   5.102   5.067  14.192 -1.1708  0.0333 -0.5088
 2074TIP3    H227714   5.064   5.207  14.146 -0.7870  0.1092 -0.5915
 2075TIP3   OH227715   3.472   5.656  16.623 -0.7166  0.2271 -0.2910
 2075TIP3    H127716   3.434   5.663  16.535 -1.2096  0.1672 -0.0911
 2075TIP3    H227717   3.450   5.738  16.666 -2.6854 -0.7211  0.6077
 2076TIP3   OH227718   6.208   1.479  14.715  0.3065 -0.5911 -0.2725
 2076TIP3    H127719   6.256   1.540  14.660 -1.4449 -1.1471 -2.5243
 2076TIP3    H227720   6.275   1.423  14.754  1.6814  0.7468 -0.6983
 2077TIP3   OH227721   0.296   3.067  13.734  0.4013 -0.2044 -0.4916
 2077TIP3    H127722   0.218   3.054  13.789  1.0164  0.0395  0.4523
 2077TIP3    H227723   0.300   2.990  13.678  0.3103 -0.9192  0.4877
 2078TIP3   OH227724   5.381   1.217  13.790 -0.3039 -0.6044 -0.4266
 2078TIP3    H127725   5.445   1.176  13.731  0.3736 -1.3964  0.8436
 2078TIP3    H227726   5.430   1.236  13.869 -1.0933  0.9219 -0.2863
 2079TIP3   OH227727   0.947   5.094  15.395  0.1527 -0.1446  0.0588
 2079TIP3    H127728   0.858   5.060  15.404  0.0490 -0.0641 -0.6552
 2079TIP3    H227729   0.945   5.148  15.317  0.7781  0.0300  0.1574
 2080TIP3   OH227730   1.852   2.153  12.172 -0.1379 -0.3071  0.3122
 2080TIP3    H127731   1.942   2.127  12.192 -0.1494  0.3443  1.2437
 2080TIP3    H227732   1.806   2.144  12.255 -0.6018  0.7246  0.1696
 2081TIP3   OH227733   0.455   1.913  16.406 -0.4101  0.4408 -0.2779
 2081TIP3    H127734   0.488   1.969  16.336  1.6449  0.3037  0.5767
 2081TIP3    H227735   0.532   1.886  16.455 -1.8187  0.4925  2.0397
 2082TIP3   OH227736   5.100   5.562  12.436 -0.2059 -0.3919  0.4337
 2082TIP3    H127737   5.159   5.631  12.467  0.5065  0.5356 -2.7570
 2082TIP3    H227738   5.157   5.488  12.416 -0.9598 -1.9771  3.7428
 2083TIP3   OH227739   5.253   4.888   0.212 -0.4301 -0.0540 -0.0478
 2083TIP3    H127740   5.168   4.881   0.169  1.1946  0.0481 -3.4187
 2083TIP3    H227741   5.234   4.931   0.295 -3.3517  2.2203 -1.7980
 2084TIP3   OH227742   1.916   3.607   3.072 -0.3911  0.3700 -0.0617
 2084TIP3    H127743   1.889   3.652   3.152 -3.0917  1.3720 -1.4477
 2084TIP3    H227744   1.918   3.515   3.096 -1.4678  0.6282  1.1082
 2085TIP3   OH227745   2.149   4.118  16.552  0.5351  0.4263  0.4513
 2085TIP3    H127746   2.146   4.201  16.506 -0.2610 -0.2758 -0.7845
 2085TIP3    H227747   2.060   4.107  16.586  0.0895 -0.8574 -1.0887
 2086TIP3   OH227748   0.152   2.427   1.971  0.0138 -0.3863  0.2861
 2086TIP3    H127749   0.228   2.456   2.022 -0.8571 -0.0590  1.4433
 2086TIP3    H227750   0.172   2.336   1.949 -0.1713 -0.9946  2.4319
 2087TIP3   OH227751   5.157   1.805  15.242 -0.2545  0.3532  0.2989
 2087TIP3    H127752   5.099   1.875  15.271  0.6361  0.4704  1.8458
 2087TIP3    H227753   5.211   1.785  15.319  1.2458 -0.2489 -0.8764
 2088TIP3   OH227754   1.091   2.486  12.456  0.5098  0.6859 -0.5022
 2088TIP3    H127755   1.013   2.534  12.483  0.0357  0.1553 -0.9266
 2088TIP3    H227756   1.087   2.486  12.360  1.1868  0.9120 -0.5332
 2089TIP3   OH227757   0.778   5.568   0.843  0.4738 -0.2494  0.4994
 2089TIP3    H127758   0.868   5.550   0.817  0.6149  2.4148 -1.0275
 2089TIP3    H227759   0.779   5.660   0.869 -2.4694  0.8196 -2.8341
 2090TIP3   OH227760   1.252   6.537  11.066  0.4220  0.2287  0.3224
 2090TIP3    H127761   1.207   6.506  11.144  0.5208 -2.4323 -0.6158
 2090TIP3    H227762   1.196   6.607  11.032 -1.9172 -1.5907  0.3307
 2091TIP3   OH227763   5.772   5.520   3.142  0.0183 -0.3806  0.1313
 2091TIP3    H127764   5.778   5.463   3.066 -0.0391  0.7460 -0.7186
 2091TIP3    H227765   5.861   5.552   3.155  0.6078 -2.6243  2.1618
 2092TIP3   OH227766   5.936   2.101  13.317 -0.4643  0.2155 -0.1844
 2092TIP3    H127767   5.953   2.176  13.374 -1.2185  0.9319 -0.8791
 2092TIP3    H227768   5.841   2.103  13.304 -0.7821 -2.1377  1.5038
 2093TIP3   OH227769   4.855   2.393  13.320 -0.3672 -0.7966 -0.6973
 2093TIP3    H127770   4.811   2.420  13.401 -0.4613 -3.2253  0.0975
 2093TIP3    H227771   4.789   2.406  13.252 -1.3942 -1.7708  0.0868
 2094TIP3   OH227772   0.868   0.003   6.700  0.3399 -0.1280 -0.0189
 2094TIP3    H127773   0.879  -0.065   6.633  1.4947  0.1753 -0.1513
 2094TIP3    H227774   0.782  -0.013   6.737  1.0554 -2.3748  0.7528
 2095TIP3   OH227775   6.471   2.407   2.805  0.0779  0.2350 -0.8661
 2095TIP3    H127776   6.496   2.338   2.865  2.3965  0.9544 -0.9589
 2095TIP3    H227777   6.552   2.457   2.791 -1.4906  2.8132 -0.9663
 2096TIP3   OH227778   5.734   2.223  11.068  0.0274  0.0836  0.1596
 2096TIP3    H127779   5.696   2.310  11.071  2.0682  1.0272 -0.5362
 2096TIP3    H227780   5.746   2.199  11.160 -0.5603  0.5280  0.3547
 2097TIP3   OH227781   2.676   2.536   5.856 -0.8400 -0.0824  0.0261
 2097TIP3    H127782   2.679   2.494   5.942 -1.2897 -0.8460 -0.3281
 2097TIP3    H227783   2.706   2.626   5.872  0.7494 -0.7109  0.6792
 2098TIP3   OH227784   0.438   2.495   4.911 -0.1463 -0.7587  0.3633
 2098TIP3    H127785   0.455   2.463   5.000  1.5257  0.7554  0.6104
 2098TIP3    H227786   0.351   2.536   4.916 -0.3441 -1.2593  1.1286
 2099TIP3   OH227787   1.878   0.106  13.565  0.2211  0.1303 -0.2038
 2099TIP3    H127788   1.799   0.113  13.618  0.2344  0.2556 -0.2000
 2099TIP3    H227789   1.946   0.146  13.618 -0.1894  2.2031 -1.2039
 2100TIP3   OH227790   5.155   1.923   6.302 -0.2812  0.0080  0.9468
 2100TIP3    H127791   5.189   1.853   6.357 -0.8839 -1.3101 -0.3563
 2100TIP3    H227792   5.086   1.883   6.249 -2.0535  2.0252  1.6143
 2101TIP3   OH227793   2.452   3.875   1.044  0.3812 -0.7145 -0.4830
 2101TIP3    H127794   2.360   3.861   1.022  0.4048 -0.2645 -0.8684
 2101TIP3    H227795   2.452   3.956   1.095  0.8886  0.8224 -2.8358
 2102TIP3   OH227796   1.760   5.153   0.009 -0.2990 -0.6617  0.0171
 2102TIP3    H127797   1.852   5.131  -0.006 -0.0865 -1.0751  1.8182
 2102TIP3    H227798   1.716   5.068   0.017 -0.9022 -0.4661 -1.1977
 2103TIP3   OH227799   4.803   5.888  13.767 -0.1869  0.3592 -0.3701
 2103TIP3    H127800   4.746   5.962  13.786 -0.3122  0.4889 -1.2353
 2103TIP3    H227801   4.801   5.835  13.847  0.0838  1.3959  0.3352
 2104TIP3   OH227802   6.179   5.583   1.480 -0.1420  1.0307  0.2892
 2104TIP3    H127803   6.141   5.617   1.561 -0.4426  0.8213  0.2354
 2104TIP3    H227804   6.113   5.601   1.413 -0.4266  0.0750  0.3142
 2105TIP3   OH227805   3.225   2.649   2.068 -0.1610 -0.2558  0.5933
 2105TIP3    H127806   3.216   2.640   1.973  1.0224  0.2648  0.4266
 2105TIP3    H227807   3.141   2.618   2.103 -0.2434 -1.3820 -0.5612
 2106TIP3   OH227808   0.054   4.386  13.947 -0.1205  0.1914  0.2691
 2106TIP3    H127809   0.005   4.304  13.951 -0.0533  0.0734 -1.1433
 2106TIP3    H227810  -0.011   4.452  13.921  0.0310  0.4191  0.4566
 2107TIP3   OH227811   0.858   3.624   3.803 -0.7220 -0.0296  0.0829
 2107TIP3    H127812   0.855   3.529   3.789 -2.3655 -0.1060  0.8379
 2107TIP3    H227813   0.783   3.642   3.859 -0.0881  1.6528  0.4056
 2108TIP3   OH227814   3.919   6.060  15.327  0.1990  0.1317  0.5425
 2108TIP3    H127815   3.852   5.993  15.320 -0.1944  0.4450  1.2548
 2108TIP3    H227816   3.938   6.085  15.237  1.1748 -1.7518  0.1972
 2109TIP3   OH227817   1.781   4.858   3.026  0.3347 -0.2899  0.2420
 2109TIP3    H127818   1.697   4.898   3.001  0.2812  0.2176  1.2076
 2109TIP3    H227819   1.772   4.766   3.003 -0.1224 -0.0478 -0.5729
 2110TIP3   OH227820   3.543   4.522   2.268  0.6724 -0.3310 -0.0067
 2110TIP3    H127821   3.603   4.475   2.326 -1.7929 -3.5342  0.0676
 2110TIP3    H227822   3.587   4.524   2.184  1.8007 -0.6917  0.5657
 2111TIP3   OH227823   4.038   2.875  12.780  0.2601 -0.3361  0.4924
 2111TIP3    H127824   4.085   2.873  12.696 -0.7101  1.9637 -0.1162
 2111TIP3    H227825   3.968   2.811  12.769 -1.4664  1.8000 -1.4439
 2112TIP3   OH227826   1.107   3.473  16.927 -0.3932 -0.0239 -0.1939
 2112TIP3    H127827   1.106   3.513  17.014  1.1214 -0.8195  0.2175
 2112TIP3    H227828   1.015   3.468  16.901 -0.7195  2.0494  0.5126
 2113TIP3   OH227829   6.244   3.447   1.193  0.5731  0.0309  0.6643
 2113TIP3    H127830   6.289   3.391   1.257  1.2912  0.2572  0.3700
 2113TIP3    H227831   6.282   3.422   1.109 -2.8360 -2.6824 -0.1419
 2114TIP3   OH227832   6.666   1.798  17.099  0.4349 -0.0262 -0.7517
 2114TIP3    H127833   6.720   1.829  17.027  2.2067 -2.6315 -0.6026
 2114TIP3    H227834   6.634   1.712  17.071 -0.7040 -0.0767  0.6319
 2115TIP3   OH227835   0.283   0.900   3.165  0.4665  0.4184  0.4938
 2115TIP3    H127836   0.341   0.962   3.209 -0.6492  2.3939 -0.7664
 2115TIP3    H227837   0.207   0.892   3.222  0.7234  0.0054  0.7800
 2116TIP3   OH227838   0.152   0.187   7.003 -0.4948 -0.0797 -0.2093
 2116TIP3    H127839   0.171   0.190   6.910 -0.8779  0.7648 -0.2678
 2116TIP3    H227840   0.059   0.166   7.008 -0.5986  0.4050 -0.0371
 2117TIP3   OH227841   2.031   2.870   4.793 -0.6686  0.1299  0.0999
 2117TIP3    H127842   1.992   2.951   4.758 -4.0664 -1.5649 -0.3038
 2117TIP3    H227843   1.966   2.838   4.855  1.4873 -1.3495  1.6118
 2118TIP3   OH227844   6.107   2.415   3.137  0.2128 -0.2776  0.5233
 2118TIP3    H127845   6.111   2.320   3.141 -0.8948 -0.3262  0.5805
 2118TIP3    H227846   6.146   2.438   3.053 -0.1110 -0.8246  0.2225
 2119TIP3   OH227847   1.869   1.887   2.339  0.0897 -0.1207  0.5139
 2119TIP3    H127848   1.777   1.858   2.332  0.8549 -2.6765  0.3546
 2119TIP3    H227849   1.913   1.841   2.267  1.6819  0.3478  1.1857
 2120TIP3   OH227850   6.764   6.515   0.561 -0.6494  0.1244  0.2443
 2120TIP3    H127851   6.724   6.566   0.489  0.9294 -0.1783 -0.8757
 2120TIP3    H227852   6.689   6.478   0.608 -1.7258  0.3885 -1.2002
 2121TIP3   OH227853   2.822   4.706   4.322  0.3000  0.7832  0.1198
 2121TIP3    H127854   2.870   4.707   4.405 -1.2821 -0.0425  1.0780
 2121TIP3    H227855   2.732   4.727   4.346 -0.3014 -0.0449 -1.3041
 2122TIP3   OH227856   2.798   4.992  13.569  0.0415  0.2070  0.1861
 2122TIP3    H127857   2.732   4.982  13.637 -0.7591  2.4043 -0.2089
 2122TIP3    H227858   2.877   5.020  13.616  0.3902 -1.3021  0.5291
 2123TIP3   OH227859   3.175   5.758   0.976 -0.3549  0.2512 -0.0494
 2123TIP3    H127860   3.258   5.717   0.955 -0.6262  0.0791 -0.8046
 2123TIP3    H227861   3.198   5.847   1.002  0.2169 -0.3080  1.4178
 2124TIP3   OH227862   1.145   4.822   2.415  0.7562  0.5979  0.4001
 2124TIP3    H127863   1.133   4.883   2.342  2.1292  0.0541 -0.3077
 2124TIP3    H227864   1.059   4.781   2.426  0.2637  1.4318 -0.2321
 2125TIP3   OH227865   1.469   0.253  11.593  0.0618 -0.3376 -0.3590
 2125TIP3    H127866   1.500   0.277  11.681 -0.0364  2.2921 -1.0179
 2125TIP3    H227867   1.375   0.269  11.595 -0.0448 -0.9008 -0.7591
 2126TIP3   OH227868   1.541   0.864   3.189 -0.0250 -0.6909 -0.1212
 2126TIP3    H127869   1.561   0.955   3.210  0.1481 -0.6450 -0.4911
 2126TIP3    H227870   1.627   0.822   3.180 -0.1020 -1.0155  0.5953
 2127TIP3   OH227871   2.445   0.950  16.433  0.2257  0.1158  0.7091
 2127TIP3    H127872   2.417   0.872  16.385  0.0518  0.0767  0.8736
 2127TIP3    H227873   2.429   1.022  16.372  0.0204  0.0644  0.7005
 2128TIP3   OH227874   2.312   4.124  14.810 -0.4950 -0.1349  0.4281
 2128TIP3    H127875   2.401   4.092  14.825 -0.5830 -0.7857 -0.3428
 2128TIP3    H227876   2.304   4.201  14.865  0.8128  0.3841 -0.0828
 2129TIP3   OH227877   0.064   5.615  11.621 -0.7280 -0.2998 -0.5560
 2129TIP3    H127878   0.145   5.567  11.600 -0.8807  0.0712 -2.0293
 2129TIP3    H227879   0.054   5.677  11.549 -0.7213  1.7576  1.1683
 2130TIP3   OH227880   2.760   1.422   2.921 -0.1832  0.1601  0.0515
 2130TIP3    H127881   2.776   1.458   3.009 -1.9578  1.5724 -0.1886
 2130TIP3    H227882   2.731   1.333   2.937  0.4675  0.0804  0.8458
 2131TIP3   OH227883   1.676   0.467   2.152 -0.0276  0.7212 -0.5270
 2131TIP3    H127884   1.629   0.501   2.228  1.2216  1.1497  0.0702
 2131TIP3    H227885   1.610   0.460   2.084 -1.2486 -0.0135  0.7064
 2132TIP3   OH227886   1.644   1.148  17.133  0.3290  0.2085 -0.9001
 2132TIP3    H127887   1.723   1.198  17.147  0.6216 -0.8037  1.3299
 2132TIP3    H227888   1.597   1.153  17.217  0.4691 -3.2888 -0.4986
 2133TIP3   OH227889   3.756   2.422  16.878 -0.4061  0.0750 -0.0342
 2133TIP3    H127890   3.799   2.380  16.804 -1.3724 -0.3042 -0.3985
 2133TIP3    H227891   3.737   2.511  16.848  0.8043  0.4948  0.4014
 2134TIP3   OH227892   5.953   4.106   5.373 -1.5311 -0.2900  0.2272
 2134TIP3    H127893   5.957   4.083   5.280 -0.2775  2.5981 -0.4949
 2134TIP3    H227894   5.889   4.177   5.378  0.4192  1.4646  1.0942
 2135TIP3   OH227895   5.237   6.547  17.026  0.3545  0.4703  0.6617
 2135TIP3    H127896   5.184   6.562  16.948  1.0377 -1.9755 -0.3384
 2135TIP3    H227897   5.175   6.550  17.098 -0.6926  0.3529 -0.2177
 2136TIP3   OH227898   0.051   2.470   4.269 -0.3681  0.1322  0.0510
 2136TIP3    H127899   0.112   2.483   4.342 -0.4344  0.9940 -0.0348
 2136TIP3    H227900  -0.034   2.496   4.305 -0.1597  2.0536 -0.7637
 2137TIP3   OH227901   4.409   5.175  15.494 -0.4855 -0.1695  0.8425
 2137TIP3    H127902   4.378   5.159  15.405  1.1080  3.5034 -0.4882
 2137TIP3    H227903   4.442   5.091  15.524 -1.5014 -1.5664 -1.8759
 2138TIP3   OH227904   3.201   2.976  13.927 -0.2180 -0.4552  0.1941
 2138TIP3    H127905   3.296   2.969  13.937 -0.4141  0.1395  2.8004
 2138TIP3    H227906   3.189   3.013  13.839  1.9397 -0.8202 -0.2848
 2139TIP3   OH227907   2.500   2.576  14.038  0.2643 -0.1120  0.6533
 2139TIP3    H127908   2.579   2.626  14.018 -0.9761  1.9825  0.8618
 2139TIP3    H227909   2.506   2.556  14.131  1.6395 -1.9349  0.1810
 2140TIP3   OH227910   1.906   3.260  11.814  0.2302 -0.2015 -0.6003
 2140TIP3    H127911   1.880   3.262  11.906 -0.6028 -0.3476 -0.8251
 2140TIP3    H227912   1.904   3.352  11.787 -0.3844 -0.2410 -0.7014
 2141TIP3   OH227913   1.503   2.255  13.604  0.0908  0.1153  0.3848
 2141TIP3    H127914   1.593   2.244  13.635  0.2864 -0.7864 -0.4939
 2141TIP3    H227915   1.493   2.189  13.536 -1.3106  0.0704  0.6266
 2142TIP3   OH227916   3.944   3.164  15.792 -0.5895 -0.3288  1.2398
 2142TIP3    H127917   3.993   3.121  15.862  0.3812  2.1384  2.1634
 2142TIP3    H227918   3.854   3.134  15.804 -0.1071 -1.3779  2.3999
 2143TIP3   OH227919   4.193   6.375   5.796 -0.7659 -0.2431 -0.8153
 2143TIP3    H127920   4.114   6.325   5.777  0.1241 -1.2596 -1.8403
 2143TIP3    H227921   4.264   6.311   5.798 -0.2204  0.3489  2.0842
 2144TIP3   OH227922   1.593   2.550   1.224 -0.1007 -0.5553  0.4602
 2144TIP3    H127923   1.556   2.481   1.170  0.4882 -1.1466  0.8144
 2144TIP3    H227924   1.672   2.512   1.262  0.3217  0.3645  0.5225
 2145TIP3   OH227925   6.001   4.123  16.025 -0.6330  1.0799 -0.0840
 2145TIP3    H127926   5.928   4.070  16.056 -1.3679  1.6677 -0.7977
 2145TIP3    H227927   6.032   4.077  15.947 -0.3968  0.9595  0.0804
 2146TIP3   OH227928   0.683   2.768  16.964 -0.4403  0.9685 -0.3887
 2146TIP3    H127929   0.606   2.825  16.962 -1.3199 -0.2188 -1.1180
 2146TIP3    H227930   0.649   2.683  16.989  0.5528  0.3113 -1.2332
 2147TIP3   OH227931   1.600   1.292  15.458  0.1607 -0.0277  0.2850
 2147TIP3    H127932   1.550   1.329  15.531 -0.5247 -0.4990  0.0554
 2147TIP3    H227933   1.605   1.198  15.476 -0.4227 -0.2177 -0.5227
 2148TIP3   OH227934   1.380   3.953  13.013  0.2024 -0.1987 -0.3775
 2148TIP3    H127935   1.451   3.923  12.957  0.9393 -2.0126  1.4761
 2148TIP3    H227936   1.419   3.957  13.101 -0.8163  2.9157  0.0217
 2149TIP3   OH227937   6.157   5.584  14.856 -0.3280 -0.5672  0.2375
 2149TIP3    H127938   6.071   5.598  14.893 -0.3986 -0.2575 -0.0394
 2149TIP3    H227939   6.167   5.489  14.852 -0.3670 -0.5994  0.9287
 2150TIP3   OH227940   3.664   3.843   3.873 -0.1251  0.1518 -0.4835
 2150TIP3    H127941   3.720   3.920   3.881  0.6448 -0.2101 -2.1098
 2150TIP3    H227942   3.690   3.785   3.944 -1.4585  1.8347  1.4236
 2151TIP3   OH227943   5.658   0.594  13.613  0.4337  0.3436 -0.0506
 2151TIP3    H127944   5.747   0.630  13.605  1.1377 -0.8875  1.8861
 2151TIP3    H227945   5.613   0.625  13.534  2.2608  1.8644 -0.5539
 2152TIP3   OH227946   3.806   1.717  11.553  0.4982  0.3222  0.4368
 2152TIP3    H127947   3.827   1.624  11.543 -0.1879  0.2328 -0.1953
 2152TIP3    H227948   3.891   1.759  11.569  0.9808 -0.2268 -0.6606
 2153TIP3   OH227949   1.698   4.901  12.115 -0.4390  0.1713 -0.6049
 2153TIP3    H127950   1.768   4.885  12.051 -0.0792 -0.1892 -0.1314
 2153TIP3    H227951   1.643   4.967  12.075  2.3809  3.4393  0.6614
 2154TIP3   OH227952   1.720   2.664   4.547  0.6849 -0.8804  0.1003
 2154TIP3    H127953   1.676   2.679   4.631 -1.4022 -1.4098 -0.8632
 2154TIP3    H227954   1.688   2.578   4.519  1.6159 -0.8430 -1.0903
 2155TIP3   OH227955   5.057   0.911  14.827 -0.4367 -0.3435  0.1381
 2155TIP3    H127956   5.029   0.964  14.753 -0.5348  0.2188  0.5701
 2155TIP3    H227957   5.152   0.918  14.828 -0.3666 -1.1246 -0.4970
 2156TIP3   OH227958   2.295   5.918  16.525  0.2702 -0.0129  0.2675
 2156TIP3    H127959   2.211   5.961  16.541 -0.5043 -0.3228 -2.7004
 2156TIP3    H227960   2.272   5.837  16.480  2.0738 -0.9313  0.9432
 2157TIP3   OH227961   5.721   3.277  17.171  0.4201 -0.0236 -0.4740
 2157TIP3    H127962   5.732   3.207  17.235 -1.8073 -0.2170 -0.2643
 2157TIP3    H227963   5.795   3.336  17.188 -0.1595 -0.0207  2.3457
 2158TIP3   OH227964   1.139   5.389   3.104  0.4568  0.0034 -0.2919
 2158TIP3    H127965   1.121   5.401   3.011 -2.4487  0.8101  0.3177
 2158TIP3    H227966   1.053   5.392   3.146  1.6986 -0.4088  2.4256
 2159TIP3   OH227967   3.400   3.785   3.795  0.4956 -0.0167 -0.2761
 2159TIP3    H127968   3.489   3.818   3.808  0.0832  0.4504  1.5225
 2159TIP3    H227969   3.369   3.829   3.716  0.5155  2.7696  1.2201
 2160TIP3   OH227970   2.519   4.319   4.504  0.1647  0.0267  0.0761
 2160TIP3    H127971   2.512   4.413   4.484  0.7478  0.2321  0.8102
 2160TIP3    H227972   2.606   4.294   4.472  0.0997 -0.2138  0.0888
 2161TIP3   OH227973   1.534   5.105  14.553 -0.1894 -0.1127  0.1082
 2161TIP3    H127974   1.586   5.141  14.481  0.1494  0.7143  0.7587
 2161TIP3    H227975   1.443   5.121  14.527 -0.0729  0.1030 -0.1748
 2162TIP3   OH227976   6.558   0.695  16.292  0.6192  0.9415  0.4097
 2162TIP3    H127977   6.533   0.652  16.374 -0.7422  2.5908  0.8844
 2162TIP3    H227978   6.590   0.624  16.237  0.0056 -0.4366  1.7841
 2163TIP3   OH227979   5.792   4.137   3.299  0.0892 -0.5331  0.3128
 2163TIP3    H127980   5.772   4.050   3.264  2.2011 -1.1721  0.6600
 2163TIP3    H227981   5.886   4.147   3.286 -0.2909  2.1269 -0.6308
 2164TIP3   OH227982   6.698   1.001  12.941  0.3207 -0.4272  0.3359
 2164TIP3    H127983   6.737   1.041  12.864  1.7748  0.1117  1.3360
 2164TIP3    H227984   6.746   1.039  13.015  0.2189 -2.3351  1.4054
 2165TIP3   OH227985   1.998   2.703  10.952  0.0338  0.1778  0.3254
 2165TIP3    H127986   2.025   2.736  11.038 -0.6445 -0.0765  0.6373
 2165TIP3    H227987   2.010   2.608  10.957  2.0101  0.3435 -0.5836
 2166TIP3   OH227988   6.417   6.410   4.601  0.7798 -0.3237 -0.1346
 2166TIP3    H127989   6.463   6.490   4.578 -2.1138  1.3172 -0.4865
 2166TIP3    H227990   6.361   6.392   4.525 -1.8885 -0.1455  1.7185
 2167TIP3   OH227991   0.314   1.815  14.910 -0.1367 -0.7180 -0.2704
 2167TIP3    H127992   0.262   1.863  14.846 -1.8619 -0.9469  0.9493
 2167TIP3    H227993   0.371   1.759  14.857 -0.1721  0.5063 -1.6295
 2168TIP3   OH227994   0.335   5.388  16.514  0.3716  0.2628 -0.0944
 2168TIP3    H127995   0.350   5.294  16.517  0.5026  0.1301 -3.0412
 2168TIP3    H227996   0.254   5.401  16.563  1.0865 -1.1833  1.5035
 2169TIP3   OH227997   4.615   0.357  11.486  0.2215 -0.6992  0.3735
 2169TIP3    H127998   4.645   0.358  11.577  0.5171 -0.8683  0.2787
 2169TIP3    H227999   4.538   0.415  11.486  0.7170 -0.0380  0.5615
 2170TIP3   OH228000   1.452   5.821   2.956 -0.1080 -0.4584  0.0686
 2170TIP3    H128001   1.371   5.788   2.918 -0.5911 -0.0854  0.7735
 2170TIP3    H228002   1.520   5.796   2.893 -0.8982  0.1230 -1.0397
 2171TIP3   OH228003   2.275   2.220   4.459 -0.0777 -0.4241 -0.3118
 2171TIP3    H128004   2.335   2.172   4.516 -0.4129  1.8079  2.0075
 2171TIP3    H228005   2.321   2.301   4.439 -1.2267  0.1181 -0.7790
 2172TIP3   OH228006   5.519   2.726   1.041  0.1101  0.2584  0.3634
 2172TIP3    H128007   5.495   2.682   1.122 -1.1967 -1.6707 -1.0074
 2172TIP3    H228008   5.586   2.671   1.002  0.3095  0.8480 -0.1463
 2173TIP3   OH228009   6.150   5.307  15.403 -0.6403 -0.2899 -0.2214
 2173TIP3    H128010   6.171   5.367  15.332 -0.1077 -0.8771 -0.5625
 2173TIP3    H228011   6.069   5.343  15.441  0.2632  1.2604  0.2869
 2174TIP3   OH228012   3.299   0.392   0.835 -0.2763  0.0454 -0.0207
 2174TIP3    H128013   3.325   0.444   0.911  3.0859 -0.2421 -0.8721
 2174TIP3    H228014   3.264   0.456   0.774  2.2097  1.1555 -0.3641
 2175TIP3   OH228015   6.580   4.082   2.636  0.5444  0.5633 -0.3731
 2175TIP3    H128016   6.670   4.074   2.604  0.3379  0.8036 -1.0179
 2175TIP3    H228017   6.539   3.999   2.613  0.5884  0.4740 -0.1262
 2176TIP3   OH228018   4.324   4.679   2.007  0.0442 -0.2884 -0.4727
 2176TIP3    H128019   4.357   4.669   1.918  1.9081 -0.7276  0.2375
 2176TIP3    H228020   4.387   4.737   2.049 -0.8264 -0.0842  0.5572
 2177TIP3   OH228021   0.018   0.328  17.259  0.1718  0.0382 -0.3914
 2177TIP3    H128022   0.076   0.285  17.195 -0.9600  0.0914 -1.4729
 2177TIP3    H228023  -0.070   0.302  17.232 -0.4710  2.1737 -0.4393
 2178TIP3   OH228024   6.084   6.017   6.360 -0.1283 -0.2545  0.2018
 2178TIP3    H128025   6.067   5.980   6.273 -1.4213  1.0260 -0.1015
 2178TIP3    H228026   6.058   6.109   6.353  1.6135  0.3658  1.3885
 2179TIP3   OH228027   2.247   3.647  11.824 -0.8657 -0.1152 -0.5763
 2179TIP3    H128028   2.304   3.599  11.764  0.6716  0.1832  0.6180
 2179TIP3    H228029   2.266   3.610  11.910 -1.8500  0.5877 -0.0410
 2180TIP3   OH228030   2.478   1.058  14.143  0.1908 -0.4334  0.0239
 2180TIP3    H128031   2.500   1.057  14.050 -1.1002  2.6859 -0.4005
 2180TIP3    H228032   2.550   1.013  14.186  1.9410  0.0803 -2.2753
 2181TIP3   OH228033   3.011   0.913  16.283  0.8533  0.4022  0.3813
 2181TIP3    H128034   3.101   0.944  16.293  1.5526 -0.1887 -3.3549
 2181TIP3    H228035   2.977   0.963  16.209 -1.2746 -0.7811  0.5328
 2182TIP3   OH228036   1.872   0.683   5.604 -0.3871  0.5051  0.1167
 2182TIP3    H128037   1.810   0.746   5.567 -0.4670  0.7323  0.6282
 2182TIP3    H228038   1.942   0.737   5.639  0.4538  0.2116 -1.0850
 2183TIP3   OH228039   2.635   5.122   1.470  0.2148 -0.1747  0.3251
 2183TIP3    H128040   2.676   5.052   1.419  0.5149 -0.2195  0.6210
 2183TIP3    H228041   2.622   5.193   1.408  2.3015  0.4746  0.5722
 2184TIP3   OH228042   6.371   3.954  13.881 -0.3414  0.2410  0.6291
 2184TIP3    H128043   6.399   3.949  13.973  0.2056  2.2304  0.6111
 2184TIP3    H228044   6.293   4.010  13.883 -0.1201  0.5876 -0.1423
 2185TIP3   OH228045   4.799   4.799  15.372 -0.5654 -0.0753 -0.2878
 2185TIP3    H128046   4.777   4.741  15.299  1.1576 -0.4326 -0.5424
 2185TIP3    H228047   4.794   4.742  15.449 -2.5255  0.3362 -0.0965
 2186TIP3   OH228048   0.774   6.077  12.190 -0.5895 -0.5220  0.4492
 2186TIP3    H128049   0.781   6.133  12.268 -0.4519 -0.0158  0.0756
 2186TIP3    H228050   0.681   6.077  12.169 -0.1741  2.3772 -1.5815
 2187TIP3   OH228051   2.330   3.059  16.443 -0.0725 -0.1497  0.4463
 2187TIP3    H128052   2.310   3.124  16.375 -0.8084  0.1801  0.9686
 2187TIP3    H228053   2.378   2.991  16.397  0.0089  0.3841 -0.2749
 2188TIP3   OH228054   5.379   5.676  15.897  0.1364  0.1299 -0.3314
 2188TIP3    H128055   5.321   5.622  15.950 -0.5475  0.6915 -0.4913
 2188TIP3    H228056   5.334   5.684  15.813  0.3556  0.7205 -0.3960
 2189TIP3   OH228057   3.437   0.086  13.008  0.2096  1.0349 -0.1722
 2189TIP3    H128058   3.448   0.139  12.929 -2.2964  0.2394 -1.1085
 2189TIP3    H228059   3.407   0.148  13.074  2.0787  1.6582  0.1423
 2190TIP3   OH228060   6.329   4.965  11.315  0.0579 -0.0399  0.1184
 2190TIP3    H128061   6.274   5.038  11.344  1.3963  1.2402 -0.4994
 2190TIP3    H228062   6.350   4.986  11.224 -1.4773 -2.4161 -0.8398
 2191TIP3   OH228063   3.372   2.433   0.022 -0.0691  0.0806  0.0824
 2191TIP3    H128064   3.314   2.390  -0.041  1.4210 -2.2024  0.2099
 2191TIP3    H228065   3.460   2.401  -0.001  0.8783  1.6794  1.3431
 2192TIP3   OH228066   5.268   2.224  13.465  0.1540  0.2454  0.0046
 2192TIP3    H128067   5.335   2.251  13.402  0.9038  1.4910  1.3106
 2192TIP3    H228068   5.233   2.306  13.500  0.5582 -0.4217  2.0383
 2193TIP3   OH228069   4.334   0.852   1.377 -0.4375 -0.3062  0.7038
 2193TIP3    H128070   4.295   0.939   1.374 -1.0851 -0.6374 -1.0477
 2193TIP3    H228071   4.390   0.853   1.455 -1.3099  1.2888  1.3210
 2194TIP3   OH228072   3.025   3.941   5.272  0.1135 -0.5040 -0.3115
 2194TIP3    H128073   3.005   3.987   5.354 -0.6563  0.0041 -0.7794
 2194TIP3    H228074   3.033   4.011   5.207 -1.8165 -1.0646 -1.1779
 2195TIP3   OH228075   2.451   5.554  12.471 -0.2047  0.2834 -0.8676
 2195TIP3    H128076   2.357   5.551  12.488 -0.3378 -2.0192 -1.8667
 2195TIP3    H228077   2.477   5.463  12.459  2.4799  0.7180  1.0165
 2196TIP3   OH228078   1.874   3.205   6.270  0.4427  0.6187 -0.2804
 2196TIP3    H128079   1.839   3.126   6.229 -1.2988  1.4708 -0.4960
 2196TIP3    H228080   1.897   3.178   6.359  1.4310 -0.5175 -0.8707
 2197TIP3   OH228081   0.524   0.487  13.346 -0.3516 -0.1631 -0.0856
 2197TIP3    H128082   0.609   0.477  13.303 -1.5052 -1.2002 -2.1956
 2197TIP3    H228083   0.501   0.579  13.330  0.6376  0.3024  1.0502
 2198TIP3   OH228084   0.720   1.353   0.142  0.7669  0.1393  0.0688
 2198TIP3    H128085   0.762   1.270   0.164  1.2192  0.6726  1.2997
 2198TIP3    H228086   0.639   1.328   0.097  0.6580 -0.9879  0.8551
 2199TIP3   OH228087   1.645   3.527   6.129  0.3082  0.2915  0.5018
 2199TIP3    H128088   1.728   3.527   6.081 -0.3297 -0.1999 -0.6100
 2199TIP3    H228089   1.667   3.486   6.213  1.4668  1.3418  0.7263
 2200TIP3   OH228090   6.376   4.341   4.369  0.2326 -0.1270 -0.3209
 2200TIP3    H128091   6.433   4.314   4.441 -0.6077  0.7049  0.6692
 2200TIP3    H228092   6.306   4.275   4.367 -1.1652  1.2579  1.3241
 2201TIP3   OH228093   0.335   1.214  12.124 -0.0046  0.0795  0.3428
 2201TIP3    H128094   0.382   1.281  12.073  1.2717 -1.7539 -0.9904
 2201TIP3    H228095   0.371   1.221  12.212  0.2414  1.0440  0.1704
 2202TIP3   OH228096   3.006   5.329   2.637  0.2049  0.2275  0.0972
 2202TIP3    H128097   2.982   5.350   2.728  1.4886  0.1408  0.4673
 2202TIP3    H228098   2.972   5.240   2.624 -0.3850  0.4149  0.3423
 2203TIP3   OH228099   5.018   3.611  11.536  0.2461 -0.4433 -0.0861
 2203TIP3    H128100   4.928   3.601  11.506  1.4941 -0.4274 -4.0609
 2203TIP3    H228101   5.031   3.706  11.542 -0.9783 -0.4134  3.9670
 2204TIP3   OH228102   2.033   1.526  14.025 -0.1672  0.6404  0.5199
 2204TIP3    H128103   1.978   1.448  14.030  1.0495 -0.1979  1.1564
 2204TIP3    H228104   2.046   1.541  13.931  1.1989 -1.1045  0.3947
 2205TIP3   OH228105   5.203   2.095   3.608  0.7690 -0.2467 -0.3774
 2205TIP3    H128106   5.266   2.026   3.626 -0.7720 -1.5942 -0.0351
 2205TIP3    H228107   5.118   2.051   3.608 -0.1501  1.4674 -1.1789
 2206TIP3   OH228108   2.473   4.465   5.517  0.3312 -0.0231 -0.1737
 2206TIP3    H128109   2.459   4.511   5.434 -1.4199  1.5062  0.9332
 2206TIP3    H228110   2.425   4.382   5.507  1.0378 -0.3289 -1.0804
 2207TIP3   OH228111   3.628   4.814  12.344  0.1169 -0.1523 -0.1662
 2207TIP3    H128112   3.613   4.756  12.270 -1.4886  0.3799 -0.2672
 2207TIP3    H228113   3.611   4.760  12.421 -1.5946  0.2385 -0.2643
 2208TIP3   OH228114   3.518   1.681  13.750  0.2292 -0.4765  0.1001
 2208TIP3    H128115   3.427   1.686  13.780  0.1402 -0.8721 -0.1074
 2208TIP3    H228116   3.518   1.611  13.684  0.4264  0.3625 -0.8015
 2209TIP3   OH228117   5.638   3.445   0.189 -0.0328 -0.2701  0.2363
 2209TIP3    H128118   5.555   3.416   0.151  0.0967 -0.3373  0.0058
 2209TIP3    H228119   5.673   3.507   0.126  0.9163 -1.5328 -0.4938
 2210TIP3   OH228120   1.767   6.172  13.474 -0.3026 -0.1082 -0.1172
 2210TIP3    H128121   1.787   6.166  13.381 -0.9202 -1.6213 -0.1634
 2210TIP3    H228122   1.822   6.106  13.516  1.1793  1.6601  0.8150
 2211TIP3   OH228123   3.260   5.523   0.642 -0.2107 -0.3288 -0.5183
 2211TIP3    H128124   3.274   5.599   0.586  2.0409  0.0664  0.5287
 2211TIP3    H228125   3.347   5.502   0.676 -1.1090 -2.2284  0.6783
 2212TIP3   OH228126   3.113   6.278   1.942  0.4470  0.2856  0.1311
 2212TIP3    H128127   3.185   6.280   2.005 -0.7264  0.4756  1.4857
 2212TIP3    H228128   3.117   6.364   1.898  0.9331  0.3640  0.3296
 2213TIP3   OH228129   0.906   1.051   5.494  0.4735  0.1238  0.0477
 2213TIP3    H128130   0.920   1.144   5.513 -0.5330  0.3554 -0.3375
 2213TIP3    H228131   0.943   1.006   5.570  0.9757  0.8305  0.2363
 2214TIP3   OH228132   4.099   3.780  12.926 -0.1612 -0.6582  0.6829
 2214TIP3    H128133   4.161   3.849  12.906  1.1611 -1.3484  2.2285
 2214TIP3    H228134   4.080   3.738  12.842  1.2349 -0.2524  0.1622
 2215TIP3   OH228135   3.491   2.643  17.016  0.3364 -0.0842  0.1839
 2215TIP3    H128136   3.459   2.725  17.053  0.4067  0.5836 -1.1679
 2215TIP3    H228137   3.579   2.632  17.052 -0.8032 -1.1766  2.7664
 2216TIP3   OH228138   3.255   5.461   2.591  0.3518 -0.0871  0.0011
 2216TIP3    H128139   3.302   5.396   2.538  1.1769 -0.7861  1.5724
 2216TIP3    H228140   3.170   5.419   2.608  0.9987 -0.9072  1.2764
 2217TIP3   OH228141   3.915   6.565   6.144  0.2593 -0.4072  0.2951
 2217TIP3    H128142   4.003   6.601   6.146  0.6488 -1.3447  0.2488
 2217TIP3    H228143   3.877   6.589   6.228  1.3441 -1.9310  1.2365
 2218TIP3   OH228144   6.269   3.676   3.776  0.1211  0.0001  0.0919
 2218TIP3    H128145   6.265   3.668   3.681 -1.3798  1.1852  0.0283
 2218TIP3    H228146   6.253   3.588   3.808  1.4370 -0.5713 -0.7421
 2219TIP3   OH228147   3.851   6.404   5.914 -0.3418  0.3143 -0.0933
 2219TIP3    H128148   3.876   6.463   5.844 -1.0038  0.9963  0.2391
 2219TIP3    H228149   3.855   6.457   5.994  2.8146 -1.0790  0.7617
 2220TIP3   OH228150   3.273   3.648  15.999 -0.3171  0.2756 -0.0186
 2220TIP3    H128151   3.313   3.730  15.972 -0.7602  0.6394  0.4307
 2220TIP3    H228152   3.184   3.652  15.965 -0.4772  0.1735  0.3834
 2221TIP3   OH228153   2.410   1.073  17.100  1.1842  0.1465 -0.0444
 2221TIP3    H128154   2.351   1.148  17.114  0.7617 -0.1314 -0.3273
 2221TIP3    H228155   2.436   1.081  17.008  0.5461 -0.4795 -0.2840
 2222TIP3   OH228156   3.238   5.473   1.163 -0.1004  0.2628 -0.2533
 2222TIP3    H128157   3.207   5.557   1.127 -0.5875  0.8774  1.5800
 2222TIP3    H228158   3.168   5.412   1.143 -0.0067  0.4009 -1.0650
 2223TIP3   OH228159   5.156   6.071  10.886 -0.1152  0.1925 -0.6447
 2223TIP3    H128160   5.138   5.996  10.943 -2.4668  1.1417 -0.1138
 2223TIP3    H228161   5.221   6.038  10.824  1.0935 -1.4150  1.3992
 2224TIP3   OH228162   4.397   5.955  14.676 -0.4666  0.1640  0.7307
 2224TIP3    H128163   4.442   5.952  14.592  1.0037 -3.5520  1.5543
 2224TIP3    H228164   4.304   5.952  14.653 -0.1102  0.0771 -0.7847
 2225TIP3   OH228165   3.916   5.918   0.596  0.4153 -0.1756 -0.3543
 2225TIP3    H128166   3.994   5.880   0.635  0.5313 -0.9108 -1.2852
 2225TIP3    H228167   3.941   5.937   0.505  0.5283  2.6315  0.2173
 2226TIP3   OH228168   3.315   5.580  15.869 -0.4584 -0.5476 -0.5842
 2226TIP3    H128169   3.395   5.614  15.910 -0.9401  1.7634 -1.4615
 2226TIP3    H228170   3.262   5.547  15.941  0.7722 -1.0082  0.1217
 2227TIP3   OH228171   2.937   4.771   4.856 -0.0690 -0.0096  0.2433
 2227TIP3    H128172   2.973   4.854   4.826  0.4967 -0.2619  0.1949
 2227TIP3    H228173   3.002   4.738   4.919 -0.6650 -0.0485  0.8387
 2228TIP3   OH228174   4.689   5.725   3.756  0.1264 -0.0870  0.7432
 2228TIP3    H128175   4.616   5.747   3.814 -0.0697 -0.3349  0.5926
 2228TIP3    H228176   4.672   5.635   3.729  0.7524 -0.3213  1.1090
 2229TIP3   OH228177   2.535   0.755  14.783 -0.0597 -0.1435  0.1377
 2229TIP3    H128178   2.590   0.723  14.855 -1.1621 -0.3188  0.9108
 2229TIP3    H228179   2.446   0.740  14.812 -0.5595  1.5776 -0.4563
 2230TIP3   OH228180   4.675   3.075  13.095  0.3083 -0.5181 -0.4527
 2230TIP3    H128181   4.658   3.126  13.174  0.1084  0.7616 -1.3114
 2230TIP3    H228182   4.605   3.099  13.035  0.3541 -1.6269 -0.9697
 2231TIP3   OH228183   4.336   6.578   6.597  0.4303  0.3128  0.4504
 2231TIP3    H128184   4.348   6.524   6.519 -1.4401  1.6847 -0.8364
 2231TIP3    H228185   4.267   6.534   6.646 -0.5187  1.0591 -0.1930
 2232TIP3   OH228186   3.508   0.668   0.415 -1.1373  0.6785 -0.6157
 2232TIP3    H128187   3.449   0.720   0.469 -3.1371 -3.2685  1.1945
 2232TIP3    H228188   3.553   0.611   0.477 -0.4461 -1.1087 -2.6943
 2233TIP3   OH228189   2.943   5.136   1.264 -0.1945 -0.3658 -0.5698
 2233TIP3    H128190   2.988   5.156   1.182 -0.9326  1.9656 -0.4465
 2233TIP3    H228191   2.878   5.069   1.241  0.8777 -1.0972 -1.4796
 2234TIP3   OH228192   4.731   5.890   4.369  0.6799 -0.0181 -0.3840
 2234TIP3    H128193   4.800   5.953   4.349  1.4260 -1.5735 -2.9836
 2234TIP3    H228194   4.651   5.932   4.339  0.7911  0.8250  0.4739
 2235TIP3   OH228195   0.570   1.158   4.416  0.1866  1.0158 -0.5804
 2235TIP3    H128196   0.541   1.245   4.390 -2.3479 -0.1707 -1.9446
 2235TIP3    H228197   0.540   1.149   4.507 -0.3227  1.2338 -0.7282
 2236TIP3   OH228198   0.922   1.550  15.335 -0.2803  0.0811  0.1463
 2236TIP3    H128199   0.960   1.510  15.413  1.0554 -1.8352 -1.4618
 2236TIP3    H228200   0.982   1.622  15.314  0.0179 -0.1545  0.1864
 2237TIP3   OH228201   6.441   5.010  14.970 -0.0152  0.4900 -0.2401
 2237TIP3    H128202   6.448   5.097  14.931 -0.6670  1.0476  0.8482
 2237TIP3    H228203   6.392   4.959  14.905  0.4333  0.9045 -0.9176
 2238TIP3   OH228204   0.379   1.629  16.778  0.4493  0.0378  0.2024
 2238TIP3    H128205   0.333   1.692  16.723  0.3193  1.0581  1.4378
 2238TIP3    H228206   0.467   1.664  16.786  0.3236  0.1622  1.0559
 2239TIP3   OH228207   5.388   4.229  16.628 -0.0411 -0.0985  0.1743
 2239TIP3    H128208   5.450   4.180  16.574 -0.3847 -0.1140 -0.2050
 2239TIP3    H228209   5.424   4.317  16.631  0.3776 -0.2826  0.5490
 2240TIP3   OH228210   6.440   3.582  15.491  0.2420  0.2175 -0.5740
 2240TIP3    H128211   6.493   3.618  15.562 -0.8228  1.1024 -0.2141
 2240TIP3    H228212   6.399   3.658  15.450 -1.5870 -0.5165 -0.1641
 2241TIP3   OH228213   0.535   0.055   2.577  0.1646 -0.1739  0.2028
 2241TIP3    H128214   0.560   0.069   2.668 -1.4679 -1.2003  0.8184
 2241TIP3    H228215   0.443   0.080   2.572 -0.0348 -1.0770 -0.9347
 2242TIP3   OH228216   6.358   2.234   4.001  0.2083 -0.0000 -0.1262
 2242TIP3    H128217   6.431   2.282   3.963 -0.2437  0.6407 -0.1982
 2242TIP3    H228218   6.281   2.289   3.983 -0.3012 -0.6949 -0.1154
 2243TIP3   OH228219   5.874   1.798  11.093 -0.8239  0.0017  0.1035
 2243TIP3    H128220   5.880   1.762  11.005 -1.4185  2.2053 -0.8570
 2243TIP3    H228221   5.955   1.770  11.136  1.7610  2.8728 -2.6356
 2244TIP3   OH228222   2.432   6.398  10.693  0.9344 -0.2836 -0.0881
 2244TIP3    H128223   2.386   6.438  10.619  1.1438 -0.4912 -0.3334
 2244TIP3    H228224   2.383   6.427  10.770 -0.0772 -1.1187 -0.3963
 2245TIP3   OH228225   5.469   1.669   5.965  0.7472  0.0035  0.2151
 2245TIP3    H128226   5.463   1.724   5.887  0.7008  0.3083  0.4302
 2245TIP3    H228227   5.481   1.580   5.932 -1.9792 -0.2600 -0.1885
 2246TIP3   OH228228   1.287   5.133   6.032 -0.3840  0.6545  0.3688
 2246TIP3    H128229   1.339   5.104   6.107 -1.9890  2.0545  2.0581
 2246TIP3    H228230   1.215   5.069   6.027 -0.1709  0.4491 -0.1162
 2247TIP3   OH228231   0.270   1.573  13.237 -0.0214 -0.3568 -0.2124
 2247TIP3    H128232   0.213   1.586  13.313 -0.9473 -1.5776 -0.6826
 2247TIP3    H228233   0.356   1.601  13.267 -0.7438  0.9834  0.6881
 2248TIP3   OH228234   2.230   4.462   2.928 -0.0322  0.4710 -0.4209
 2248TIP3    H128235   2.184   4.546   2.928 -0.8039  0.0729  1.4373
 2248TIP3    H228236   2.161   4.397   2.915  0.2284 -0.0234  0.6417
 2249TIP3   OH228237   5.178   3.602   2.415 -0.4085  0.2388  0.3343
 2249TIP3    H128238   5.174   3.522   2.467 -0.1669 -0.3627 -0.5574
 2249TIP3    H228239   5.097   3.601   2.365 -0.7438  0.9290  0.8547
 2250TIP3   OH228240   2.107   6.239  16.514 -0.1781 -0.2880 -0.4068
 2250TIP3    H128241   2.179   6.265  16.456  0.0881 -1.6008 -0.6943
 2250TIP3    H228242   2.086   6.150  16.487 -1.4618 -0.1583  0.1439
 2251TIP3   OH228243   3.153   3.390  12.022  0.5496  0.1900  0.4348
 2251TIP3    H128244   3.165   3.485  12.022 -1.8936  0.5547 -1.9578
 2251TIP3    H228245   3.224   3.357  12.076 -0.8906  3.6564  4.7195
 2252TIP3   OH228246   1.783   3.492   1.857 -0.2281  0.0893 -0.0478
 2252TIP3    H128247   1.858   3.552   1.854  1.2901 -1.7420  0.5868
 2252TIP3    H228248   1.716   3.534   1.802  1.4842  1.4361 -1.1409
 2253TIP3   OH228249   1.311   1.986  15.249  0.4462  0.0916  0.5380
 2253TIP3    H128250   1.376   2.056  15.252  0.2671  0.3334 -0.7486
 2253TIP3    H228251   1.227   2.032  15.244  0.3141 -0.1963 -0.0382
 2254TIP3   OH228252   5.740   1.835   5.556  0.0924 -0.4111 -0.0422
 2254TIP3    H128253   5.763   1.886   5.478  0.6313 -1.1005 -0.3366
 2254TIP3    H228254   5.773   1.888   5.629 -1.0639  0.5815 -0.2411
 2255TIP3   OH228255   4.728   5.836  11.691  0.3842 -0.4841 -0.0696
 2255TIP3    H128256   4.641   5.873  11.681  0.7211  0.3198 -0.1062
 2255TIP3    H228257   4.722   5.748  11.654 -0.3789 -0.3938 -0.1644
 2256TIP3   OH228258   6.284   2.529   4.194 -0.1765  0.4507  0.2413
 2256TIP3    H128259   6.321   2.610   4.161  0.6258 -0.4103 -1.0036
 2256TIP3    H228260   6.241   2.489   4.118 -0.0311 -0.5850  0.6921
 2257TIP3   OH228261   0.095   5.511   3.334 -0.0223 -0.1247 -0.2761
 2257TIP3    H128262   0.046   5.437   3.368 -1.3368  0.6260 -0.5076
 2257TIP3    H228263   0.107   5.568   3.410  1.1333 -0.6471 -0.0616
 2258TIP3   OH228264   2.815   4.835  11.517  0.3180  0.7832  0.2069
 2258TIP3    H128265   2.756   4.762  11.537 -0.6088  1.5352  0.2683
 2258TIP3    H228266   2.897   4.812  11.560  0.1884 -0.4587 -0.1866
 2259TIP3   OH228267   0.515   2.241   1.627  0.4270 -0.4892 -0.2577
 2259TIP3    H128268   0.594   2.278   1.587 -0.8787  1.9246 -0.6736
 2259TIP3    H228269   0.505   2.290   1.709 -1.0781 -0.2502 -0.5824
 2260TIP3   OH228270   4.769   6.438  13.114  0.4013 -0.0358  0.0892
 2260TIP3    H128271   4.812   6.439  13.199 -0.9131 -1.1772  0.7856
 2260TIP3    H228272   4.796   6.355  13.074 -4.4295 -2.8825  2.3143
 2261TIP3   OH228273   6.015   2.977  14.804 -0.2825  0.4045  0.1737
 2261TIP3    H128274   6.036   3.023  14.723  1.1844 -0.5973 -0.0339
 2261TIP3    H228275   6.034   2.885  14.785 -0.4882  0.0862  1.4561
 2262TIP3   OH228276   2.651   0.067   4.358  0.1858 -0.2363  0.3802
 2262TIP3    H128277   2.590   0.139   4.374  0.0884  0.5678 -3.1943
 2262TIP3    H228278   2.737   0.104   4.378  0.2461  1.2868 -2.4294
 2263TIP3   OH228279   4.619   3.637  14.737 -0.4789 -0.2623 -0.0612
 2263TIP3    H128280   4.600   3.582  14.813 -0.2737 -1.1881 -0.6858
 2263TIP3    H228281   4.648   3.577  14.669  1.9867  0.8276 -0.0352
 2264TIP3   OH228282   5.989   1.749  13.193  0.1865  0.0383 -0.1293
 2264TIP3    H128283   6.052   1.761  13.264 -0.0777 -0.4501  0.1968
 2264TIP3    H228284   6.043   1.723  13.118  0.5684  1.5447 -0.3816
 2265TIP3   OH228285   1.511   6.136   2.778  0.2269 -0.5563 -0.3855
 2265TIP3    H128286   1.418   6.129   2.797  0.9246 -1.9142  3.0179
 2265TIP3    H228287   1.523   6.086   2.697 -1.9369 -0.4962 -0.7807
 2266TIP3   OH228288   1.168   0.571  11.060 -0.4996  0.2861  0.0777
 2266TIP3    H128289   1.182   0.484  11.025  0.5321  1.3613 -2.2535
 2266TIP3    H228290   1.252   0.616  11.050 -0.6779  1.1989  2.3284
 2267TIP3   OH228291   6.512   6.588  10.954 -0.6513  0.4626  0.9596
 2267TIP3    H128292   6.518   6.678  10.921 -1.0783  0.3329  0.5270
 2267TIP3    H228293   6.590   6.577  11.008 -1.1958  1.4846  1.9720
 2268TIP3   OH228294   0.747   2.515   5.450 -0.5042 -0.7839  0.2884
 2268TIP3    H128295   0.750   2.446   5.516 -1.4300 -0.8783  0.2345
 2268TIP3    H228296   0.837   2.548   5.446 -0.2357 -1.4293  0.8993
 2269TIP3   OH228297   6.201   2.865  13.821 -0.3952  0.1090  1.0638
 2269TIP3    H128298   6.238   2.949  13.850  2.1296 -0.5627 -0.0735
 2269TIP3    H228299   6.194   2.813  13.902  1.9140 -0.0077  1.2263
 2270TIP3   OH228300   0.356   0.454   4.855 -0.7159  0.5530 -0.0118
 2270TIP3    H128301   0.278   0.469   4.909 -0.8148  0.6762 -0.1864
 2270TIP3    H228302   0.394   0.373   4.888 -2.4622 -1.0263 -1.7141
 2271TIP3   OH228303   2.179   3.636   2.038  0.1456 -0.1336 -0.5878
 2271TIP3    H128304   2.185   3.706   2.103 -0.4568 -0.3436 -0.3043
 2271TIP3    H228305   2.257   3.582   2.054 -1.2238 -1.5361  1.5508
 2272TIP3   OH228306   0.268   1.887   2.246  0.6283 -0.1391  0.2916
 2272TIP3    H128307   0.286   1.966   2.195 -0.3322 -1.1875 -1.7089
 2272TIP3    H228308   0.211   1.834   2.190  4.5720 -4.1619 -0.2164
 2273TIP3   OH228309   6.177   5.012   0.988  0.2626 -0.4786  0.1319
 2273TIP3    H128310   6.188   4.917   0.980  0.3921 -0.7333  2.9582
 2273TIP3    H228311   6.257   5.048   0.950  0.0238 -1.4803 -1.3523
 2274TIP3   OH228312   1.953   0.732  13.443  0.0065 -0.0893 -0.1359
 2274TIP3    H128313   1.905   0.660  13.484  0.9324 -0.6071  0.0443
 2274TIP3    H228314   2.038   0.732  13.486  2.0713 -2.4368 -3.9207
 2275TIP3   OH228315   1.577   5.276   5.341  0.3789 -0.1271  0.0660
 2275TIP3    H128316   1.623   5.235   5.415  2.1192  1.6420  0.0183
 2275TIP3    H228317   1.543   5.358   5.378 -0.3408 -0.1279 -0.6108
 2276TIP3   OH228318   1.267   6.402   1.973  0.0128  0.7955 -0.0813
 2276TIP3    H128319   1.339   6.421   1.913 -1.4066 -1.5183 -2.6160
 2276TIP3    H228320   1.291   6.318   2.013 -0.0821  1.2764  1.0088
 2277TIP3   OH228321   6.533   1.684   3.370  0.4544 -0.1635  0.0296
 2277TIP3    H128322   6.472   1.740   3.417 -0.2193 -0.4331 -0.5080
 2277TIP3    H228323   6.533   1.602   3.418 -1.4311 -0.9833 -1.2923
 2278TIP3   OH228324   6.030   0.695   4.655 -0.0867 -0.1898 -0.2425
 2278TIP3    H128325   6.045   0.628   4.589  0.2356 -1.7114  1.3534
 2278TIP3    H228326   6.116   0.734   4.669 -0.0493 -0.2575 -0.2841
 2279TIP3   OH228327   3.232   4.365  17.073 -0.6800 -0.5032  0.2120
 2279TIP3    H128328   3.314   4.403  17.041 -1.2828  1.1424  0.5294
 2279TIP3    H228329   3.228   4.278  17.033  0.5038 -0.0288 -0.9940
 2280TIP3   OH228330   2.350   1.639  14.704 -0.7653  0.0162  0.3654
 2280TIP3    H128331   2.285   1.673  14.642  0.1132 -0.3825 -0.7906
 2280TIP3    H228332   2.371   1.552  14.671  1.8432  0.8955 -0.4345
 2281TIP3   OH228333   1.338   2.646   5.210 -0.0585  0.9901  0.8842
 2281TIP3    H128334   1.342   2.601   5.295  1.0391  0.8650  0.7843
 2281TIP3    H228335   1.375   2.582   5.148  0.1899  1.4964  0.5058
 2282TIP3   OH228336   5.844   3.309   4.613  0.0054 -0.3133 -0.0146
 2282TIP3    H128337   5.783   3.253   4.564 -1.8963  0.8741  0.9210
 2282TIP3    H228338   5.865   3.260   4.692  1.9371 -1.6132 -1.2997
 2283TIP3   OH228339   1.526   5.287   0.663 -0.6433 -0.8531  0.0786
 2283TIP3    H128340   1.534   5.335   0.580 -1.3187 -0.9228 -0.0257
 2283TIP3    H228341   1.525   5.355   0.730  3.6303 -0.9061  0.3366
 2284TIP3   OH228342   1.212   0.303   0.216  0.2246  0.1205  0.1807
 2284TIP3    H128343   1.234   0.318   0.308 -1.6725  2.8555  0.2404
 2284TIP3    H228344   1.128   0.256   0.218  0.6639 -0.7000 -0.1677
 2285TIP3   OH228345   4.079   0.889  16.836  0.4119 -0.4393  0.1232
 2285TIP3    H128346   4.007   0.833  16.865 -0.8864  0.5924 -0.9921
 2285TIP3    H228347   4.047   0.978  16.849  1.3473  0.0365 -0.7123
 2286TIP3   OH228348   1.250   4.564  11.680  0.0675  0.2360  0.4128
 2286TIP3    H128349   1.216   4.546  11.592  0.7522  0.4185  0.1134
 2286TIP3    H228350   1.238   4.481  11.727  2.7537 -0.9157 -0.8162
 2287TIP3   OH228351   0.733   5.585   5.359 -0.0897  0.3479 -0.0300
 2287TIP3    H128352   0.710   5.499   5.324 -1.3198  0.0995  1.3708
 2287TIP3    H228353   0.712   5.645   5.287  2.2278 -0.6127 -1.6001
 2288TIP3   OH228354   0.132   6.607  15.307 -0.1104  0.0572 -0.1590
 2288TIP3    H128355   0.100   6.518  15.324 -1.2112  0.1020 -1.8576
 2288TIP3    H228356   0.192   6.597  15.234  2.4756  0.2426  1.8867
 2289TIP3   OH228357   4.818   6.565   0.164  0.1729 -0.1677  0.3836
 2289TIP3    H128358   4.789   6.580   0.254 -0.8307 -1.5798  0.3076
 2289TIP3    H228359   4.741   6.585   0.111  0.4001 -0.4982 -0.0765
 2290TIP3   OH228360   3.366   0.462  14.843 -0.0977 -0.1019  0.4490
 2290TIP3    H128361   3.433   0.442  14.908 -0.0226  0.3825  0.5222
 2290TIP3    H228362   3.284   0.459  14.892 -0.1799 -1.1038  0.2743
 2291TIP3   OH228363   3.986   3.248   2.287  0.0583 -0.6632 -0.1010
 2291TIP3    H128364   3.965   3.174   2.344 -0.6049  1.0491  1.9586
 2291TIP3    H228365   4.006   3.208   2.203 -1.8388 -3.0893  0.5176
 2292TIP3   OH228366   0.603   5.160   4.870 -0.0393  0.0232  0.1905
 2292TIP3    H128367   0.634   5.129   4.955  0.0484 -1.7838 -0.4846
 2292TIP3    H228368   0.509   5.141   4.870 -0.0900  0.2679 -0.0036
 2293TIP3   OH228369   4.446   3.799   4.775  0.0180 -0.2929 -0.7372
 2293TIP3    H128370   4.490   3.860   4.835 -1.7181  2.5100 -2.1964
 2293TIP3    H228371   4.517   3.744   4.742  1.4119 -0.1194  1.7803
 2294TIP3   OH228372   2.364   5.789   4.021  0.0568 -0.1930  0.1206
 2294TIP3    H128373   2.414   5.708   4.012 -0.5932 -0.5083 -0.6800
 2294TIP3    H228374   2.386   5.821   4.108 -1.8179 -2.6459  1.5530
 2295TIP3   OH228375   5.627   4.918   3.992 -0.3027  0.8773 -0.3184
 2295TIP3    H128376   5.708   4.868   4.002 -1.7778 -1.0185  2.9166
 2295TIP3    H228377   5.625   4.976   4.069 -2.6941 -0.1660  0.4643
 2296TIP3   OH228378   3.940   0.057  12.653 -0.2240 -0.0053 -0.3391
 2296TIP3    H128379   3.946   0.037  12.560 -0.2486 -0.5866 -0.2151
 2296TIP3    H228380   4.006   0.001  12.694  0.2009  0.6812 -0.0700
 2297TIP3   OH228381   6.721   0.235   4.270  0.6156 -0.0132  0.0131
 2297TIP3    H128382   6.801   0.245   4.218  0.4686 -1.1600 -0.4586
 2297TIP3    H228383   6.665   0.308   4.243  1.6446  1.0134  0.6216
 2298TIP3   OH228384   5.655   0.360   5.828  0.5895  0.1251  0.1246
 2298TIP3    H128385   5.570   0.315   5.826 -0.1286  1.3887  1.4683
 2298TIP3    H228386   5.707   0.312   5.892 -0.2254  1.2693  1.6640
 2299TIP3   OH228387   5.924   0.749  11.610 -0.2872 -0.1538 -0.3408
 2299TIP3    H128388   5.933   0.756  11.515 -1.3537  0.3035 -0.4197
 2299TIP3    H228389   5.995   0.803  11.645 -1.0698  1.2827 -0.9037
 2300TIP3   OH228390   5.964   0.817   0.924  0.2970  0.4305  0.0025
 2300TIP3    H128391   5.991   0.748   0.985 -1.0746  0.1210  0.2655
 2300TIP3    H228392   5.925   0.770   0.850 -0.7104  0.9249  0.2187
 2301TIP3   OH228393   2.751   4.257   0.768  0.4063 -0.6657  0.1094
 2301TIP3    H128394   2.779   4.316   0.838  1.6665 -1.1183  0.0113
 2301TIP3    H228395   2.754   4.311   0.689  0.3735 -0.5316  0.1989
 2302TIP3   OH228396   4.410   1.677   0.911  0.1778 -0.2691  0.4486
 2302TIP3    H128397   4.448   1.642   0.991  0.5813 -1.1699 -0.1304
 2302TIP3    H228398   4.336   1.619   0.892  0.1296 -0.1050  0.1272
 2303TIP3   OH228399   1.189   1.439  15.376 -0.5242 -0.2112 -0.4043
 2303TIP3    H128400   1.223   1.368  15.431  0.7034  2.0850  1.9623
 2303TIP3    H228401   1.125   1.398  15.319 -1.3507 -2.8418  2.3266
 2304TIP3   OH228402   0.034   6.171  13.454 -0.0881  0.0484 -0.4106
 2304TIP3    H128403  -0.061   6.178  13.459  0.0062  1.4804 -0.3078
 2304TIP3    H228404   0.053   6.174  13.360 -0.1976 -1.2633 -0.4854
 2305TIP3   OH228405   2.133   0.332   1.383 -0.1560  0.5970 -0.0786
 2305TIP3    H128406   2.135   0.291   1.297  1.0606  0.0053  0.2116
 2305TIP3    H228407   2.116   0.424   1.366  0.8156  0.6143 -1.0144
 2306TIP3   OH228408   1.403   1.835   4.793  0.0273 -0.3797 -0.1302
 2306TIP3    H128409   1.401   1.836   4.888  1.9373 -1.4734 -0.0619
 2306TIP3    H228410   1.358   1.754   4.768 -0.4544 -0.1039 -0.1581
 2307TIP3   OH228411   2.161   4.568  11.340  0.3197  0.4285 -0.0500
 2307TIP3    H128412   2.165   4.652  11.385 -0.4844  1.2066 -1.3869
 2307TIP3    H228413   2.108   4.585  11.262  1.5776 -0.9158 -1.2243
 2308TIP3   OH228414   0.721   4.579  16.056 -0.0629 -0.9677  0.0166
 2308TIP3    H128415   0.634   4.618  16.051  0.3656 -0.1909 -5.5951
 2308TIP3    H228416   0.712   4.494  16.012  1.9586 -0.8624 -0.6572
 2309TIP3   OH228417   6.533   0.127  12.831  0.0278  0.3038  0.6442
 2309TIP3    H128418   6.582   0.207  12.846  0.7508  0.0194 -0.2064
 2309TIP3    H228419   6.596   0.066  12.793 -1.2785  0.3753 -1.7435
 2310TIP3   OH228420   3.672   0.403  12.782 -0.2266 -0.3408 -0.2568
 2310TIP3    H128421   3.682   0.466  12.853 -0.9205 -1.8634  1.2224
 2310TIP3    H228422   3.577   0.395  12.770 -0.1211 -0.2483 -1.2399
 2311TIP3   OH228423   4.879   3.812   0.770  0.1839 -0.5775 -0.1328
 2311TIP3    H128424   4.822   3.744   0.734  1.4913 -2.7019  1.6756
 2311TIP3    H228425   4.965   3.794   0.731  0.1368  1.2561 -1.1372
 2312TIP3   OH228426   5.862   1.596  11.810 -0.5473 -0.1683  0.3123
 2312TIP3    H128427   5.921   1.538  11.761 -1.3266 -0.9943  0.3457
 2312TIP3    H228428   5.790   1.540  11.837 -1.3816  0.8499  0.2298
 2313TIP3   OH228429   1.386   6.076   1.009  0.8857 -0.0243 -0.4881
 2313TIP3    H128430   1.294   6.092   0.992 -0.2220 -2.1110  2.9173
 2313TIP3    H228431   1.405   6.125   1.089  2.0913 -1.3223  0.0647
 2314TIP3   OH228432   2.843   1.127   4.168 -0.3768 -0.4320 -0.3168
 2314TIP3    H128433   2.936   1.111   4.155 -0.0862  0.6341  0.3402
 2314TIP3    H228434   2.801   1.098   4.087  0.6420 -0.0017 -1.0104
 2315TIP3   OH228435   5.072   2.774  11.147 -0.1764 -0.3589 -0.1656
 2315TIP3    H128436   5.039   2.684  11.145  0.0853 -0.4731  0.5955
 2315TIP3    H228437   5.128   2.778  11.224 -0.3878  0.5320 -0.0466
 2316TIP3   OH228438   3.092   4.509   4.826 -0.2022 -0.6619 -0.1138
 2316TIP3    H128439   3.021   4.522   4.888  0.7364 -0.3465  0.9183
 2316TIP3    H228440   3.166   4.482   4.880 -0.0983 -3.0669 -1.4018
 2317TIP3   OH228441   2.726   4.865   2.252 -0.4036 -0.2597 -0.0590
 2317TIP3    H128442   2.664   4.938   2.251 -0.6011 -0.4346 -1.6257
 2317TIP3    H228443   2.686   4.798   2.197 -0.5911 -1.9013  1.9910
 2318TIP3   OH228444   1.251   2.906  15.896 -0.2075  0.2907  0.5057
 2318TIP3    H128445   1.327   2.921  15.841 -0.7774  0.3760 -0.2739
 2318TIP3    H228446   1.229   2.814  15.883 -0.4753  0.3656  0.4223
 2319TIP3   OH228447   0.611   6.315   1.684 -0.1689  0.3458 -0.0538
 2319TIP3    H128448   0.703   6.332   1.666  0.0555  1.2219  1.7958
 2319TIP3    H228449   0.566   6.395   1.655 -0.2166  0.3406  0.0076
 2320TIP3   OH228450   6.464   1.243  10.674 -0.0506  0.4185  0.3532
 2320TIP3    H128451   6.390   1.202  10.630 -0.1306  1.2703 -0.3134
 2320TIP3    H228452   6.428   1.324  10.712  0.4941  0.7551  0.1657
 2321TIP3   OH228453   4.563   3.075   3.952  0.4325  0.7518 -0.1251
 2321TIP3    H128454   4.483   3.121   3.925  0.8910  0.9553 -1.1639
 2321TIP3    H228455   4.592   3.029   3.874 -1.1002 -2.9847  1.3957
 2322TIP3   OH228456   6.054   5.691   1.731  0.2537  0.3062 -0.0857
 2322TIP3    H128457   5.987   5.758   1.713  0.1433  0.2534  0.1281
 2322TIP3    H228458   6.122   5.737   1.779 -0.7387 -0.1723  1.8382
 2323TIP3   OH228459   4.487   6.472  15.839  0.2225 -0.2847 -0.0551
 2323TIP3    H128460   4.552   6.536  15.865 -0.5018  0.8636 -1.0449
 2323TIP3    H228461   4.538   6.396  15.809  1.0747 -0.7002  2.3153
 2324TIP3   OH228462   3.360   4.441  12.240  0.1232 -0.1942  0.3576
 2324TIP3    H128463   3.289   4.407  12.185  0.2324 -0.4375  0.3693
 2324TIP3    H228464   3.323   4.443  12.328 -0.6652  1.8894  0.0180
 2325TIP3   OH228465   4.673   1.606   2.977  0.0348 -0.0642 -0.6097
 2325TIP3    H128466   4.728   1.532   2.952 -0.3497 -0.5577  0.0031
 2325TIP3    H228467   4.632   1.579   3.059 -1.5632  0.0722 -1.3424
 2326TIP3   OH228468   6.149   5.978  16.757  0.2984  0.3399 -0.0336
 2326TIP3    H128469   6.243   5.980  16.772  0.4534 -1.6526 -0.4813
 2326TIP3    H228470   6.140   5.978  16.662 -0.1591  0.6574  0.0074
 2327TIP3   OH228471   1.339   6.257   0.699 -0.8616 -0.4897  0.2507
 2327TIP3    H128472   1.416   6.235   0.750 -0.1166  0.0891 -0.6147
 2327TIP3    H228473   1.270   6.201   0.734  0.1512 -1.6349  0.4385
 2328TIP3   OH228474   4.669   6.389   2.582  0.1419 -0.4139  0.7900
 2328TIP3    H128475   4.641   6.300   2.601 -1.6321  0.0000  0.2252
 2328TIP3    H228476   4.763   6.389   2.598  0.2254 -2.4956  0.3700
 2329TIP3   OH228477   6.347   2.004   3.840 -0.5725  0.3367 -0.0821
 2329TIP3    H128478   6.260   1.968   3.825  0.0962 -0.6136 -1.7374
 2329TIP3    H228479   6.337   2.056   3.921 -2.4753 -0.3387  0.1519
 2330TIP3   OH228480   6.485   1.191  16.247 -0.5329 -0.0578  0.8826
 2330TIP3    H128481   6.486   1.095  16.251  1.0651 -0.0459  1.1701
 2330TIP3    H228482   6.531   1.212  16.166  2.4508  0.5098  2.6360
 2331TIP3   OH228483   5.745   3.234  15.300 -0.6677  0.1678 -0.4477
 2331TIP3    H128484   5.708   3.264  15.217 -1.5419  0.0436 -0.1035
 2331TIP3    H228485   5.822   3.184  15.275  0.8789  2.7594 -1.0417
 2332TIP3   OH228486   1.786   6.039  16.966  0.0700  0.4144  0.2314
 2332TIP3    H128487   1.871   5.996  16.959 -0.7290 -1.1867  0.2593
 2332TIP3    H228488   1.764   6.037  17.059 -1.2814 -1.7325 -0.1041
 2333TIP3   OH228489   6.051   0.891  11.358  0.1259  0.4168  0.1162
 2333TIP3    H128490   6.100   0.889  11.276  0.9276 -0.5956  0.6178
 2333TIP3    H228491   5.988   0.820  11.350  1.0037 -0.4429  0.8761
 2334TIP3   OH228492   6.379   5.987  17.255 -0.1394 -0.4985 -0.5454
 2334TIP3    H128493   6.332   6.035  17.323  0.5753 -0.5087 -0.0296
 2334TIP3    H228494   6.316   5.924  17.221 -0.2177 -1.1635  0.7939
 2335TIP3   OH228495   2.688   2.576  13.057  0.4952 -0.3240  0.3377
 2335TIP3    H128496   2.758   2.519  13.026  2.6201  2.8815 -0.9846
 2335TIP3    H228497   2.721   2.613  13.139 -0.1128  0.3445  0.2883
 2336TIP3   OH228498   1.988   4.467  15.995 -0.1593  0.3949  0.0026
 2336TIP3    H128499   2.055   4.399  15.991 -0.0988  0.5234 -1.3575
 2336TIP3    H228500   2.011   4.519  16.072  0.4506 -0.4436  0.3860
 2337TIP3   OH228501   0.655   5.193   5.410  0.1575 -0.0603 -0.2841
 2337TIP3    H128502   0.709   5.127   5.454 -0.2133 -0.5690 -0.5920
 2337TIP3    H228503   0.656   5.268   5.470 -0.6947 -0.8910  0.7951
 2338TIP3   OH228504   2.127   1.787   4.599  0.2328 -0.2286  0.0682
 2338TIP3    H128505   2.178   1.707   4.612 -0.9151 -0.8343  0.9507
 2338TIP3    H228506   2.135   1.834   4.682 -1.9518 -1.1065  0.8222
 2339TIP3   OH228507   1.343   4.712   2.191 -0.2054  0.0628 -0.0859
 2339TIP3    H128508   1.412   4.671   2.243  2.2247  2.2373 -1.4768
 2339TIP3    H228509   1.285   4.752   2.256  0.4911 -0.7585  1.0686
 2340TIP3   OH228510   2.171   4.835  17.067 -0.0157  0.0838  0.3231
 2340TIP3    H128511   2.080   4.831  17.037  0.3361 -1.6495 -0.6091
 2340TIP3    H228512   2.206   4.748  17.047  2.1567  1.0750 -0.3268
 2341TIP3   OH228513   2.367   3.473   5.983 -0.1762  0.1285  0.2316
 2341TIP3    H128514   2.378   3.426   5.900 -1.5393 -0.6239  0.4537
 2341TIP3    H228515   2.442   3.448   6.036  0.1386 -0.2460 -0.3900
 2342TIP3   OH228516   1.532   2.438   4.520  0.0463 -0.2651  0.2801
 2342TIP3    H128517   1.496   2.358   4.558  1.1074 -0.4612  0.9048
 2342TIP3    H228518   1.564   2.410   4.434 -0.8291 -0.1983 -0.0727
 2343TIP3   OH228519   0.654   3.854  15.313 -0.1433 -0.1675  0.1660
 2343TIP3    H128520   0.719   3.809  15.260  0.7968  0.6945  0.5691
 2343TIP3    H228521   0.653   3.807  15.396  0.7395  0.4441  0.5374
 2344TIP3   OH228522   3.469   6.126   3.279  0.3814 -0.5059  0.2994
 2344TIP3    H128523   3.426   6.165   3.355 -0.4223 -1.1986  0.2055
 2344TIP3    H228524   3.509   6.200   3.233  0.2677 -0.0007  1.0073
 2345TIP3   OH228525   1.147   6.271  13.488  0.3404 -0.1279 -0.0374
 2345TIP3    H128526   1.145   6.290  13.582  0.0686  1.0363 -0.2672
 2345TIP3    H228527   1.055   6.274  13.461  0.5249  0.8846 -0.5870
 2346TIP3   OH228528   3.095   0.308   5.172  0.1730  0.0395  0.3981
 2346TIP3    H128529   3.002   0.294   5.157  0.0983 -0.5683  1.3838
 2346TIP3    H228530   3.133   0.314   5.084 -0.6731 -0.5135 -0.0085
 2347TIP3   OH228531   2.101   0.849   2.097  0.0845 -0.1187 -0.3053
 2347TIP3    H128532   2.148   0.928   2.124 -0.8459  0.1445  0.5782
 2347TIP3    H228533   2.128   0.834   2.007  1.4549  0.3296  0.0142
 2348TIP3   OH228534   3.843   3.923  14.596 -0.3252  0.0228 -0.0908
 2348TIP3    H128535   3.858   3.975  14.516  0.8794  0.9451  0.7089
 2348TIP3    H228536   3.931   3.902  14.627 -0.7178 -4.3499 -1.5232
 2349TIP3   OH228537   5.228   5.348  11.357  0.6055  0.1083  0.0339
 2349TIP3    H128538   5.272   5.266  11.379  2.8618  0.8196 -1.6513
 2349TIP3    H228539   5.297   5.414  11.363 -0.4863  1.4242 -1.5420
 2350TIP3   OH228540   5.349   1.424   0.581  0.1319  0.5378  0.2568
 2350TIP3    H128541   5.299   1.461   0.653 -1.0612  0.0087 -0.2774
 2350TIP3    H228542   5.295   1.440   0.503  0.7522 -0.1122 -0.3204
 2351TIP3   OH228543   6.752   1.000   4.444  0.4942  0.2822  0.1677
 2351TIP3    H128544   6.694   1.052   4.499 -0.9100 -0.7019 -0.3708
 2351TIP3    H228545   6.694   0.952   4.385  1.6892 -2.2716  0.9678
 2352TIP3   OH228546   0.681   1.703   1.305  0.1295 -0.2213  0.1202
 2352TIP3    H128547   0.609   1.750   1.262 -0.0976 -0.2743  0.4433
 2352TIP3    H228548   0.736   1.672   1.232 -0.1811 -0.1946 -0.1287
 2353TIP3   OH228549   5.222   2.874   3.523 -0.3541  0.1112  0.2548
 2353TIP3    H128550   5.239   2.782   3.506 -1.5782  0.1453 -1.3095
 2353TIP3    H228551   5.299   2.905   3.570 -0.6376 -2.0833  2.2682
 2354TIP3   OH228552   2.168   6.031   4.295  0.3748  0.5447  0.3650
 2354TIP3    H128553   2.192   5.964   4.231  2.1085  0.7526  0.7915
 2354TIP3    H228554   2.107   5.987   4.355 -0.1296 -0.0485 -0.5668
 2355TIP3   OH228555   5.826   5.054  17.177  0.0711 -0.5857  0.0110
 2355TIP3    H128556   5.904   5.109  17.184  1.4633 -2.5144  0.0184
 2355TIP3    H228557   5.824   5.027  17.085  0.3358 -1.8495  0.3714
 2356TIP3   OH228558   3.058   3.671   5.054  0.0539 -0.0630 -0.1389
 2356TIP3    H128559   2.965   3.650   5.068  0.1969 -0.1495  0.6869
 2356TIP3    H228560   3.060   3.712   4.967 -0.5377 -1.4799 -0.8337
 2357TIP3   OH228561   4.632   4.735  13.194 -0.3381 -0.7607 -0.2889
 2357TIP3    H128562   4.690   4.659  13.199 -0.3225 -0.8010 -1.0403
 2357TIP3    H228563   4.618   4.749  13.100 -0.5193  0.0292 -0.1512
 2358TIP3   OH228564   4.203   0.144  11.496  0.4606  0.2752  0.5360
 2358TIP3    H128565   4.121   0.166  11.538  1.5021  0.8086  2.3355
 2358TIP3    H228566   4.180   0.131  11.404 -1.6375  0.2987  1.0321
 2359TIP3   OH228567   3.421   0.106   5.598 -0.3732 -0.3098  0.2795
 2359TIP3    H128568   3.384   0.147   5.520  0.4551 -1.1958 -0.5894
 2359TIP3    H228569   3.434   0.015   5.573  0.3505 -0.4918  1.3043
 2360TIP3   OH228570   0.402   6.004   0.513  0.0023 -0.0660 -0.3285
 2360TIP3    H128571   0.451   6.076   0.472  0.8268 -0.7773 -0.6129
 2360TIP3    H228572   0.447   5.925   0.483  1.4715 -0.5791  3.0034
 2361TIP3   OH228573   0.442   5.792  16.050 -0.5908 -0.5405 -0.5171
 2361TIP3    H128574   0.475   5.809  15.962  0.6568 -0.1580  0.0021
 2361TIP3    H228575   0.347   5.790  16.041 -0.4201 -2.4965 -2.2272
 2362TIP3   OH228576   3.890   0.911   4.499 -0.2684  0.6416  0.6299
 2362TIP3    H128577   3.877   0.944   4.588 -0.5118 -0.3681  0.9826
 2362TIP3    H228578   3.869   0.818   4.505  2.0015  0.0684  0.0343
 2363TIP3   OH228579   5.776   5.124  13.686  0.3911 -0.3321  0.1701
 2363TIP3    H128580   5.757   5.030  13.681  1.2941 -0.4742 -0.7400
 2363TIP3    H228581   5.726   5.162  13.614 -0.7567  0.0247  1.1467
 2364TIP3   OH228582   2.275   5.414  15.148 -0.1841  0.1165  0.2639
 2364TIP3    H128583   2.245   5.374  15.066 -1.5933  1.0600  0.3052
 2364TIP3    H228584   2.369   5.396  15.150 -0.2120 -0.3115 -1.3300
 2365TIP3   OH228585   6.756   4.565   1.597 -0.0621  0.5730 -0.0493
 2365TIP3    H128586   6.766   4.525   1.510  0.2286  1.2955 -0.3467
 2365TIP3    H228587   6.745   4.490   1.656  0.5598  0.0467 -0.5975
 2366TIP3   OH228588   3.232   6.582   1.540  0.4288 -0.4731  0.1982
 2366TIP3    H128589   3.287   6.658   1.518 -1.4865  0.1699 -2.6118
 2366TIP3    H228590   3.224   6.533   1.458 -1.1439 -1.8786  1.1554
 2367TIP3   OH228591   0.260   6.480   0.660  0.0170  0.3303  0.0008
 2367TIP3    H128592   0.239   6.427   0.737  0.2499 -1.5667 -1.2040
 2367TIP3    H228593   0.189   6.462   0.599  0.6065  0.6683 -0.7874
 2368TIP3   OH228594   2.412   3.902  10.038 -0.3214 -0.0677  0.5574
 2368TIP3    H128595   2.450   3.847  10.107  0.6711 -2.9466 -2.1699
 2368TIP3    H228596   2.363   3.841   9.983 -0.9367  2.1299 -1.3873
 2369TIP3   OH228597   2.446   1.390  14.570 -0.6408  0.4506  0.2093
 2369TIP3    H128598   2.430   1.351  14.484  0.4087 -1.9157  1.0296
 2369TIP3    H228599   2.531   1.432  14.561  0.6019 -1.8523  0.7131
 2370TIP3   OH228600   3.208   4.854   5.571 -0.4999  0.0769 -0.2784
 2370TIP3    H128601   3.219   4.809   5.655 -0.3620  2.1003  0.8062
 2370TIP3    H228602   3.296   4.860   5.536 -0.2618  1.2388  0.5007
 2371TIP3   OH228603   6.044   0.672  16.213 -0.5068 -0.3535 -0.0149
 2371TIP3    H128604   6.054   0.660  16.119 -1.0355  1.9079 -0.3853
 2371TIP3    H228605   5.952   0.697  16.224 -0.5106 -0.8303  1.1291
 2372TIP3   OH228606   4.053   1.148   4.145  0.0406  0.3048  0.0073
 2372TIP3    H128607   3.994   1.111   4.211  0.7524 -0.9646 -0.0620
 2372TIP3    H228608   4.140   1.115   4.169  0.2632 -0.4162 -1.7526
 2373TIP3   OH228609   3.424   1.973   5.855 -0.3272 -0.2005  0.1725
 2373TIP3    H128610   3.356   2.035   5.880 -0.2904  0.1319 -0.5354
 2373TIP3    H228611   3.426   1.909   5.926 -3.4437 -1.9462 -1.2354
 2374TIP3   OH228612   4.759   5.010   1.077 -0.0297  0.3116  0.2154
 2374TIP3    H128613   4.797   5.091   1.109  0.5131 -0.0049  0.3838
 2374TIP3    H228614   4.783   4.945   1.144 -2.7771  0.5347  1.5102
 2375TIP3   OH228615   1.224   6.145   4.702  0.5482  0.0368  0.5532
 2375TIP3    H128616   1.156   6.190   4.652  1.7527  0.4683 -0.7170
 2375TIP3    H228617   1.237   6.063   4.655  0.5607 -0.2740  1.0919
 2376TIP3   OH228618   4.313   2.310  11.574 -0.0087  0.0536  0.2215
 2376TIP3    H128619   4.324   2.217  11.556 -1.4669  0.2571 -2.0142
 2376TIP3    H228620   4.218   2.324  11.566  0.1056  1.5446  1.4206
 2377TIP3   OH228621   5.746   0.738   3.065 -0.9665 -0.5760  0.2080
 2377TIP3    H128622   5.688   0.780   3.129 -0.5583 -0.5787  0.5857
 2377TIP3    H228623   5.702   0.749   2.981 -0.7072  0.9023  0.2527
 2378TIP3   OH228624   4.348   1.199   5.631 -0.1955 -0.0961 -0.6076
 2378TIP3    H128625   4.305   1.187   5.715 -0.6127  0.1625 -0.7860
 2378TIP3    H228626   4.376   1.291   5.630  1.6169 -0.6106  0.1015
 2379TIP3   OH228627   4.671   0.506  14.833  0.4023  0.1203 -0.2466
 2379TIP3    H128628   4.607   0.532  14.766  0.5976  0.9595 -0.1230
 2379TIP3    H228629   4.756   0.523  14.793  0.5263  0.0076 -0.0289
 2380TIP3   OH228630   0.834   4.992   6.207  0.1634 -0.4192  0.4936
 2380TIP3    H128631   0.872   4.943   6.280  1.9538 -0.1940 -0.2645
 2380TIP3    H228632   0.758   4.940   6.180  1.1644 -2.0067  0.6708
 2381TIP3   OH228633   0.964   6.242   5.924 -0.3707  0.2112 -0.2434
 2381TIP3    H128634   0.931   6.158   5.954  2.2456 -0.3302  1.2983
 2381TIP3    H228635   1.035   6.220   5.863 -0.2127  1.2986 -0.4647
 2382TIP3   OH228636   5.805   2.932   0.901  0.2731  0.1710  0.3828
 2382TIP3    H128637   5.732   2.869   0.896 -1.0060  1.6896 -0.6541
 2382TIP3    H228638   5.826   2.938   0.994  0.9845 -2.4136  0.4227
 2383TIP3   OH228639   1.767   2.784  15.226  0.2080  0.1399  0.1901
 2383TIP3    H128640   1.709   2.747  15.160  2.3262  0.3715 -1.8601
 2383TIP3    H228641   1.841   2.723  15.232  1.2679  1.4071  0.4646
 2384TIP3   OH228642   4.376   6.449   0.213 -0.1576  0.1525 -1.0243
 2384TIP3    H128643   4.388   6.486   0.126  2.7761 -0.4133 -0.9051
 2384TIP3    H228644   4.365   6.526   0.270 -1.2932  0.5447 -1.7538
 2385TIP3   OH228645   0.775   6.699   5.237  0.5206 -0.5073  0.1633
 2385TIP3    H128646   0.689   6.658   5.250 -0.8119  2.8094  2.5312
 2385TIP3    H228647   0.816   6.697   5.324  1.6619  0.4316 -0.3463
 2386TIP3   OH228648   0.924   4.023   4.040 -0.3243 -0.3371 -0.7430
 2386TIP3    H128649   0.897   4.114   4.029  0.1601 -0.4676 -3.5684
 2386TIP3    H228650   1.015   4.022   4.010 -0.3465 -1.7589 -0.8067
 2387TIP3   OH228651   4.151   3.663   1.785  0.3145  0.0300 -0.1806
 2387TIP3    H128652   4.128   3.721   1.712  1.7719 -1.4135 -1.8559
 2387TIP3    H228653   4.078   3.602   1.791 -1.1264  1.8709  1.4508
 2388TIP3   OH228654   0.486   4.085   3.530 -0.1975 -0.1421 -0.5413
 2388TIP3    H128655   0.455   4.164   3.486  1.0076  0.8698  0.4307
 2388TIP3    H228656   0.556   4.052   3.474 -0.1089 -0.0415 -0.4892
 2389TIP3   OH228657   2.201   4.505  13.134 -0.2528  0.2430  0.5423
 2389TIP3    H128658   2.253   4.566  13.081 -0.4954  0.0482  0.0749
 2389TIP3    H228659   2.122   4.554  13.155 -0.7985 -0.1708 -0.4937
 2390TIP3   OH228660   0.198   6.671   5.584 -0.2523  0.1950 -0.2430
 2390TIP3    H128661   0.226   6.579   5.585  0.3734  0.3920  0.9643
 2390TIP3    H228662   0.103   6.666   5.571  0.0327 -0.5497 -2.0910
 2391TIP3   OH228663   2.298   3.605  15.802  0.0579 -0.1206  0.0559
 2391TIP3    H128664   2.351   3.526  15.793 -0.8997 -0.5988 -1.4863
 2391TIP3    H228665   2.208   3.576  15.787 -0.4052  1.0852  0.4419
 2392TIP3   OH228666   5.407   1.842  10.241  0.3760 -0.3495  0.1849
 2392TIP3    H128667   5.435   1.769  10.185  2.0928 -2.0795  3.1762
 2392TIP3    H228668   5.406   1.806  10.329 -3.2883  2.0202  1.2346
 2393TIP3   OH228669   4.842   3.609  13.558 -0.6675 -0.3451  0.3133
 2393TIP3    H128670   4.760   3.637  13.599  1.0916  0.5540  3.4799
 2393TIP3    H228671   4.848   3.515  13.577 -0.9915 -0.4307  0.0004
 2394TIP3   OH228672   5.790   3.744   3.686 -0.0584  0.1082 -0.8833
 2394TIP3    H128673   5.818   3.834   3.670 -0.8541  0.6307  0.5217
 2394TIP3    H228674   5.700   3.741   3.652  0.0344 -0.2086 -1.0991
 2395TIP3   OH228675   5.190   0.040  16.971  0.3605  0.2130 -0.3027
 2395TIP3    H128676   5.177  -0.030  17.036  0.4123 -0.2619 -0.7968
 2395TIP3    H228677   5.196   0.120  17.022 -2.9757  0.2691  0.0793
 2396TIP3   OH228678   5.349   6.201  15.602 -0.5553  0.8701  0.3928
 2396TIP3    H128679   5.367   6.293  15.581 -0.2175  1.1941  1.9892
 2396TIP3    H228680   5.277   6.177  15.545 -0.4485  2.0486 -0.2610
 2397TIP3   OH228681   1.984   5.937   0.800 -0.3801  0.4030 -0.1679
 2397TIP3    H128682   1.901   5.897   0.773  0.5346 -1.3357 -0.4559
 2397TIP3    H228683   2.035   5.941   0.719  0.5199 -0.2610  0.3690
 2398TIP3   OH228684   2.868   4.283  14.504 -0.2826 -0.3282 -0.5096
 2398TIP3    H128685   2.794   4.248  14.554 -0.1913  0.6782  0.3664
 2398TIP3    H228686   2.936   4.216  14.509 -0.4110 -0.3904  0.4143
 2399TIP3   OH228687   5.026   0.572  14.887  0.3437  0.5556  0.2797
 2399TIP3    H128688   5.108   0.592  14.931 -0.2383  1.7032  0.8772
 2399TIP3    H228689   5.048   0.571  14.794  1.3467 -0.7467  0.5301
 2400TIP3   OH228690   5.182   0.994   2.938 -0.4863 -0.1046  0.2388
 2400TIP3    H128691   5.193   1.020   3.030 -1.7010 -1.7197  0.8686
 2400TIP3    H228692   5.134   1.067   2.898  0.4462  0.8120  0.7540
 2401TIP3   OH228693   4.971   3.857  14.839 -0.3207  0.6421  0.4378
 2401TIP3    H128694   5.022   3.922  14.888 -1.0383 -0.3773  2.5898
 2401TIP3    H228695   5.036   3.797  14.803  0.3633  2.5555 -1.6671
 2402TIP3   OH228696   1.579   4.864  15.258  0.3923  0.0434 -0.5501
 2402TIP3    H128697   1.642   4.934  15.244 -0.6050  0.9505 -0.5932
 2402TIP3    H228698   1.585   4.844  15.352  2.1678 -1.2701 -0.9336
 2403TIP3   OH228699   4.833   3.757   5.524 -0.5518  1.2785  0.1983
 2403TIP3    H128700   4.842   3.789   5.614 -1.6422  3.0697 -0.3184
 2403TIP3    H228701   4.761   3.694   5.528  0.9981 -0.4973  1.0347
 2404TIP3   OH228702   3.144   4.304  10.852 -0.2565 -0.5717  0.8992
 2404TIP3    H128703   3.067   4.325  10.904 -0.0081 -0.2151  1.1304
 2404TIP3    H228704   3.162   4.384  10.803  0.8775 -0.1154  2.0135
 2405TIP3   OH228705   5.538   0.007  15.556 -0.6131 -0.1499  0.1965
 2405TIP3    H128706   5.516   0.077  15.618 -0.9540  0.2702 -0.3885
 2405TIP3    H228707   5.631  -0.010  15.570 -0.7544 -0.2601  1.0207
 2406TIP3   OH228708   0.268   1.282  17.074 -0.4105  0.2657  0.5246
 2406TIP3    H128709   0.253   1.368  17.035 -0.6653 -0.0537 -0.0962
 2406TIP3    H228710   0.280   1.299  17.167  0.0587  1.0270  0.3268
 2407TIP3   OH228711   5.867   2.180   4.709  0.0646 -0.3604 -0.5789
 2407TIP3    H128712   5.931   2.109   4.717  0.9372  0.4227 -0.3941
 2407TIP3    H228713   5.885   2.219   4.623  1.1470  1.0864  0.2802
 2408TIP3   OH228714   0.386   4.721  13.166  0.3498 -0.1159 -0.1713
 2408TIP3    H128715   0.354   4.746  13.252  0.1457 -0.1696 -0.2305
 2408TIP3    H228716   0.407   4.805  13.123 -0.2672 -0.0493 -0.3460
 2409TIP3   OH228717   5.830   0.083  14.761 -0.0029 -0.3377  0.2032
 2409TIP3    H128718   5.740   0.061  14.787 -0.2279 -1.5574 -1.4778
 2409TIP3    H228719   5.822   0.169  14.720 -0.2274  0.0193  0.9848
 2410TIP3   OH228720   1.004   3.000   0.795  0.1372 -0.2346 -0.2514
 2410TIP3    H128721   0.923   2.984   0.747 -0.3210  0.9258  0.1129
 2410TIP3    H228722   1.043   2.914   0.806 -0.2317 -0.6132 -1.8745
 2411TIP3   OH228723   0.995   2.405   1.360  0.1116 -0.3907  0.1147
 2411TIP3    H128724   0.944   2.446   1.290  0.7755 -0.4266 -0.3991
 2411TIP3    H228725   0.986   2.311   1.344 -1.2516 -0.4613  1.1782
 2412TIP3   OH228726   5.839   1.192  12.646  0.0422  0.0557  0.8102
 2412TIP3    H128727   5.935   1.192  12.645  0.0292  0.1347 -0.3330
 2412TIP3    H228728   5.816   1.274  12.691  0.5067  0.7583 -0.2023
 2413TIP3   OH228729   6.699   0.296   3.544 -0.0891  0.0226 -0.1953
 2413TIP3    H128730   6.757   0.289   3.619 -0.0016 -1.2213 -0.3771
 2413TIP3    H228731   6.730   0.230   3.482 -1.6083 -0.5901 -0.3449
 2414TIP3   OH228732   5.621   2.976   6.699 -0.6042 -0.3408 -0.3012
 2414TIP3    H128733   5.709   3.011   6.687 -0.0577 -1.2089  1.1266
 2414TIP3    H228734   5.574   3.004   6.620 -0.0135  2.9715  0.4339
 2415TIP3   OH228735   3.915   3.220   3.742  0.0525  0.7006  0.0513
 2415TIP3    H128736   4.001   3.226   3.700  0.0151 -1.2474 -0.3519
 2415TIP3    H228737   3.856   3.191   3.672 -0.5732  0.2795  0.7424
 2416TIP3   OH228738   2.795   1.070   4.866  0.7558  0.0062  0.0266
 2416TIP3    H128739   2.849   1.115   4.802  1.0380  1.0197  0.9540
 2416TIP3    H228740   2.710   1.114   4.861  0.0642 -1.4176 -1.2522
 2417TIP3   OH228741   5.552   0.677  16.232 -0.1673 -0.0662  0.3535
 2417TIP3    H128742   5.511   0.598  16.265 -0.7627 -0.0995 -0.4349
 2417TIP3    H228743   5.556   0.736  16.307  0.7111 -1.0080  1.0636
 2418TIP3   OH228744   3.120   6.613   3.063 -0.8399  0.0154  0.2097
 2418TIP3    H128745   3.078   6.698   3.051 -2.4670 -0.6696  0.8262
 2418TIP3    H228746   3.107   6.593   3.156  0.6966 -0.3203  0.3708
 2419TIP3   OH228747   0.563   6.038  14.169 -0.3093 -0.4406  0.1926
 2419TIP3    H128748   0.522   6.041  14.255 -1.8727 -0.4159 -0.5415
 2419TIP3    H228749   0.498   5.996  14.112  0.8837 -0.8685 -0.8785
 2420TIP3   OH228750   3.749   2.973  15.864 -0.6321 -0.0188  0.0030
 2420TIP3    H128751   3.765   2.888  15.823 -0.2668 -0.2110  0.5314
 2420TIP3    H228752   3.707   2.952  15.947 -4.6083  0.5253 -1.7865
 2421TIP3   OH228753   3.008   3.479  12.364  0.6402 -0.6851  0.1067
 2421TIP3    H128754   3.020   3.556  12.309 -1.6541 -1.2848 -1.3104
 2421TIP3    H228755   3.025   3.510  12.453  0.8606  1.1648 -0.5559
 2422TIP3   OH228756   6.293   6.405  10.953  0.0680  0.0559 -0.1488
 2422TIP3    H128757   6.349   6.481  10.966 -0.7855  0.8587 -1.1078
 2422TIP3    H228758   6.315   6.373  10.865 -0.6560  0.1084 -0.3534
 2423TIP3   OH228759   0.250   4.940  16.489  0.3869 -0.5112 -0.6722
 2423TIP3    H128760   0.182   5.008  16.491  0.4551 -0.4745  0.9865
 2423TIP3    H228761   0.214   4.872  16.432 -1.1086 -0.5606  0.3178
 2424TIP3   OH228762   6.713   5.242  13.223  0.3087 -0.4924 -0.2303
 2424TIP3    H128763   6.699   5.154  13.256  1.4201 -0.2139  1.0568
 2424TIP3    H228764   6.805   5.260  13.242  0.6567  0.1571 -2.3877
 2425TIP3   OH228765   4.054   1.268   4.857 -0.3555 -0.3573 -0.1014
 2425TIP3    H128766   4.031   1.304   4.942  0.2743 -0.1116 -0.0359
 2425TIP3    H228767   4.139   1.307   4.836 -0.1515 -1.0071 -0.4924
 2426TIP3   OH228768   5.552   1.063   4.583 -0.0305 -0.1676  0.5521
 2426TIP3    H128769   5.590   1.015   4.657 -0.0183  0.7491  1.1461
 2426TIP3    H228770   5.533   0.996   4.518  2.3161 -0.7024  0.3642
 2427TIP3   OH228771   4.117   0.279   4.783  0.0688 -0.1514  0.1742
 2427TIP3    H128772   4.211   0.298   4.784  0.3154 -1.3300 -0.1728
 2427TIP3    H228773   4.111   0.187   4.756 -1.2612  0.4706 -1.7852
 2428TIP3   OH228774   0.541   0.896  13.104 -0.2980  0.8318 -0.1919
 2428TIP3    H128775   0.583   0.948  13.035 -0.7208  1.9058  0.3507
 2428TIP3    H228776   0.456   0.937  13.118  0.6821  2.0757  2.5714
 2429TIP3   OH228777   3.210   0.014   3.971  0.2841  0.1667 -0.3088
 2429TIP3    H128778   3.253   0.038   4.054  2.1190  0.2324 -1.2502
 2429TIP3    H228779   3.182   0.098   3.933  0.1450  0.2002 -0.1334
 2430TIP3   OH228780   1.144   6.014   3.927 -0.1698  0.2028  0.1089
 2430TIP3    H128781   1.144   5.920   3.911 -1.6115  0.2024  0.0752
 2430TIP3    H228782   1.103   6.024   4.013 -0.5662  0.8331 -0.1468
 2431TIP3   OH228783   5.757   2.430  16.198  0.0603 -0.0697  0.3158
 2431TIP3    H128784   5.744   2.520  16.168 -0.8642  0.0112  0.9400
 2431TIP3    H228785   5.726   2.376  16.126  0.3264  0.1064  0.0667
 2432TIP3   OH228786   4.082   4.062  13.158 -0.3167  0.1414  0.4347
 2432TIP3    H128787   4.113   3.972  13.145 -2.2541 -0.3873 -0.8617
 2432TIP3    H228788   4.122   4.090  13.240  1.7586 -1.2596 -0.0718
 2433TIP3   OH228789   1.425   3.044   1.438  0.1938 -0.0291 -0.0403
 2433TIP3    H128790   1.453   2.954   1.456  0.4808  0.6864  3.2797
 2433TIP3    H228791   1.332   3.036   1.419  0.4368 -1.1502 -0.8010
 2434TIP3   OH228792   1.185   6.097   5.899 -0.3325 -0.1081 -0.0337
 2434TIP3    H128793   1.172   6.005   5.922  0.7741 -0.2680 -0.0124
 2434TIP3    H228794   1.277   6.114   5.921 -0.4635  0.9327 -0.2726
 2435TIP3   OH228795   6.746   4.214   4.749 -0.5303 -0.2371  0.3610
 2435TIP3    H128796   6.766   4.274   4.820  0.5385 -0.4331  0.2353
 2435TIP3    H228797   6.750   4.268   4.670  1.2518 -0.6259  0.1660
 2436TIP3   OH228798   1.342   2.720  15.309 -0.0995  0.0298  0.3503
 2436TIP3    H128799   1.372   2.630  15.299 -0.7476 -0.2596  1.0118
 2436TIP3    H228800   1.423   2.770  15.322  0.2985 -0.3751 -0.5010
 2437TIP3   OH228801   1.149   3.719   5.793  0.1334 -0.2757  0.0106
 2437TIP3    H128802   1.056   3.738   5.781 -0.0044 -1.1959 -0.4566
 2437TIP3    H228803   1.167   3.742   5.885 -0.4478  0.2993 -0.0147
 2438TIP3   OH228804   3.513   3.865   3.466 -0.0608  0.5001 -0.2821
 2438TIP3    H128805   3.519   3.791   3.406  1.2219 -0.3605  0.8606
 2438TIP3    H228806   3.425   3.860   3.503 -0.0361 -0.3385 -0.3476
 2439TIP3   OH228807   1.816   4.024  14.918 -0.7302 -0.6299 -0.0180
 2439TIP3    H128808   1.752   3.975  14.866 -0.5683  1.4963 -2.3145
 2439TIP3    H228809   1.888   4.041  14.858 -0.7801  2.3647  0.6850
 2440TIP3   OH228810   6.131   3.440  15.292 -0.6253  0.0970  0.5647
 2440TIP3    H128811   6.141   3.409  15.382  1.1000  2.4553  1.2658
 2440TIP3    H228812   6.206   3.403  15.245 -1.6853 -1.3743 -0.0153
 2441TIP3   OH228813   1.613   3.115  14.117 -0.2113 -0.4106 -0.2732
 2441TIP3    H128814   1.567   3.162  14.049  1.4391 -0.7239 -1.6351
 2441TIP3    H228815   1.702   3.150  14.116  0.4962 -2.1290  0.0460
 2442TIP3   OH228816   5.055   0.254  13.016 -0.2546  0.5818 -0.1726
 2442TIP3    H128817   4.980   0.252  12.957 -0.2245  1.1535 -0.2268
 2442TIP3    H228818   5.129   0.228  12.962 -0.7352 -2.0988  0.3600
 2443TIP3   OH228819   3.540   2.012   1.617  0.4360  0.2258 -0.5217
 2443TIP3    H128820   3.618   1.958   1.634 -0.0623 -0.1243  0.6884
 2443TIP3    H228821   3.470   1.970   1.667 -0.6989  0.1375 -2.1599
 2444TIP3   OH228822   3.801   6.364   1.919  0.7165 -0.5031  0.0750
 2444TIP3    H128823   3.892   6.378   1.944  0.9149 -1.7447  0.0745
 2444TIP3    H228824   3.757   6.336   1.999  0.1109  1.0078  0.2961
 2445TIP3   OH228825   5.230   4.841  14.482 -0.2145 -0.0479 -0.1713
 2445TIP3    H128826   5.280   4.916  14.449  0.4956  0.4303  1.9066
 2445TIP3    H228827   5.139   4.861  14.460  0.1401  0.7307 -0.9406
 2446TIP3   OH228828   6.449   5.124  13.064  0.1914  0.2404  0.0831
 2446TIP3    H128829   6.404   5.163  13.140  0.9423  2.2491 -0.4547
 2446TIP3    H228830   6.533   5.169  13.062 -0.1239  0.7518 -2.3898
 2447TIP3   OH228831   3.392   6.436   4.951 -0.2028  0.3421  0.2256
 2447TIP3    H128832   3.447   6.451   4.874 -1.4605 -1.6109 -1.0972
 2447TIP3    H228833   3.303   6.448   4.919 -0.7712 -1.1926  1.1870
 2448TIP3   OH228834   2.338   3.132  15.103  0.0284  0.2819 -0.1310
 2448TIP3    H128835   2.374   3.187  15.173 -0.4140  1.5283 -0.8645
 2448TIP3    H228836   2.380   3.047  15.116  1.6108  1.1103  0.3291
 2449TIP3   OH228837   0.815   1.646   5.047 -0.4006 -0.7512  0.1681
 2449TIP3    H128838   0.753   1.657   4.975  0.3642 -0.3582 -0.4319
 2449TIP3    H228839   0.869   1.571   5.022 -1.0082 -1.4638  0.9657
 2450TIP3   OH228840   1.421   6.087  15.228 -0.3383 -0.1118 -0.2977
 2450TIP3    H128841   1.411   6.013  15.167 -0.2542 -0.3406 -0.0366
 2450TIP3    H228842   1.363   6.065  15.301 -0.5925  0.2608 -0.3923
 2451TIP3   OH228843   2.409   2.587   2.308  0.6047 -0.7064  0.4470
 2451TIP3    H128844   2.439   2.606   2.396 -0.0983 -2.8765  1.1936
 2451TIP3    H228845   2.318   2.559   2.319 -0.5604  2.1433 -1.3485
 2452TIP3   OH228846   2.793   2.766   1.918 -0.0390  0.1558  0.5411
 2452TIP3    H128847   2.743   2.691   1.886 -0.6667  1.1942 -0.9759
 2452TIP3    H228848   2.841   2.733   1.994 -2.0509 -1.1782  1.2492
 2453TIP3   OH228849   1.998   3.668  13.832 -0.2282 -0.1645 -0.2384
 2453TIP3    H128850   1.995   3.580  13.794 -1.2560 -0.1368 -0.2522
 2453TIP3    H228851   1.992   3.654  13.926 -0.1215 -0.1278 -0.2277
 2454TIP3   OH228852   0.759   6.591  12.985  0.9112 -0.1718  0.4587
 2454TIP3    H128853   0.754   6.682  13.017  0.7934 -0.0454  0.0824
 2454TIP3    H228854   0.853   6.572  12.982  0.9692  0.2296 -0.2880
 2455TIP3   OH228855   0.550   4.031  13.060  0.2240 -0.1805  0.0273
 2455TIP3    H128856   0.468   4.000  13.099 -0.5131  0.1897 -1.1957
 2455TIP3    H228857   0.572   3.964  12.995  1.5427 -0.8917  1.1881
 2456TIP3   OH228858   2.777   1.401  13.307  0.3606 -0.0441  0.0105
 2456TIP3    H128859   2.760   1.449  13.226 -1.4137  0.3802  0.6247
 2456TIP3    H228860   2.756   1.311  13.287 -1.7457  0.3266  0.4812
 2457TIP3   OH228861   1.299   2.844   3.354 -0.2785 -0.3271  0.1740
 2457TIP3    H128862   1.294   2.748   3.349 -0.3231 -0.2721 -1.3348
 2457TIP3    H228863   1.278   2.873   3.265 -0.9197  1.1189  0.7872
 2458TIP3   OH228864   4.092   5.421   3.444  0.1934  0.0972 -0.2062
 2458TIP3    H128865   4.030   5.472   3.496 -0.2784 -1.8717  1.2783
 2458TIP3    H228866   4.131   5.483   3.383 -0.6740  2.0922  1.2283
 2459TIP3   OH228867   1.834   2.036  11.908  0.1314  0.2624 -0.5972
 2459TIP3    H128868   1.833   2.114  11.963  0.0732  0.6598 -1.1508
 2459TIP3    H228869   1.906   2.051  11.846 -0.7198  0.4872 -1.5523
 2460TIP3   OH228870   5.127   4.043   3.916  0.4976 -0.9304  0.3589
 2460TIP3    H128871   5.132   3.997   3.832  2.4936 -0.1143 -0.0085
 2460TIP3    H228872   5.043   4.087   3.915  0.5023 -0.9390 -1.2125
 2461TIP3   OH228873   3.343   3.194   3.559  0.0467  0.1856  0.0507
 2461TIP3    H128874   3.351   3.276   3.608 -3.1467  0.7235 -0.2033
 2461TIP3    H228875   3.275   3.145   3.605 -1.1739 -0.4140 -2.3184
 2462TIP3   OH228876   0.087   5.653   4.359 -0.8203 -0.0723  0.4700
 2462TIP3    H128877   0.054   5.702   4.284  0.2473 -0.7664 -0.4734
 2462TIP3    H228878   0.100   5.718   4.427 -0.6586  0.7494 -0.3394
 2463TIP3   OH228879   1.301   5.892  12.401 -0.0548  0.0538  0.0580
 2463TIP3    H128880   1.284   5.803  12.370  1.0943 -0.6644  1.3729
 2463TIP3    H228881   1.389   5.912  12.369 -0.9109  1.3484 -1.5539
 2464TIP3   OH228882   0.684   6.002   0.657 -0.1851  0.2501  0.0265
 2464TIP3    H128883   0.710   6.091   0.633 -2.1356  0.1035 -2.8559
 2464TIP3    H228884   0.766   5.952   0.657  0.3786  1.0511 -3.0206
 2465TIP3   OH228885   4.235   3.856  15.275 -0.0373  0.2343  0.0350
 2465TIP3    H128886   4.158   3.828  15.323  1.3329 -0.8596  1.6781
 2465TIP3    H228887   4.304   3.795  15.303  1.1025  0.3598 -2.3779
 2466TIP3   OH228888   6.334   1.666  13.206  0.2866  0.5406  0.1099
 2466TIP3    H128889   6.330   1.684  13.112  0.3389 -1.2270 -0.2522
 2466TIP3    H228890   6.285   1.584  13.217 -0.2284  1.0406  1.7157
 2467TIP3   OH228891   6.529   1.981  16.168 -0.2720 -0.3575 -0.2511
 2467TIP3    H128892   6.451   1.942  16.127  0.4757 -0.4755 -1.6008
 2467TIP3    H228893   6.599   1.918  16.149  0.3474  0.2315  0.0862
 2468TIP3   OH228894   0.127   6.697   4.085 -0.6078  0.2857 -0.2412
 2468TIP3    H128895   0.044   6.650   4.093  0.3196 -1.0836  1.5301
 2468TIP3    H228896   0.176   6.674   4.163  0.9149  2.1941 -0.5895
 2469TIP3   OH228897   5.313   2.686   2.935 -0.3041  0.1308  0.3352
 2469TIP3    H128898   5.359   2.607   2.905 -1.4147 -0.8075  1.0944
 2469TIP3    H228899   5.234   2.690   2.882 -1.1869 -0.3196  1.6001
 2470TIP3   OH228900   0.549   0.417   3.960 -0.1474 -0.5876 -0.1710
 2470TIP3    H128901   0.614   0.348   3.977 -0.5916 -1.0100 -0.1878
 2470TIP3    H228902   0.586   0.495   4.003  0.7436 -0.6314 -0.8384
 2471TIP3   OH228903   0.522   0.341  15.467 -0.7421  0.7452  0.4800
 2471TIP3    H128904   0.542   0.247  15.460  0.3128  0.8805  1.5023
 2471TIP3    H228905   0.572   0.370  15.544  0.0358  2.4404 -0.6380
 2472TIP3   OH228906   0.348   0.940  11.712 -0.0644  0.5735 -0.3594
 2472TIP3    H128907   0.393   0.867  11.755 -1.4181  0.1063  0.2648
 2472TIP3    H228908   0.362   0.925  11.619 -0.2177 -0.3894 -0.2247
 2473TIP3   OH228909   5.096   0.131  11.606  0.4455  0.2380  0.1268
 2473TIP3    H128910   5.158   0.062  11.582  0.3708  0.2726 -0.1673
 2473TIP3    H228911   5.017   0.111  11.554  0.2071  0.1865  0.5072
 2474TIP3   OH228912   1.370   0.750   6.424  0.1934 -0.5130 -0.4994
 2474TIP3    H128913   1.390   0.797   6.505  0.2373 -0.8324 -0.3252
 2474TIP3    H228914   1.328   0.816   6.368 -0.4348 -0.4587  0.0261
 2475TIP3   OH228915   6.662   2.045  10.766  0.5064 -0.1326 -0.1721
 2475TIP3    H128916   6.690   1.955  10.783 -0.9754 -0.3029  1.6323
 2475TIP3    H228917   6.585   2.035  10.710  1.3927  0.1125 -1.4495
 2476TIP3   OH228918   4.752   5.502   1.508 -0.0898  0.6685 -0.4116
 2476TIP3    H128919   4.730   5.489   1.600  2.5964 -3.6363 -0.2149
 2476TIP3    H228920   4.832   5.554   1.509  0.2476  0.1498 -0.2692
 2477TIP3   OH228921   0.341   6.144   2.219  0.1777  0.2430 -0.0239
 2477TIP3    H128922   0.337   6.050   2.198  0.6803  0.0218  0.8398
 2477TIP3    H228923   0.250   6.167   2.240 -0.3100  0.4419 -2.2338
 2478TIP3   OH228924   0.046   0.830  17.043 -0.0699  0.6419 -0.0683
 2478TIP3    H128925   0.103   0.775  17.097 -1.0994  0.0087  0.3791
 2478TIP3    H228926   0.100   0.853  16.968 -0.1612 -2.4636 -1.1637
 2479TIP3   OH228927   2.155   0.387   4.957 -0.1350 -0.5177 -0.3972
 2479TIP3    H128928   2.236   0.424   4.992 -0.4188  0.5587 -0.8697
 2479TIP3    H228929   2.148   0.423   4.869 -1.7131  0.3285  0.0455
 2480TIP3   OH228930   3.340   5.202  12.921 -0.1959  0.0804  0.0858
 2480TIP3    H128931   3.368   5.198  13.012  0.5138  0.1650 -0.1220
 2480TIP3    H228932   3.422   5.210  12.872 -0.4165 -2.2262 -0.7151
 2481TIP3   OH228933   2.968   1.057  15.521 -0.0396  0.3665 -0.5518
 2481TIP3    H128934   2.935   0.969  15.539  0.0535  0.6011  0.8531
 2481TIP3    H228935   2.905   1.094  15.459  0.8719 -1.2926 -2.4911
 2482TIP3   OH228936   4.627   5.194  13.041  0.2090  0.0382  0.0795
 2482TIP3    H128937   4.693   5.239  13.094 -1.5423  2.6193  0.0998
 2482TIP3    H228938   4.673   5.173  12.959  2.2820 -2.0245  1.6921
 2483TIP3   OH228939   4.129   4.922   6.194  0.3659 -0.2970  0.0743
 2483TIP3    H128940   4.218   4.954   6.186  0.2426 -0.1317 -0.6623
 2483TIP3    H228941   4.076   4.984   6.144 -0.1430 -0.4729  0.3849
 2484TIP3   OH228942   0.037   3.495   1.368  0.4798  0.2574  0.0283
 2484TIP3    H128943   0.031   3.568   1.306 -2.2314  1.7930  2.0095
 2484TIP3    H228944   0.120   3.511   1.414  1.1766  0.6084 -1.3022
 2485TIP3   OH228945   2.923   0.190   6.176 -0.3893  0.0658 -0.6332
 2485TIP3    H128946   2.913   0.095   6.174  1.3236 -0.1588  1.0315
 2485TIP3    H228947   3.006   0.206   6.220 -1.2387  2.3770  0.2368
 2486TIP3   OH228948   4.296   6.228  15.228  0.3214  0.0823 -0.2209
 2486TIP3    H128949   4.374   6.213  15.173  1.1854 -0.8508  1.2175
 2486TIP3    H228950   4.297   6.321  15.247  1.5419 -0.0501  0.4183
 2487TIP3   OH228951   4.805   0.750   0.534  0.4375  0.2527 -0.1146
 2487TIP3    H128952   4.843   0.835   0.557 -0.9638  0.7684  0.4091
 2487TIP3    H228953   4.720   0.772   0.496 -1.2827 -0.9978  2.8079
 2488TIP3   OH228954   4.058   2.291   5.703 -0.0576  0.4287  0.2448
 2488TIP3    H128955   4.064   2.381   5.670  0.2768  0.3792  0.1684
 2488TIP3    H228956   3.989   2.251   5.650 -0.7201  0.8518  0.7736
 2489TIP3   OH228957   4.935   4.825   0.178  0.2504 -0.2585 -0.1981
 2489TIP3    H128958   4.948   4.901   0.120 -1.1584 -0.1558 -0.4114
 2489TIP3    H228959   4.874   4.769   0.129 -0.9566 -0.1681  1.1867
 2490TIP3   OH228960   1.076   4.262   3.203 -0.1482  0.0826  0.2882
 2490TIP3    H128961   1.119   4.271   3.118 -0.6248  0.7559  0.1143
 2490TIP3    H228962   1.067   4.352   3.236  1.4361 -0.2637  1.7639
 2491TIP3   OH228963   4.953   2.380   2.520  0.1203  0.0438  0.1830
 2491TIP3    H128964   5.022   2.385   2.454 -0.5371 -1.6924 -0.6472
 2491TIP3    H228965   5.000   2.382   2.603  1.0859  0.2965 -0.3561
 2492TIP3   OH228966   1.717   6.189  11.246  0.2570  0.5427 -0.1330
 2492TIP3    H128967   1.691   6.209  11.156  0.6927  0.1963 -0.3397
 2492TIP3    H228968   1.777   6.260  11.270  0.6651  0.2767 -0.3555
 2493TIP3   OH228969   3.320   3.602   4.210 -0.0739 -0.2278 -0.0135
 2493TIP3    H128970   3.243   3.584   4.264  0.2434 -0.9619  0.2031
 2493TIP3    H228971   3.285   3.617   4.122 -0.5815  0.8258  0.3590
 2494TIP3   OH228972   3.899   5.618  16.310 -0.2778 -0.2809 -0.3213
 2494TIP3    H128973   3.964   5.607  16.241 -0.6568 -0.7531 -0.6014
 2494TIP3    H228974   3.901   5.712  16.330  0.4096 -0.2777 -0.4038
 2495TIP3   OH228975   2.309   6.363  11.452  0.0026 -0.9797  0.0054
 2495TIP3    H128976   2.217   6.390  11.459 -0.0194 -1.1843  0.5000
 2495TIP3    H228977   2.358   6.444  11.460 -0.1439 -0.8213 -0.6105
 2496TIP3   OH228978   5.749   2.298  13.081  0.0088  0.2480 -0.2356
 2496TIP3    H128979   5.729   2.232  13.015 -0.5490  0.1088  0.0672
 2496TIP3    H228980   5.679   2.290  13.145  0.6050  0.3134  0.4308
 2497TIP3   OH228981   4.524   2.715   3.973  0.3385 -0.5111 -0.3186
 2497TIP3    H128982   4.606   2.673   3.949  1.0331  0.2746  0.6104
 2497TIP3    H228983   4.551   2.793   4.022 -0.9395  0.2923 -0.8661
 2498TIP3   OH228984   1.211   3.616  15.900 -0.1619 -0.4917 -0.0896
 2498TIP3    H128985   1.277   3.683  15.879  0.1649 -1.0050 -0.7103
 2498TIP3    H228986   1.141   3.664  15.944  0.1185  0.2444 -0.4423
 2499TIP3   OH228987   5.694   5.443  14.826  0.1051  0.5381  0.2060
 2499TIP3    H128988   5.630   5.461  14.756  0.7778  0.5963 -0.3983
 2499TIP3    H228989   5.641   5.410  14.898 -0.6137  0.5712 -0.2986
 2500TIP3   OH228990   0.963   5.979   2.819  0.0128 -0.1256 -0.5793
 2500TIP3    H128991   0.871   5.967   2.842  0.0486  2.4669  1.1336
 2500TIP3    H228992   0.961   6.036   2.742  0.1688 -1.8028 -1.8668
 2501TIP3   OH228993   5.175   5.323   5.510 -0.1108 -0.1422  0.0983
 2501TIP3    H128994   5.219   5.408   5.511 -1.0665  0.3716 -0.2587
 2501TIP3    H228995   5.242   5.260   5.536 -0.2711  1.1576  4.1432
 2502TIP3   OH228996   4.511   3.255  15.791  0.4543  0.6112  0.7647
 2502TIP3    H128997   4.523   3.281  15.700  0.3124 -0.2589  0.4979
 2502TIP3    H228998   4.457   3.324  15.829 -1.1175 -0.0008 -0.3093
 2503TIP3   OH228999   3.046   2.915   6.058 -0.2223  0.3885  0.3342
 2503TIP3    H129000   3.030   2.821   6.045  2.5739 -0.0972  0.0371
 2503TIP3    H229001   3.090   2.920   6.143 -0.1837  1.4099  0.2530
 2504TIP3   OH229002   1.282   5.256  16.217  0.3022 -0.6507  0.1586
 2504TIP3    H129003   1.205   5.224  16.170 -0.2345  0.9321 -0.0590
 2504TIP3    H229004   1.344   5.183  16.213 -0.4883 -1.2699 -1.2648
 2505TIP3   OH229005   0.711   5.666  16.055  0.1178 -0.2609  0.3452
 2505TIP3    H129006   0.619   5.678  16.076  0.4362  0.2140  1.5002
 2505TIP3    H229007   0.739   5.750  16.019  0.2411 -0.2128  0.5494
 2506TIP3   OH229008   2.835   4.152  11.730 -0.3236  0.7438 -0.5659
 2506TIP3    H129009   2.804   4.073  11.684  0.1219 -0.0285  0.4473
 2506TIP3    H229010   2.762   4.177  11.787  0.0746  0.2263  0.1729
 2507TIP3   OH229011   4.880   0.611  10.665 -0.1808  0.4544  0.1087
 2507TIP3    H129012   4.962   0.652  10.639 -0.1619  1.2958  1.4593
 2507TIP3    H229013   4.890   0.519  10.641  0.1004  1.0672 -2.1925
 2508TIP3   OH229014   2.801   2.715  11.687  0.4870  0.4928  0.2230
 2508TIP3    H129015   2.874   2.774  11.667  0.5109  0.1818 -0.6140
 2508TIP3    H229016   2.765   2.750  11.769  1.4120  0.8003  0.5112
 2509TIP3   OH229017   1.557   4.866  15.533  0.0271 -0.2928 -0.2069
 2509TIP3    H129018   1.630   4.917  15.568 -1.1022  1.3351 -0.1769
 2509TIP3    H229019   1.487   4.875  15.597 -0.8393 -0.2547 -1.1322
 2510TIP3   OH229020   0.433   1.836  15.358  0.9091 -0.0705 -0.6183
 2510TIP3    H129021   0.518   1.820  15.399  0.6038 -0.5375 -0.1682
 2510TIP3    H229022   0.412   1.754  15.314  1.9368  0.8840 -2.9959
 2511TIP3   OH229023   0.603   0.263  11.352 -0.2744 -0.6250  0.1882
 2511TIP3    H129024   0.641   0.282  11.266  0.1648 -1.6234  0.1594
 2511TIP3    H229025   0.517   0.306  11.350  0.5316  1.0306 -0.0162
 2512TIP3   OH229026   5.885   2.773   0.222  0.1821 -0.1842 -0.0567
 2512TIP3    H129027   5.857   2.779   0.313 -0.9723 -2.8892 -0.1844
 2512TIP3    H229028   5.978   2.753   0.226  0.5926  1.7802  0.4827
 2513TIP3   OH229029   2.401   4.933  12.716 -0.0174  0.5822  0.2352
 2513TIP3    H129030   2.395   4.987  12.638  0.7752 -1.6404 -1.4413
 2513TIP3    H229031   2.311   4.928  12.749 -0.4655  1.0876 -0.8744
 2514TIP3   OH229032   0.184   1.864   4.558  0.0639 -0.0852 -0.0292
 2514TIP3    H129033   0.210   1.854   4.466  2.3000  0.8625  0.4472
 2514TIP3    H229034   0.094   1.832   4.562 -0.1497  0.1015 -2.6048
 2515TIP3   OH229035   0.438   3.403  14.952 -0.3540 -0.0055 -0.0932
 2515TIP3    H129036   0.502   3.468  14.924  0.5781 -1.3167 -1.0426
 2515TIP3    H229037   0.374   3.400  14.881  1.2080 -2.2510 -1.4530
 2516TIP3   OH229038   0.530   1.336   2.994  0.5065 -0.2164  0.3381
 2516TIP3    H129039   0.485   1.353   2.912 -1.1273 -0.2102  1.2156
 2516TIP3    H229040   0.521   1.417   3.044  3.1552  0.4495 -0.2113
 2517TIP3   OH229041   6.631   3.933  16.844  0.0087 -0.7860 -0.3634
 2517TIP3    H129042   6.594   4.019  16.822  1.8797  0.4695  1.1716
 2517TIP3    H229043   6.716   3.932  16.800 -0.2764 -2.1467 -0.9014
 2518TIP3   OH229044   4.519   2.988   1.754  0.4424 -0.3057  0.1772
 2518TIP3    H129045   4.445   2.980   1.694  2.3586  2.3620 -2.6656
 2518TIP3    H229046   4.578   2.917   1.729 -0.6324 -1.8299  1.8074
 2519TIP3   OH229047   6.323   5.851  15.730 -0.7488 -0.1292 -0.0807
 2519TIP3    H129048   6.321   5.766  15.685  1.0670 -0.9955  1.3694
 2519TIP3    H229049   6.240   5.892  15.709 -1.1584 -1.7794 -1.7821
 2520TIP3   OH229050   0.914   0.224  13.352  0.4294  1.0002  0.3898
 2520TIP3    H129051   0.838   0.167  13.342  0.6889  0.6233  0.5476
 2520TIP3    H229052   0.950   0.202  13.438 -0.4392  2.5961  1.1788
 2521TIP3   OH229053   5.793   4.560  13.934 -0.3360  0.7807 -0.0150
 2521TIP3    H129054   5.801   4.467  13.912  0.1718  1.1234 -1.3167
 2521TIP3    H229055   5.727   4.563  14.003  0.4312 -0.6497  0.7892
 2522TIP3   OH229056   5.562   5.631   0.491  0.0919  0.0013  0.0512
 2522TIP3    H129057   5.468   5.619   0.478  0.0349 -0.5553  0.8979
 2522TIP3    H229058   5.570   5.662   0.581  0.7932 -1.0922  0.3815
 2523TIP3   OH229059   2.642   2.901  12.511 -0.5392  0.4933 -0.3849
 2523TIP3    H129060   2.574   2.969  12.518  1.2466  2.1891  1.5194
 2523TIP3    H229061   2.712   2.943  12.461  0.7552  0.2373  1.1666
 2524TIP3   OH229062   2.546   2.647  11.555 -0.3485  0.0097 -0.4484
 2524TIP3    H129063   2.591   2.566  11.534  1.0817  1.3442 -2.7042
 2524TIP3    H229064   2.616   2.709  11.576 -1.3185  1.1859 -0.6289
 2525TIP3   OH229065   1.311   3.970  16.233 -0.2923 -0.0836  0.4643
 2525TIP3    H129066   1.359   4.032  16.288 -0.8293 -0.4898  1.3998
 2525TIP3    H229067   1.254   4.025  16.179 -0.8303  0.2575  1.3510
 2526TIP3   OH229068   0.120   4.814  11.178  0.5661  0.0612  0.3361
 2526TIP3    H129069   0.078   4.738  11.139  2.3448 -0.8793  0.2048
 2526TIP3    H229070   0.047   4.868  11.210 -0.7065 -1.9151  0.8649
 2527TIP3   OH229071   6.473   5.607   0.845 -0.3152  0.3788 -0.0913
 2527TIP3    H129072   6.481   5.693   0.803  0.2815  0.5518  0.3793
 2527TIP3    H229073   6.403   5.618   0.909 -1.2023  0.1243 -1.0001
 2528TIP3   OH229074   1.818   1.414  16.142  0.2790  0.1449 -0.0852
 2528TIP3    H129075   1.901   1.366  16.138 -1.2539 -2.7090  1.0773
 2528TIP3    H229076   1.792   1.410  16.234 -1.4722  0.3950 -0.5448
 2529TIP3   OH229077   2.878   0.325  16.133  0.4135  0.2417  0.2258
 2529TIP3    H129078   2.872   0.411  16.093  2.8681 -0.0475 -0.8220
 2529TIP3    H229079   2.862   0.264  16.061  1.5117 -0.2098  0.3522
 2530TIP3   OH229080   5.741   6.186  14.127  0.4261  0.6347 -0.0452
 2530TIP3    H129081   5.742   6.218  14.037 -1.5502 -0.5745 -0.5333
 2530TIP3    H229082   5.663   6.131  14.132  0.8204  0.2261  2.2556
 2531TIP3   OH229083   4.662   4.353   3.805  0.0838  0.2053  0.0166
 2531TIP3    H129084   4.596   4.290   3.779 -0.7146  1.3189 -0.7078
 2531TIP3    H229085   4.612   4.429   3.834  1.0302  1.4074 -1.4133
 2532TIP3   OH229086   6.242   6.103  14.702  0.0021  0.5348  0.3242
 2532TIP3    H129087   6.206   6.052  14.630 -0.5867  1.6782 -0.2114
 2532TIP3    H229088   6.176   6.171  14.718  1.2759  1.8101  0.2714
 2533TIP3   OH229089   0.315   1.537   3.351 -0.0214 -0.3634  0.1631
 2533TIP3    H129090   0.227   1.576   3.355 -0.1364 -0.3654 -1.9162
 2533TIP3    H229091   0.342   1.531   3.443 -1.7040  0.7427  0.7647
 2534TIP3   OH229092   4.178   1.406  14.670  0.0022  0.2782 -0.1211
 2534TIP3    H129093   4.181   1.459  14.590 -0.4932  1.0179  0.3465
 2534TIP3    H229094   4.257   1.352  14.666 -0.6021 -0.5251 -1.6840
 2535TIP3   OH229095   0.655   0.978   3.557 -0.3009 -0.1128 -0.3295
 2535TIP3    H129096   0.661   0.947   3.467 -0.7195  0.9857 -0.7418
 2535TIP3    H229097   0.565   0.959   3.583  0.4357 -2.4215  0.6049
 2536TIP3   OH229098   2.722   1.420   5.791 -0.3456 -0.2090  0.0158
 2536TIP3    H129099   2.700   1.502   5.745  4.2897  1.7464  0.9705
 2536TIP3    H229100   2.777   1.372   5.729 -0.0473 -0.9163  0.8290
 2537TIP3   OH229101   2.101   5.566   1.222  0.0489 -0.0019  0.0862
 2537TIP3    H129102   2.048   5.564   1.143 -0.7562 -1.6826  0.6541
 2537TIP3    H229103   2.038   5.583   1.293  0.4453 -0.6594  0.6038
 2538TIP3   OH229104   5.010   4.903  14.079 -0.3874  0.3841  0.1263
 2538TIP3    H129105   4.931   4.876  14.127  0.8716  0.1144  2.0889
 2538TIP3    H229106   4.976   4.950  14.002 -2.4524  0.8628  1.2922
 2539TIP3   OH229107   3.337   5.893   1.820 -0.6987  0.1469 -0.9151
 2539TIP3    H129108   3.250   5.883   1.782 -0.6383 -1.0917 -0.7316
 2539TIP3    H229109   3.327   5.869   1.912 -0.1336 -0.1657 -0.9278
 2540TIP3   OH229110   5.682   1.320  16.565 -0.4214 -0.3171 -0.2086
 2540TIP3    H129111   5.635   1.395  16.602  1.5696  0.7781  0.2326
 2540TIP3    H229112   5.766   1.357  16.537  0.1144 -2.1679 -1.1005
 2541TIP3   OH229113   3.870   4.181  11.469 -0.1416 -0.3047  0.7612
 2541TIP3    H129114   3.902   4.236  11.397  0.6642 -2.4301 -0.5921
 2541TIP3    H229115   3.775   4.175  11.454  0.0879 -1.1834 -0.5162
 2542TIP3   OH229116   6.501   2.734  11.704  0.0672 -0.2018 -0.2060
 2542TIP3    H129117   6.419   2.783  11.697 -1.7927 -2.8268  1.7757
 2542TIP3    H229118   6.474   2.643  11.692  2.7854 -1.0676  0.0992
 2543TIP3   OH229119   5.273   4.980  16.643 -0.1636 -0.4524 -0.3544
 2543TIP3    H129120   5.319   4.897  16.660  2.7602  1.2081  0.1557
 2543TIP3    H229121   5.226   4.998  16.725  0.3895 -0.8720  0.0595
 2544TIP3   OH229122   5.510   4.159   5.723 -0.3635  0.3037 -0.8158
 2544TIP3    H129123   5.530   4.075   5.763 -2.4545 -0.6969 -1.8021
 2544TIP3    H229124   5.502   4.219   5.797  1.8014 -0.1831 -0.1453
 2545TIP3   OH229125   4.571   2.723   5.582  0.1654 -0.0949  0.2750
 2545TIP3    H129126   4.535   2.742   5.495  0.4623 -0.8756 -0.0266
 2545TIP3    H229127   4.627   2.798   5.601  0.9166 -0.3960 -0.6740
 2546TIP3   OH229128   0.576   0.759   0.170 -0.1595  0.0067  0.7343
 2546TIP3    H129129   0.572   0.704   0.248 -2.2882  0.3695  0.9084
 2546TIP3    H229130   0.583   0.848   0.205 -1.0131  0.1613  0.5179
 2547TIP3   OH229131   5.041   2.387  16.608  0.0736  0.8298  0.3160
 2547TIP3    H129132   5.029   2.300  16.568  0.6185  1.0587 -0.3640
 2547TIP3    H229133   5.124   2.381  16.654  0.4316  1.1772 -0.2674
 2548TIP3   OH229134   2.389   6.362  14.727  0.3064 -0.0050  0.4143
 2548TIP3    H129135   2.477   6.334  14.752  0.0457 -1.0766  0.1431
 2548TIP3    H229136   2.377   6.329  14.638 -0.5777 -0.3612  0.6575
 2549TIP3   OH229137   6.575   3.953  16.369  0.1611  0.4302 -0.3551
 2549TIP3    H129138   6.537   3.968  16.282 -0.9995  1.8827  0.3792
 2549TIP3    H229139   6.645   4.018  16.377 -0.6955  1.2773  0.3563
 2550TIP3   OH229140   5.761   3.672  14.378  0.4811 -0.2359  0.3026
 2550TIP3    H129141   5.811   3.716  14.447  1.8258  0.6757 -1.2350
 2550TIP3    H229142   5.825   3.651  14.311 -0.9021 -0.7057 -0.9051
 2551TIP3   OH229143   6.198   0.554  11.111 -0.1037 -0.3201 -0.5363
 2551TIP3    H129144   6.229   0.470  11.080  0.8634 -0.0847 -0.2442
 2551TIP3    H229145   6.196   0.545  11.206 -1.1915 -0.4150 -0.5678
 2552TIP3   OH229146   1.201   2.661  11.958 -0.1923  0.5743 -0.2840
 2552TIP3    H129147   1.295   2.666  11.937 -0.4593 -1.8752 -2.2943
 2552TIP3    H229148   1.176   2.752  11.975  2.4308  1.3372 -0.1823
 2553TIP3   OH229149   4.345   0.589   5.244 -0.3620  0.4895 -0.4208
 2553TIP3    H129150   4.285   0.622   5.311 -0.3901  2.1802 -1.2429
 2553TIP3    H229151   4.300   0.515   5.205 -1.2860  0.8389 -0.0297
 2554TIP3   OH229152   5.429   3.697  16.804 -0.8512 -0.6797 -0.0435
 2554TIP3    H129153   5.363   3.752  16.848 -0.6294 -0.4643  0.0191
 2554TIP3    H229154   5.509   3.750  16.807 -1.7140  1.0504 -4.1881
 2555TIP3   OH229155   1.910   2.097   0.344 -0.2692  0.4459 -0.0478
 2555TIP3    H129156   1.922   2.165   0.277  0.4741 -0.7374 -1.1288
 2555TIP3    H229157   1.994   2.052   0.347 -1.0155 -0.9380  0.1051
 2556TIP3   OH229158   5.332   1.058   3.289  0.6600 -0.2450 -0.4732
 2556TIP3    H129159   5.389   0.982   3.298 -2.2304 -2.2422  1.6821
 2556TIP3    H229160   5.323   1.093   3.377 -2.1581 -0.5273 -0.5980
 2557TIP3   OH229161   5.467   1.994   5.541 -0.3501 -0.3311  0.9117
 2557TIP3    H129162   5.396   1.986   5.605 -0.5207 -1.4057  0.5986
 2557TIP3    H229163   5.471   1.908   5.499  0.9933 -0.2023  0.7605
 2558TIP3   OH229164   2.931   2.455   1.696  0.0826  0.1835 -0.0595
 2558TIP3    H129165   3.020   2.461   1.733  0.3682  3.0369 -1.1063
 2558TIP3    H229166   2.874   2.488   1.765 -0.5482 -4.1887  1.6649
 2559TIP3   OH229167   2.579   1.201  15.553  0.3426 -0.5395 -0.3835
 2559TIP3    H129168   2.497   1.242  15.580 -0.4387 -2.6113  0.5141
 2559TIP3    H229169   2.602   1.244  15.470 -2.3110 -0.7920 -1.2912
 2560TIP3   OH229170   2.857   0.430  12.052  0.0975  0.6269 -0.5502
 2560TIP3    H129171   2.818   0.386  11.977  1.2632 -0.0532 -0.7734
 2560TIP3    H229172   2.935   0.472  12.017  0.4870  0.5576  0.2179
 2561TIP3   OH229173   4.265   6.790   6.014 -0.7291 -0.2219  0.9227
 2561TIP3    H129174   4.250   6.716   6.072  0.5371  0.0171  1.5687
 2561TIP3    H229175   4.239   6.866   6.066 -0.3197 -0.0710  0.9075
 2562TIP3   OH229176   4.287   2.483  11.240 -0.2039  0.0826  0.3445
 2562TIP3    H129177   4.294   2.397  11.280  2.1006 -0.0570 -0.2763
 2562TIP3    H229178   4.303   2.544  11.313 -0.2262 -0.0451  0.4582
 2563TIP3   OH229179   0.288   5.432  11.543 -0.2437  0.3473  0.4810
 2563TIP3    H129180   0.333   5.362  11.591  2.6713 -0.1852 -2.7869
 2563TIP3    H229181   0.355   5.499  11.532 -2.0096  2.1511  0.5454
 2564TIP3   OH229182   6.202   6.401   2.268  0.2466 -0.2667  0.3419
 2564TIP3    H129183   6.272   6.384   2.205 -0.5003  1.7503 -1.1048
 2564TIP3    H229184   6.233   6.477   2.317 -1.5731  1.7020 -1.4349
 2565TIP3   OH229185   0.547   0.210  14.757  0.5344  0.4740 -0.2860
 2565TIP3    H129186   0.595   0.164  14.826  0.6420  0.5939 -0.2789
 2565TIP3    H229187   0.507   0.285  14.801  1.6695  1.2772 -0.5919
 2566TIP3   OH229188   3.779   4.620  11.984  0.1489 -0.8050 -0.2268
 2566TIP3    H129189   3.854   4.627  12.043 -1.4316  1.8646  1.5945
 2566TIP3    H229190   3.705   4.598  12.041 -0.8928 -1.0425 -1.6298
 2567TIP3   OH229191   4.324   5.936   3.428  0.4769 -0.0374  0.4051
 2567TIP3    H129192   4.419   5.922   3.419  0.3657  0.3932 -1.6753
 2567TIP3    H229193   4.312   6.030   3.419 -0.2049 -0.1586 -0.0116
 2568TIP3   OH229194   2.028   5.820  14.354 -0.4026 -0.4369 -0.1036
 2568TIP3    H129195   2.060   5.730  14.343 -1.4409 -0.7462 -0.7285
 2568TIP3    H229196   1.954   5.811  14.415  0.1131  0.1375  0.6143
 2569TIP3   OH229197   4.438   5.347   4.100 -0.2532 -0.1396 -0.1067
 2569TIP3    H129198   4.469   5.320   4.014  0.5475 -0.2969  0.2328
 2569TIP3    H229199   4.356   5.394   4.082  0.4354  0.7312 -1.0499
 2570TIP3   OH229200   2.491   2.902  16.096 -0.1596 -0.1989 -0.2855
 2570TIP3    H129201   2.567   2.866  16.052 -0.7860 -1.0023 -0.7119
 2570TIP3    H229202   2.503   2.878  16.188 -0.4675 -1.3183 -0.5317
 2571TIP3   OH229203   4.021   6.277  12.705  0.0418  0.1200  0.5237
 2571TIP3    H129204   4.042   6.251  12.794 -1.8926  0.5681  1.1338
 2571TIP3    H229205   3.941   6.229  12.683 -0.5162  1.3682 -0.2899
 2572TIP3   OH229206   2.629   0.301  15.555 -0.1260 -0.7293 -0.2125
 2572TIP3    H129207   2.689   0.348  15.496  0.2208  2.4072  2.5193
 2572TIP3    H229208   2.546   0.349  15.547 -0.2572 -0.6885  1.3392
 2573TIP3   OH229209   3.472   0.203   0.839 -0.0650  0.5892  0.4015
 2573TIP3    H129210   3.432   0.288   0.820 -0.3151  0.3540 -0.1318
 2573TIP3    H229211   3.397   0.144   0.851  0.1218  0.1627 -0.5316
 2574TIP3   OH229212   0.640   6.146  16.802 -0.3741  0.0834  0.0881
 2574TIP3    H129213   0.676   6.162  16.889 -0.7227 -0.4798  0.3453
 2574TIP3    H229214   0.591   6.225  16.781  1.3361  1.0361 -0.4405
 2575TIP3   OH229215   4.928   2.757  11.483 -0.1001 -0.5336 -0.0382
 2575TIP3    H129216   4.861   2.713  11.430 -0.2735  1.5043 -1.5564
 2575TIP3    H229217   4.913   2.725  11.572 -1.5483 -1.9251 -0.7512
 2576TIP3   OH229218   0.716   6.716   4.622  0.3051  0.4288  0.7559
 2576TIP3    H129219   0.810   6.724   4.639  0.4769  0.3600 -0.1728
 2576TIP3    H229220   0.710   6.703   4.528 -0.6315  0.2942  0.8382
 2577TIP3   OH229221   6.697   2.875   1.161  0.1973 -0.3638  0.3765
 2577TIP3    H129222   6.723   2.842   1.075 -0.4360  0.7120 -0.2317
 2577TIP3    H229223   6.723   2.967   1.161 -1.0011 -0.0172  0.8444
 2578TIP3   OH229224   2.825   3.926   5.598 -0.7016 -0.4318 -0.1202
 2578TIP3    H129225   2.740   3.917   5.556  0.7291  1.7649 -3.7924
 2578TIP3    H229226   2.882   3.867   5.549  0.8500  1.5887 -0.8298
 2579TIP3   OH229227   3.471   2.278   0.268 -0.1830  0.1293  0.0252
 2579TIP3    H129228   3.533   2.206   0.284 -2.8373 -2.5921 -1.5308
 2579TIP3    H229229   3.491   2.306   0.179 -0.6348 -0.1846 -0.1740
 2580TIP3   OH229230   5.143   0.942   0.782  0.2569  0.2684  0.0710
 2580TIP3    H129231   5.206   0.995   0.732  1.6048 -2.0604 -0.7714
 2580TIP3    H229232   5.148   0.977   0.871 -0.0057  2.5365 -0.7543
 2581TIP3   OH229233   6.331   1.064  14.225 -0.3283 -0.1400 -0.1551
 2581TIP3    H129234   6.423   1.090  14.227 -0.6116  0.9225 -0.4770
 2581TIP3    H229235   6.289   1.128  14.166 -1.7564  1.0293  2.0644
 2582TIP3   OH229236   3.603   5.694   5.652  0.3357  0.3461  0.2195
 2582TIP3    H129237   3.515   5.716   5.620 -0.3970  0.2422  2.0816
 2582TIP3    H229238   3.603   5.598   5.655  0.4611  0.3507  0.3470
 2583TIP3   OH229239   4.293   2.019   2.605 -0.1473  0.2491 -0.2508
 2583TIP3    H129240   4.315   1.956   2.674 -0.6287  1.1330  0.7283
 2583TIP3    H229241   4.217   2.066   2.640 -0.2472  0.8596 -1.2931
 2584TIP3   OH229242   3.351   6.041   0.911  0.7361 -0.3216  0.1525
 2584TIP3    H129243   3.284   6.064   0.976 -0.2462 -1.1743 -0.5343
 2584TIP3    H229244   3.322   6.084   0.831  2.5687  1.7092  0.5205
 2585TIP3   OH229245   6.729   6.634   2.283 -0.0282 -0.2509  0.5976
 2585TIP3    H129246   6.695   6.559   2.331 -0.1892 -0.4974  0.0929
 2585TIP3    H229247   6.693   6.626   2.195  0.0814  0.3295  0.4945
 2586TIP3   OH229248   0.269   6.149  11.575 -0.2881  0.1601  0.1742
 2586TIP3    H129249   0.288   6.211  11.505  0.0614 -0.3621 -0.1948
 2586TIP3    H229250   0.306   6.189  11.653 -2.3400  1.6559  0.4336
 2587TIP3   OH229251   1.147   5.449  14.007  0.4274 -0.2771 -0.2518
 2587TIP3    H129252   1.224   5.458  13.950  0.0132  0.9698 -0.6403
 2587TIP3    H229253   1.073   5.463  13.948  0.0402  2.6493  0.8893
 2588TIP3   OH229254   0.727   0.435   2.768  0.2512  0.1680  0.3958
 2588TIP3    H129255   0.814   0.405   2.792  0.3053  1.2690  1.6301
 2588TIP3    H229256   0.667   0.382   2.821  0.2156  0.1995  0.3874
 2589TIP3   OH229257   0.166   3.914   5.992 -0.2041 -0.2544  0.0145
 2589TIP3    H129258   0.124   3.844   6.042 -2.0933 -0.4686 -1.8244
 2589TIP3    H229259   0.174   3.879   5.904 -0.5210  1.5997 -0.7602
 2590TIP3   OH229260   3.698   5.421  12.231  0.3248 -0.3422  0.6958
 2590TIP3    H129261   3.643   5.343  12.235  0.0882 -0.2289 -0.2599
 2590TIP3    H229262   3.653   5.485  12.285 -1.0469  0.1001 -0.9585
 2591TIP3   OH229263   2.152   5.822   5.121 -0.1541 -0.0574  0.2810
 2591TIP3    H129264   2.211   5.896   5.109 -0.9316  0.9447  2.4655
 2591TIP3    H229265   2.072   5.860   5.156 -2.6909 -1.2068 -3.9040
 2592TIP3   OH229266   4.848   5.759  14.008 -0.2249  0.1498  0.2378
 2592TIP3    H129267   4.931   5.801  13.985  0.2730 -1.7024 -1.3808
 2592TIP3    H229268   4.846   5.761  14.104  1.1385  1.2378  0.2484
 2593TIP3   OH229269   0.665   2.761   5.024  0.5851 -0.9979 -0.5832
 2593TIP3    H129270   0.678   2.711   4.943  1.1952  0.1077 -1.1742
 2593TIP3    H229271   0.654   2.851   4.995 -0.1666 -0.7329  0.5108
 2594TIP3   OH229272   5.509   1.277  14.034  0.1311 -0.3470 -0.4054
 2594TIP3    H129273   5.449   1.348  14.057  1.0015  0.9164 -1.9501
 2594TIP3    H229274   5.570   1.271  14.108  0.6218  1.1493 -0.6861
 2595TIP3   OH229275   3.082   3.367  10.432  0.7993 -1.0703 -0.3316
 2595TIP3    H129276   3.032   3.286  10.447 -0.6085 -0.0835  0.5005
 2595TIP3    H229277   3.047   3.401  10.350 -0.0304 -0.3152  0.3127
 2596TIP3   OH229278   4.598   1.617   5.388  0.0051  0.2519 -0.4523
 2596TIP3    H129279   4.678   1.573   5.416 -0.3118  0.0373  0.1232
 2596TIP3    H229280   4.629   1.698   5.346  0.5252  0.1563 -0.2605
 2597TIP3   OH229281   5.425   3.558  13.719 -0.5207 -0.0102 -0.0865
 2597TIP3    H129282   5.330   3.553  13.727 -0.4477 -1.0233  0.1882
 2597TIP3    H229283   5.443   3.532  13.629 -0.4675 -0.4245  0.0398
 2598TIP3   OH229284   1.616   5.308  13.903  0.0655 -0.9680 -0.1428
 2598TIP3    H129285   1.559   5.381  13.879  1.1479 -0.0279  0.1745
 2598TIP3    H229286   1.703   5.333  13.874  0.8673 -1.1322  2.0045
 2599TIP3   OH229287   3.228   3.152   2.842 -0.6448  0.3498  0.0155
 2599TIP3    H129288   3.140   3.168   2.809  0.0119 -1.7779 -2.9293
 2599TIP3    H229289   3.283   3.147   2.764  2.0082  1.0101  1.7727
 2600TIP3   OH229290   2.086   6.234   2.012 -0.6817  0.0396 -0.7647
 2600TIP3    H129291   2.012   6.174   2.001 -1.4082 -0.0836  3.6955
 2600TIP3    H229292   2.047   6.321   2.002 -1.3687 -0.0470  0.9111
 2601TIP3   OH229293   2.436   4.723  11.784 -0.1781 -0.9291  0.0744
 2601TIP3    H129294   2.378   4.667  11.731  0.9434  0.0964 -2.3267
 2601TIP3    H229295   2.428   4.688  11.873 -3.0089 -1.9903 -0.5442
 2602TIP3   OH229296   3.049   0.928  14.168  0.0678  0.2314  0.4874
 2602TIP3    H129297   3.002   0.847  14.189 -0.2193  0.5278  0.9906
 2602TIP3    H229298   3.113   0.902  14.102 -0.1090 -0.3824  0.5569
 2603TIP3   OH229299   0.184   1.816   6.536  0.7241 -0.0650 -0.7784
 2603TIP3    H129300   0.265   1.788   6.578 -0.5940 -1.0877  1.1338
 2603TIP3    H229301   0.179   1.763   6.456  2.4857  0.8227 -1.5011
 2604TIP3   OH229302   4.771   2.780   6.404  0.2687  0.1641  0.3456
 2604TIP3    H129303   4.848   2.724   6.411 -0.0387 -0.0753  1.9979
 2604TIP3    H229304   4.794   2.859   6.453 -0.5508  0.0656  0.9014
 2605TIP3   OH229305   5.702   1.514   2.666 -0.3638 -0.7832  0.1600
 2605TIP3    H129306   5.633   1.494   2.729  1.3060  0.7707  2.5707
 2605TIP3    H229307   5.776   1.460   2.692 -0.0222 -1.0382 -1.2598
 2606TIP3   OH229308   0.438   5.390   1.317  0.0092  0.4751 -0.1418
 2606TIP3    H129309   0.450   5.350   1.231  0.4761 -0.7965  0.5062
 2606TIP3    H229310   0.347   5.372   1.339  0.1057  0.1336 -0.0274
 2607TIP3   OH229311   2.297   3.559  11.544 -0.0947  0.6051 -0.1964
 2607TIP3    H129312   2.296   3.498  11.470 -0.2451 -0.7169  0.8647
 2607TIP3    H229313   2.390   3.578  11.559  0.0326 -0.2087  0.1149
 2608TIP3   OH229314   6.331   0.473  13.909 -0.3869  0.0671 -0.2038
 2608TIP3    H129315   6.262   0.434  13.855 -0.7778  1.2666 -0.5766
 2608TIP3    H229316   6.285   0.530  13.969  0.1498 -0.3953  0.6575
 2609TIP3   OH229317   0.991   1.211  11.283 -0.0715  0.1196  0.4151
 2609TIP3    H129318   1.070   1.157  11.280 -1.2837 -1.7542  1.1743
 2609TIP3    H229319   0.941   1.184  11.206 -0.4668  0.4794  0.5464
 2610TIP3   OH229320   1.957   5.392   3.507  0.1790  0.0960  0.7667
 2610TIP3    H129321   1.947   5.467   3.448  0.0736 -1.5927 -1.4215
 2610TIP3    H229322   1.956   5.430   3.595  0.0955  2.6465 -0.3042
 2611TIP3   OH229323   3.344   0.898   5.595 -0.1245  0.3232  0.3702
 2611TIP3    H129324   3.311   0.893   5.685  1.1131 -0.8031  0.7771
 2611TIP3    H229325   3.370   0.809   5.574 -1.0125  0.4528 -1.3615
 2612TIP3   OH229326   3.875   0.437   1.798  0.3330  0.1196  0.6473
 2612TIP3    H129327   3.830   0.364   1.755  0.9235  0.7118 -1.0261
 2612TIP3    H229328   3.804   0.495   1.826 -0.0788 -0.4279  0.7566
 2613TIP3   OH229329   2.271   6.231   1.470 -0.4178 -0.1482  0.3300
 2613TIP3    H129330   2.236   6.317   1.493  0.2207  0.7490 -1.9187
 2613TIP3    H229331   2.238   6.215   1.381  0.8983 -1.4319  0.0606
 2614TIP3   OH229332   1.602   5.690  11.254  0.1746  0.1817  0.0687
 2614TIP3    H129333   1.612   5.597  11.234  0.7541  0.2763 -0.0746
 2614TIP3    H229334   1.587   5.732  11.169 -0.1404  0.2154  0.1384
 2615TIP3   OH229335   1.543   1.133  16.236  0.5225 -0.3101 -0.1335
 2615TIP3    H129336   1.579   1.047  16.256 -0.4872 -0.4703  1.0518
 2615TIP3    H229337   1.511   1.166  16.320  0.9233  1.2303 -0.5783
 2616TIP3   OH229338   0.306   0.845   5.955 -0.7471  0.5055  0.0897
 2616TIP3    H129339   0.269   0.930   5.932 -1.8190  0.9028  2.9692
 2616TIP3    H229340   0.285   0.835   6.048 -1.1077 -3.1600 -0.3315
 2617TIP3   OH229341   5.918   5.965  12.677 -0.7449  0.6936  0.9278
 2617TIP3    H129342   5.983   5.981  12.746 -0.2108  1.6399  0.2137
 2617TIP3    H229343   5.863   5.895  12.712  0.5541  0.0062  1.6089
 2618TIP3   OH229344   1.886   0.990  14.239  0.0342 -0.1956 -0.5144
 2618TIP3    H129345   1.969   0.954  14.208  0.2869 -0.1177  0.0635
 2618TIP3    H229346   1.819   0.932  14.203  0.3239 -0.1180 -1.1833
 2619TIP3   OH229347   1.740   2.197   5.737  0.0859  0.4508  0.0007
 2619TIP3    H129348   1.717   2.155   5.654 -0.6404 -0.2868  0.5703
 2619TIP3    H229349   1.828   2.166   5.755  0.4139  0.9516 -0.7091
 2620TIP3   OH229350   3.147   4.517  13.966 -0.0201  0.3825 -0.1780
 2620TIP3    H129351   3.140   4.491  14.058  3.4227  1.3143  0.4321
 2620TIP3    H229352   3.120   4.609  13.965  0.3429  0.4900 -0.0333
 2621TIP3   OH229353   4.034   5.075   6.492 -0.1633  0.1934  0.0142
 2621TIP3    H129354   4.028   5.005   6.426 -0.8926  0.2055  0.0652
 2621TIP3    H229355   3.962   5.057   6.552 -1.5322  2.0700 -1.0217
 2622TIP3   OH229356   0.172   3.603   2.737 -0.1823 -0.0858 -0.5167
 2622TIP3    H129357   0.129   3.578   2.656  0.2757  0.1408 -0.8333
 2622TIP3    H229358   0.229   3.676   2.713  2.1644 -1.9040 -0.5988
 2623TIP3   OH229359   6.135   2.892  12.743  0.4621  0.2696 -1.0159
 2623TIP3    H129360   6.141   2.958  12.811  1.1637  1.9835 -2.6902
 2623TIP3    H229361   6.041   2.885  12.725  0.2793 -0.1865  0.1087
 2624TIP3   OH229362   0.597   2.651  16.594 -0.2823 -0.5251 -0.2193
 2624TIP3    H129363   0.651   2.584  16.555  0.0948 -1.0026  1.0926
 2624TIP3    H229364   0.507   2.619  16.584 -0.1649 -0.8019 -0.3797
 2625TIP3   OH229365   6.647   4.819   5.098 -0.1632  0.1617 -0.0661
 2625TIP3    H129366   6.652   4.746   5.160 -1.0870  0.8041  0.7660
 2625TIP3    H229367   6.648   4.897   5.153  0.8386  0.7875 -0.9576
 2626TIP3   OH229368   3.950   5.670  15.145 -0.0067  0.1358 -0.0177
 2626TIP3    H129369   3.999   5.681  15.226  2.7523 -0.9319 -1.4526
 2626TIP3    H229370   4.002   5.716  15.079 -0.6592 -1.4484 -1.6902
 2627TIP3   OH229371   2.013   4.940  11.396  0.6222  0.2964  0.1614
 2627TIP3    H129372   1.977   4.936  11.307  0.1041  2.9090  0.2121
 2627TIP3    H229373   1.938   4.922  11.452  0.8398 -0.8453  0.0955
 2628TIP3   OH229374   2.584   3.071  12.266 -0.3371 -0.0981 -0.2227
 2628TIP3    H129375   2.648   3.124  12.313 -0.3494  0.4085 -0.7720
 2628TIP3    H229376   2.574   3.115  12.181 -0.3126 -1.0070 -0.6970
 2629TIP3   OH229377   1.708   6.157  11.708 -0.1489  0.0488  0.1953
 2629TIP3    H129378   1.682   6.138  11.798 -3.4974 -1.0764 -0.9543
 2629TIP3    H229379   1.754   6.078  11.680  2.3927  1.0488  1.4095
 2630TIP3   OH229380   1.231   0.641  13.793 -0.1013 -0.0967  0.0461
 2630TIP3    H129381   1.164   0.642  13.861  0.3865  0.3652  0.5218
 2630TIP3    H229382   1.218   0.723  13.745  0.1520  0.0134  0.1647
 2631TIP3   OH229383   2.283   6.703  13.428 -0.1334  0.2225  0.4562
 2631TIP3    H129384   2.368   6.660  13.438  0.6601  1.9163  1.2150
 2631TIP3    H229385   2.302   6.796  13.443 -1.3915  1.1412 -3.2613
 2632TIP3   OH229386   2.615   0.064  11.028  0.3014 -0.2293  0.1947
 2632TIP3    H129387   2.693   0.041  10.977  0.5824  2.0756 -0.5052
 2632TIP3    H229388   2.547   0.077  10.963  0.3545  1.5559  0.4520
 2633TIP3   OH229389   0.283   5.989  14.045  0.3897  0.5518  0.6882
 2633TIP3    H129390   0.243   5.994  13.958  0.3383  0.5882  0.7151
 2633TIP3    H229391   0.213   6.013  14.105 -1.2302 -4.8201  1.1966
 2634TIP3   OH229392   3.724   1.430   5.517  0.0087  0.1010  0.1533
 2634TIP3    H129393   3.710   1.401   5.607  1.1757 -0.4548  0.1691
 2634TIP3    H229394   3.775   1.511   5.526 -0.2801  0.2994  0.0065
 2635TIP3   OH229395   3.567   3.322   6.006 -1.0307  0.3081  0.0061
 2635TIP3    H129396   3.538   3.244   6.053 -1.8011  0.3142 -0.4507
 2635TIP3    H229397   3.559   3.392   6.071  2.1708 -0.3814  1.2412
 2636TIP3   OH229398   5.229   4.761  14.149  0.0560 -0.2000 -0.0073
 2636TIP3    H129399   5.153   4.818  14.134  0.7801  1.1606  1.4557
 2636TIP3    H229400   5.298   4.820  14.178  1.8556 -1.3615 -1.8001
 2637TIP3   OH229401   0.530   5.386  14.999 -0.1364  0.1850 -0.3984
 2637TIP3    H129402   0.571   5.428  15.074 -2.0837 -0.8846  1.3501
 2637TIP3    H229403   0.549   5.293  15.010 -1.6480 -0.1470 -0.3979
 2638TIP3   OH229404   0.130   6.175   1.564 -0.9991  0.3293  0.4847
 2638TIP3    H129405   0.195   6.109   1.586 -0.9665 -0.0481 -0.6778
 2638TIP3    H229406   0.057   6.124   1.528 -1.4037  0.8508  0.5699
 2639TIP3   OH229407   5.560   2.224   5.673  0.4588 -0.4816  0.0378
 2639TIP3    H129408   5.541   2.144   5.625 -1.1391  1.3370 -2.4854
 2639TIP3    H229409   5.515   2.214   5.757 -0.5510 -1.8231 -0.6549
 2640TIP3   OH229410   1.877   2.708  10.679 -0.1786 -0.4763  0.2138
 2640TIP3    H129411   1.926   2.712  10.762  0.3329 -2.0490  0.0055
 2640TIP3    H229412   1.914   2.780  10.627  1.8166 -1.5092  0.1359
 2641TIP3   OH229413   5.836   0.326   1.283 -0.2347 -0.1601 -0.5643
 2641TIP3    H129414   5.886   0.263   1.231  0.2795  0.8438 -1.3015
 2641TIP3    H229415   5.884   0.332   1.366  0.8992  0.8012 -1.2695
 2642TIP3   OH229416   1.794   0.992   0.051  0.0086  0.1958 -0.3822
 2642TIP3    H129417   1.807   1.087   0.058 -1.7159  0.5756 -1.9702
 2642TIP3    H229418   1.705   0.977   0.082 -0.2992 -0.6932 -1.6473
 2643TIP3   OH229419   3.401   4.254   0.738  0.3860  0.0948  0.3370
 2643TIP3    H129420   3.312   4.289   0.733  0.2242 -0.0244  2.0805
 2643TIP3    H229421   3.458   4.331   0.737  0.2837  0.1706 -0.8123
 2644TIP3   OH229422   3.052   2.488  13.808 -0.2835  0.3882  0.3278
 2644TIP3    H129423   3.076   2.485  13.716  0.4822 -0.1206  0.5408
 2644TIP3    H229424   3.135   2.488  13.855 -0.6868 -1.8329  1.0867
 2645TIP3   OH229425   4.083   1.008   3.307  0.5604 -0.4508 -0.7517
 2645TIP3    H129426   4.086   0.994   3.212 -0.0759  0.8121 -0.9692
 2645TIP3    H229427   4.011   1.069   3.320  1.0450 -0.1248  0.4851
 2646TIP3   OH229428   0.571   6.103  15.759 -0.2437 -0.0533  0.2378
 2646TIP3    H129429   0.609   6.162  15.824 -0.4085  2.1449 -1.5932
 2646TIP3    H229430   0.618   6.124  15.678 -2.1777 -0.5560 -1.0420
 2647TIP3   OH229431   4.725   1.549   1.820  0.2110 -0.4686  0.0175
 2647TIP3    H129432   4.745   1.614   1.888 -0.3549 -0.1683 -0.0944
 2647TIP3    H229433   4.629   1.553   1.812  0.4737  1.3025 -2.5870
 2648TIP3   OH229434   6.813   1.344   2.940 -0.7719 -0.1410 -0.0090
 2648TIP3    H129435   6.839   1.343   3.032  1.0009 -0.4208 -0.4927
 2648TIP3    H229436   6.771   1.429   2.928 -0.4793  0.1448  0.9149
 2649TIP3   OH229437   0.098   5.688  14.841 -0.1347  0.6331 -0.1160
 2649TIP3    H129438   0.147   5.632  14.781  0.1580  1.4155 -0.6233
 2649TIP3    H229439   0.079   5.767  14.790 -0.4444  1.0422  0.6187
 2650TIP3   OH229440   3.379   1.717   5.144  0.1806 -0.5583  0.1140
 2650TIP3    H129441   3.313   1.759   5.088 -0.0566 -0.4104  0.5015
 2650TIP3    H229442   3.342   1.631   5.165  0.5291 -0.8399 -0.4278
 2651TIP3   OH229443   4.266   2.139  15.289  0.1192 -0.1803 -0.0315
 2651TIP3    H129444   4.186   2.135  15.343 -0.7900 -0.8300 -1.3930
 2651TIP3    H229445   4.271   2.230  15.259  0.6768  0.2059  1.2043
 2652TIP3   OH229446   0.150   4.191   4.220  0.8857 -0.2480 -0.1966
 2652TIP3    H129447   0.068   4.146   4.236  0.8916 -1.3851 -3.0227
 2652TIP3    H229448   0.191   4.200   4.306 -1.6832 -0.6137  1.0946
 2653TIP3   OH229449   3.603   0.365  16.625  0.1461  0.5879 -0.2770
 2653TIP3    H129450   3.586   0.290  16.567  1.1127  0.3166 -0.2249
 2653TIP3    H229451   3.612   0.439  16.565 -0.8610  0.6804 -0.3261
 2654TIP3   OH229452   2.918   0.177   5.464 -0.4554  0.3064  0.4352
 2654TIP3    H129453   2.939   0.108   5.401 -0.2087 -0.3193  1.1772
 2654TIP3    H229454   2.979   0.162   5.537  1.4030  2.9361 -0.5189
 2655TIP3   OH229455   5.507   3.059  14.773  0.0057  0.4567  0.3384
 2655TIP3    H129456   5.598   3.084  14.759  0.3273 -0.9546 -0.1404
 2655TIP3    H229457   5.462   3.083  14.692  0.5136 -1.4151 -0.5156
 2656TIP3   OH229458   3.279   0.796  13.724 -0.3094 -0.0060  0.6180
 2656TIP3    H129459   3.320   0.855  13.660  0.5355 -1.7398 -0.4534
 2656TIP3    H229460   3.192   0.834  13.738  0.5691  2.0757  0.7283
 2657TIP3   OH229461   4.589   2.446   0.624  0.1264  0.2124 -0.6784
 2657TIP3    H129462   4.506   2.399   0.616  0.4682 -0.5123 -0.0618
 2657TIP3    H229463   4.579   2.523   0.568 -1.1026  0.3347 -0.2971
 2658TIP3   OH229464   0.796   0.573   0.604  0.1888  0.8822 -0.0036
 2658TIP3    H129465   0.753   0.646   0.649  1.9280  2.9847 -1.6898
 2658TIP3    H229466   0.884   0.604   0.585  1.1394 -1.8518 -0.3357
 2659TIP3   OH229467   4.822   4.233   0.390 -0.4473  0.4373  0.0837
 2659TIP3    H129468   4.768   4.305   0.421  0.6270  0.5916  1.6745
 2659TIP3    H229469   4.912   4.267   0.393  0.0483 -0.8582  0.6268
 2660TIP3   OH229470   0.654   6.786  17.213  0.2089  0.0322 -0.1957
 2660TIP3    H129471   0.625   6.729  17.284 -0.7925 -1.9394 -2.1145
 2660TIP3    H229472   0.582   6.848  17.201  0.8301  1.0617  1.1530
 2661TIP3   OH229473   5.939   0.950  13.166  0.7885  0.7072 -0.2211
 2661TIP3    H129474   5.887   1.028  13.147  0.5058  1.3798  3.0389
 2661TIP3    H229475   5.874   0.880  13.173  0.6907  0.8265  0.1007
 2662TIP3   OH229476   4.033   2.501  13.553 -0.0902  0.2133  0.1681
 2662TIP3    H129477   4.086   2.577  13.576  1.3747 -1.0541  1.1150
 2662TIP3    H229478   4.049   2.439  13.625 -1.4812 -0.8585 -0.4415
 2663TIP3   OH229479   6.365   1.306  13.788 -0.4614 -0.0404  0.2744
 2663TIP3    H129480   6.329   1.313  13.700 -0.7039  0.1249  0.3876
 2663TIP3    H229481   6.460   1.316  13.776 -0.5485  0.5985  0.1067
 2664TIP3   OH229482   3.656   1.466   2.648 -0.4850  0.3955 -0.3513
 2664TIP3    H129483   3.639   1.465   2.554  0.8422 -0.4920 -0.5934
 2664TIP3    H229484   3.635   1.377   2.677  1.4554 -0.0538 -0.2594
 2665TIP3   OH229485   6.323   4.535   5.717  0.2039 -0.7019 -0.9784
 2665TIP3    H129486   6.326   4.519   5.811  0.0518  0.8250 -0.7005
 2665TIP3    H229487   6.393   4.480   5.681  0.6321 -0.8637  0.0859
 2666TIP3   OH229488   5.646   2.336  15.046  0.1116  0.0227  0.3244
 2666TIP3    H129489   5.607   2.400  14.987 -1.4532 -1.9908 -0.9010
 2666TIP3    H229490   5.731   2.315  15.006  0.1939  0.6005  0.1956
 2667TIP3   OH229491   6.816   4.922   2.358  0.3949  0.6811 -0.2913
 2667TIP3    H129492   6.815   4.829   2.337 -1.2163  0.8666 -1.0447
 2667TIP3    H229493   6.745   4.933   2.421  2.1966  0.9657  1.7557
 2668TIP3   OH229494   3.346   6.470   0.507  0.1334 -0.1500 -0.4657
 2668TIP3    H129495   3.397   6.539   0.466  2.4244 -1.0965  0.6786
 2668TIP3    H229496   3.306   6.511   0.584 -0.9465  0.6247 -1.4299
 2669TIP3   OH229497   6.254   1.906  14.084  0.2908  0.0329 -0.2532
 2669TIP3    H129498   6.231   1.961  14.159  0.5901 -0.0964 -0.0670
 2669TIP3    H229499   6.274   1.968  14.014  0.2838  0.1548 -0.1472
 2670TIP3   OH229500   6.429   6.257   6.797  0.0406 -0.6447 -0.6854
 2670TIP3    H129501   6.337   6.269   6.773  0.3963  0.3835 -1.5783
 2670TIP3    H229502   6.471   6.225   6.717  0.7733  0.4896 -0.7666
 2671TIP3   OH229503   5.896   2.171   1.679  0.1702  0.1112  0.5921
 2671TIP3    H129504   5.930   2.260   1.681  0.3141  0.0420  1.4991
 2671TIP3    H229505   5.814   2.177   1.630  0.3017  0.6972  0.4446
 2672TIP3   OH229506   3.594   3.696  13.209 -0.3820 -0.1503 -0.2323
 2672TIP3    H129507   3.643   3.761  13.260 -0.8440  0.2926 -0.3586
 2672TIP3    H229508   3.557   3.637  13.275  0.8266 -0.8478 -0.1613
 2673TIP3   OH229509   0.099   4.248  13.058 -0.6108  0.6231  0.2527
 2673TIP3    H129510   0.062   4.335  13.072  0.8775  1.0270  1.9378
 2673TIP3    H229511   0.180   4.264  13.009 -0.6797  0.1162 -0.0336
 2674TIP3   OH229512   0.546   1.226  12.659 -0.0855 -0.5139 -0.4395
 2674TIP3    H129513   0.480   1.161  12.634  0.4041 -0.6550 -1.4041
 2674TIP3    H229514   0.497   1.294  12.704 -1.0458 -0.1485 -1.9844
 2675TIP3   OH229515   3.039   3.372   3.377 -0.5013 -0.3810 -0.5773
 2675TIP3    H129516   3.133   3.388   3.368 -0.2925 -0.7553  0.8217
 2675TIP3    H229517   3.010   3.350   3.288  0.8966 -1.0701 -0.8784
 2676TIP3   OH229518   2.684   5.364  11.867  0.2974  0.1369 -0.5627
 2676TIP3    H129519   2.761   5.307  11.873 -1.3866 -2.1482  0.0029
 2676TIP3    H229520   2.681   5.408  11.952  0.4576 -0.4585 -0.2454
 2677TIP3   OH229521   2.469   2.370   1.522  0.3849  0.8096 -0.6435
 2677TIP3    H129522   2.442   2.447   1.472 -0.0426  1.6499  0.8565
 2677TIP3    H229523   2.565   2.375   1.523  0.4017  0.7648 -1.3881
 2678TIP3   OH229524   5.710   4.430   0.502 -0.3084  0.1478  0.1183
 2678TIP3    H129525   5.798   4.433   0.541 -0.7423 -0.9291  1.2191
 2678TIP3    H229526   5.659   4.492   0.554 -0.6015 -0.4432  0.5421
 2679TIP3   OH229527   3.359   4.341  14.007 -0.1879  0.6171  0.6599
 2679TIP3    H129528   3.307   4.415  13.976  0.7804  1.0214 -0.0414
 2679TIP3    H229529   3.400   4.373  14.088 -0.0338  0.7448  0.5336
 2680TIP3   OH229530   1.055   4.709   0.063  0.2114  0.1578 -0.6887
 2680TIP3    H129531   1.094   4.752   0.139  0.2663 -0.0770 -0.5813
 2680TIP3    H229532   0.961   4.719   0.075  0.0883 -2.5323  1.0101
 2681TIP3   OH229533   0.805   5.253  14.301 -0.2805 -0.1115 -0.1341
 2681TIP3    H129534   0.823   5.194  14.374 -0.1148 -0.4103 -0.4163
 2681TIP3    H229535   0.728   5.303  14.329  0.1922  0.2444  0.5215
 2682TIP3   OH229536   4.932   5.642  15.320  0.1389 -0.0638  0.3001
 2682TIP3    H129537   4.932   5.702  15.245  0.1774  0.8191  0.9982
 2682TIP3    H229538   5.022   5.610  15.325  1.2562  3.1234  2.5070
 2683TIP3   OH229539   0.609   2.988   4.888  0.1011  0.2572  0.3938
 2683TIP3    H129540   0.598   2.977   4.793 -0.1106  0.1894  0.4258
 2683TIP3    H229541   0.521   3.007   4.920  0.2717  0.8916  0.4951
 2684TIP3   OH229542   1.625   1.606   0.828 -0.9274  0.5659 -0.7736
 2684TIP3    H129543   1.531   1.622   0.817 -0.9206  0.3420 -1.1623
 2684TIP3    H229544   1.667   1.661   0.761 -0.7478  1.0733 -0.2535
 2685TIP3   OH229545   1.007   6.403  14.102  0.3396  0.1403 -0.1622
 2685TIP3    H129546   1.080   6.423  14.162 -0.2345 -1.4589  1.1020
 2685TIP3    H229547   0.943   6.473  14.118 -0.5679 -1.2197  2.4061
 2686TIP3   OH229548   1.632   2.720  14.985 -0.6227 -0.1620  0.0686
 2686TIP3    H129549   1.566   2.653  14.970 -0.0059 -0.9954  1.0222
 2686TIP3    H229550   1.667   2.738  14.897 -2.3750  0.5814 -0.4914
 2687TIP3   OH229551   1.055   0.122   6.881 -0.3227 -0.6942 -0.1347
 2687TIP3    H129552   1.013   0.073   6.810  0.4040  0.7412 -1.6043
 2687TIP3    H229553   0.988   0.186   6.908 -0.5683 -1.1838  0.4227
 2688TIP3   OH229554   3.120   5.997   0.086 -0.2542  0.7091 -0.0563
 2688TIP3    H129555   3.149   6.044   0.007 -1.0400  0.1036 -0.7117
 2688TIP3    H229556   3.064   6.060   0.131  0.8745  1.3588  0.4617
 2689TIP3   OH229557   6.395   2.099   1.754  0.1026  0.1904  0.1141
 2689TIP3    H129558   6.310   2.122   1.792  0.3514  0.5806  0.4481
 2689TIP3    H229559   6.457   2.109   1.827  0.8060  2.3345 -0.7345
 2690TIP3   OH229560   1.202   1.666  14.920 -0.4390 -0.3186  0.1052
 2690TIP3    H129561   1.263   1.714  14.975 -1.0479 -0.0065  0.5127
 2690TIP3    H229562   1.256   1.634  14.848 -0.0181  0.9479 -0.1648
 2691TIP3   OH229563   1.931   4.489   3.090  0.1401  1.0916 -0.0021
 2691TIP3    H129564   1.841   4.499   3.059 -0.0066  0.3195  0.1596
 2691TIP3    H229565   1.968   4.419   3.036  0.1753  0.3864  0.9037
 2692TIP3   OH229566   6.764   1.960  12.977  0.2481 -0.5176 -0.2320
 2692TIP3    H129567   6.762   1.939  13.071 -0.3424 -1.8121 -0.5203
 2692TIP3    H229568   6.683   1.922  12.942 -0.2429  1.2083 -1.0254
 2693TIP3   OH229569   3.736   3.481  12.995  0.0416 -0.2302  0.1402
 2693TIP3    H129570   3.787   3.478  13.077 -0.1597 -0.2306  0.2639
 2693TIP3    H229571   3.725   3.390  12.971 -0.7031 -0.2720  0.6117
 2694TIP3   OH229572   2.642   0.313  16.718 -0.2749 -0.0471 -0.1194
 2694TIP3    H129573   2.621   0.397  16.758  1.4225 -0.1412  1.0139
 2694TIP3    H229574   2.680   0.261  16.789  2.2811 -0.4193 -1.6984
 2695TIP3   OH229575   1.022   5.394  11.119 -0.0716  0.4635  0.6807
 2695TIP3    H129576   0.983   5.479  11.097  1.2143  1.0248  0.5325
 2695TIP3    H229577   1.019   5.345  11.037  1.8856  1.4450 -0.0168
 2696TIP3   OH229578   2.232   0.547   1.145  0.8086 -0.0441 -0.2213
 2696TIP3    H129579   2.285   0.479   1.104  1.8378  1.0807 -0.8030
 2696TIP3    H229580   2.292   0.621   1.156  0.0391  0.3392  1.5561
 2697TIP3   OH229581   3.542   6.334  14.466 -0.2765 -0.2091  0.5535
 2697TIP3    H129582   3.492   6.380  14.399 -1.9848 -2.2306  0.3836
 2697TIP3    H229583   3.596   6.271  14.418  2.9978  2.3813  0.6898
 2698TIP3   OH229584   0.267   5.934  11.396  0.5927 -0.0087  0.4634
 2698TIP3    H129585   0.362   5.920  11.400  1.1445  2.9972 -0.7876
 2698TIP3    H229586   0.250   6.002  11.461 -1.1018 -2.1180  2.3088
 2699TIP3   OH229587   4.549   1.873  11.186 -0.6644 -0.2586 -0.7563
 2699TIP3    H129588   4.599   1.916  11.116 -0.3356  0.0802 -0.3190
 2699TIP3    H229589   4.577   1.781  11.181  1.3950  0.2622  0.6531
 2700TIP3   OH229590   1.448   4.246   2.863 -1.1926  0.6735 -0.4307
 2700TIP3    H129591   1.409   4.187   2.927  0.6321 -0.5680 -0.4406
 2700TIP3    H229592   1.531   4.274   2.903 -0.5330  0.7033 -1.7932
 2701TIP3   OH229593   5.865   4.377   2.749 -0.6499  0.0321 -0.0410
 2701TIP3    H129594   5.787   4.428   2.770 -1.1067 -0.3383 -0.8364
 2701TIP3    H229595   5.872   4.314   2.820 -1.6555 -0.5979 -0.4878
 2702TIP3   OH229596   2.951   2.680   2.128 -0.2873  0.2659  0.1175
 2702TIP3    H129597   2.989   2.758   2.168 -1.1392  0.1678  1.1459
 2702TIP3    H229598   2.914   2.631   2.201 -1.5481 -0.1094 -0.7371
 2703TIP3   OH229599   1.962   4.263   1.629 -0.0783  0.5226 -0.2888
 2703TIP3    H129600   1.955   4.356   1.651 -0.6600  0.0064  1.9232
 2703TIP3    H229601   2.051   4.252   1.596 -0.5471  2.1571 -2.1877
 2704TIP3   OH229602   6.661   5.105   5.672 -0.1546  0.1069 -0.0693
 2704TIP3    H129603   6.742   5.135   5.711 -0.7025  1.6623 -0.0976
 2704TIP3    H229604   6.688   5.039   5.608  1.0179  0.1157  0.4111
 2705TIP3   OH229605   3.560   2.188  14.322  0.4393 -0.5575 -0.7128
 2705TIP3    H129606   3.495   2.236  14.373  0.9913 -1.9490  1.3197
 2705TIP3    H229607   3.542   2.096  14.339  0.7596 -1.0620 -2.8926
 2706TIP3   OH229608   2.855   4.537  13.190 -0.4668 -0.1191  0.0650
 2706TIP3    H129609   2.818   4.497  13.111  0.2038  0.9056 -0.7964
 2706TIP3    H229610   2.851   4.632  13.173 -0.5318  0.1251  1.3660
 2707TIP3   OH229611   2.222   5.444   1.801  0.0177  0.0723  0.1768
 2707TIP3    H129612   2.292   5.400   1.848 -0.5559  0.0463  1.0091
 2707TIP3    H229613   2.225   5.535   1.832  0.0960  0.2206 -0.2606
 2708TIP3   OH229614   1.221   4.915  11.120 -0.5543 -0.3206 -0.0355
 2708TIP3    H129615   1.152   4.884  11.062  0.2598 -1.8100 -0.2323
 2708TIP3    H229616   1.263   4.986  11.070 -0.3124 -1.1168 -0.9834
 2709TIP3   OH229617   3.952   6.607   0.645  0.2409  0.3575  0.2250
 2709TIP3    H129618   3.966   6.516   0.673  0.4815  0.7066  1.2432
 2709TIP3    H229619   3.860   6.624   0.665  0.3534  0.5325  0.5964
 2710TIP3   OH229620   1.096   2.111  16.067 -0.0626 -0.1267 -0.3599
 2710TIP3    H129621   1.063   2.119  15.977 -1.8324  0.3016  0.3131
 2710TIP3    H229622   1.089   2.200  16.103  1.1075 -0.1959  0.0511
 2711TIP3   OH229623   3.283   3.328   5.892  0.0117 -0.0962 -0.8547
 2711TIP3    H129624   3.340   3.385   5.945 -0.0673  0.9600 -1.8743
 2711TIP3    H229625   3.267   3.252   5.947 -0.2964  1.1074  0.7677
 2712TIP3   OH229626   2.910   0.303   0.223  0.2818  1.1066 -0.2816
 2712TIP3    H129627   2.900   0.392   0.191 -2.8324  0.5032 -1.1192
 2712TIP3    H229628   2.825   0.280   0.260  2.1859 -0.1535  3.6213
 2713TIP3   OH229629   6.149   1.481  12.219 -0.5006  0.5098 -0.5807
 2713TIP3    H129630   6.168   1.561  12.269  0.0929  0.8410 -1.3178
 2713TIP3    H229631   6.111   1.513  12.137 -1.0760 -0.0091 -0.5189
 2714TIP3   OH229632   1.824   4.446  15.748 -0.1089 -0.2281 -0.6502
 2714TIP3    H129633   1.866   4.429  15.664 -1.2684 -2.5677 -0.8023
 2714TIP3    H229634   1.893   4.433  15.813  0.5389  0.6045 -1.1548
 2715TIP3   OH229635   3.788   6.049  14.517  0.1993  0.0081  0.1374
 2715TIP3    H129636   3.813   5.958  14.497  1.3981  0.4982 -0.6841
 2715TIP3    H229637   3.724   6.072  14.449  0.6264  0.0842 -0.2456
 2716TIP3   OH229638   3.866   3.836   2.743 -0.1923  0.3779  0.2217
 2716TIP3    H129639   3.821   3.778   2.682  0.2193  0.4518 -0.1505
 2716TIP3    H229640   3.936   3.876   2.692  1.1695 -0.7604  1.1369
 2717TIP3   OH229641   5.021   0.364   4.537 -1.0595 -0.4945  0.0364
 2717TIP3    H129642   5.003   0.446   4.492  0.0869 -0.4688 -0.3989
 2717TIP3    H229643   5.008   0.296   4.471  2.6853 -0.3150 -0.9846
 2718TIP3   OH229644   4.914   3.279  14.204  0.3079 -0.3498 -0.3042
 2718TIP3    H129645   4.950   3.233  14.128 -1.4447 -0.4765 -1.0770
 2718TIP3    H229646   4.846   3.335  14.167 -1.4005 -1.3176  1.3010
 2719TIP3   OH229647   1.024   6.177  11.112  0.0628  0.4853 -0.1542
 2719TIP3    H129648   1.105   6.164  11.162  0.6656 -0.4882 -1.3301
 2719TIP3    H229649   1.052   6.174  11.021 -1.5105 -1.4942 -0.6070
 2720TIP3   OH229650   1.671   4.847   1.152  0.1012  0.4767 -0.1913
 2720TIP3    H129651   1.591   4.833   1.203 -0.5277 -0.4114 -1.4085
 2720TIP3    H229652   1.654   4.927   1.102 -0.1550  0.0966 -0.7091
 2721TIP3   OH229653   0.180   6.569   6.247 -0.3182 -0.6540  0.2336
 2721TIP3    H129654   0.086   6.581   6.264 -0.4828 -0.4680 -0.7779
 2721TIP3    H229655   0.190   6.585   6.153  0.8047 -0.2019  0.4174
 2722TIP3   OH229656   4.777   5.633  16.394  0.0512 -0.0650 -0.3381
 2722TIP3    H129657   4.856   5.648  16.447  0.0387 -2.0896  0.2819
 2722TIP3    H229658   4.707   5.676  16.443  0.7562  1.8089 -0.9313
 2723TIP3   OH229659   6.438   3.335   6.779 -0.1724  0.5834 -0.3608
 2723TIP3    H129660   6.444   3.239   6.778  0.7104  0.6430 -1.1914
 2723TIP3    H229661   6.365   3.355   6.722 -1.9948  0.3074  1.7973
 2724TIP3   OH229662   6.280   1.945   1.592  0.1392 -0.3990  0.1979
 2724TIP3    H129663   6.249   1.891   1.664  1.0042 -1.7917 -0.4469
 2724TIP3    H229664   6.329   2.016   1.633  0.9564 -1.3996  0.9633
 2725TIP3   OH229665   1.447   1.088   6.055 -0.0086  0.3346 -0.1019
 2725TIP3    H129666   1.466   1.112   5.964 -1.7867  1.6152 -0.1458
 2725TIP3    H229667   1.386   1.014   6.047 -0.5733  0.7843  0.0478
 2726TIP3   OH229668   1.334   1.215   3.516  1.3475 -0.0520  0.0442
 2726TIP3    H129669   1.321   1.140   3.457  1.7714  0.1081 -0.2553
 2726TIP3    H229670   1.427   1.237   3.506  1.7109 -0.7933  1.7042
 2727TIP3   OH229671   0.321   2.976   6.364 -0.3209 -0.0878 -0.2471
 2727TIP3    H129672   0.229   2.947   6.370 -0.2284 -0.2021  0.7274
 2727TIP3    H229673   0.372   2.895   6.370 -0.1731 -0.1700 -2.1471
 2728TIP3   OH229674   1.484   4.540  14.532 -0.9053  0.3248 -0.0533
 2728TIP3    H129675   1.435   4.459  14.545 -0.0390  0.2769  3.2534
 2728TIP3    H229676   1.441   4.604  14.589  0.1003  1.4815 -0.5583
 2729TIP3   OH229677   4.579   6.606   5.926 -0.3645  0.0721  0.1459
 2729TIP3    H129678   4.517   6.550   5.880  0.6919 -0.0179 -1.1841
 2729TIP3    H229679   4.525   6.657   5.986 -1.5315 -1.1899  0.1967
 2730TIP3   OH229680   1.970   1.394  14.332  0.4609 -0.4565  0.3332
 2730TIP3    H129681   2.013   1.472  14.297  0.1302 -0.0531  0.8048
 2730TIP3    H229682   1.939   1.347  14.255  1.1695 -0.4155  0.0225
 2731TIP3   OH229683   0.200   2.630  17.022  0.2911 -0.6871 -0.4390
 2731TIP3    H129684   0.263   2.681  17.072  0.0113  0.3299 -1.1004
 2731TIP3    H229685   0.228   2.640  16.931 -1.3064  0.4946 -0.8248
 2732TIP3   OH229686   5.663   5.035   0.307 -0.2440 -0.4776 -0.6169
 2732TIP3    H129687   5.648   5.085   0.227 -0.5680 -1.4242 -1.1476
 2732TIP3    H229688   5.758   5.025   0.311 -0.2441 -0.6121 -0.9873
 2733TIP3   OH229689   1.653   0.209  14.526  0.0257  0.1587  0.0820
 2733TIP3    H129690   1.710   0.282  14.502 -0.4151  0.6793  0.5929
 2733TIP3    H229691   1.596   0.197  14.451 -0.0412  0.4803  0.0805
 2734TIP3   OH229692   1.472   6.758   2.677 -0.1458 -0.2014 -0.5187
 2734TIP3    H129693   1.499   6.795   2.593  0.2137 -0.5528 -0.5595
 2734TIP3    H229694   1.413   6.686   2.653 -0.7887  0.2991 -0.4422
 2735TIP3   OH229695   4.006   1.638   1.468 -0.5182  0.3369  0.1314
 2735TIP3    H129696   3.920   1.597   1.469 -0.2614 -0.2538 -0.9503
 2735TIP3    H229697   3.997   1.711   1.406  0.4360 -1.2824 -1.9701
 2736TIP3   OH229698   3.608   6.279  12.146 -0.1491  0.2338 -0.0367
 2736TIP3    H129699   3.650   6.352  12.192  0.2897  1.5639 -2.4635
 2736TIP3    H229700   3.681   6.230  12.107 -0.4950 -1.0586  0.9206
 2737TIP3   OH229701   0.711   3.268  16.052  0.2953 -0.1681 -0.0331
 2737TIP3    H129702   0.664   3.344  16.085 -1.1415 -0.6584 -0.9417
 2737TIP3    H229703   0.643   3.208  16.023  1.4271 -1.6061  0.2188
 2738TIP3   OH229704   6.124   1.210   0.090  0.3171 -0.2593 -0.1304
 2738TIP3    H129705   6.141   1.301   0.068 -0.4947 -0.5893 -2.2019
 2738TIP3    H229706   6.207   1.165   0.075  0.2122 -0.1869 -0.9324
 2739TIP3   OH229707   0.160   0.894   5.170  0.0863 -0.6138 -0.5967
 2739TIP3    H129708   0.209   0.865   5.246 -1.0774  0.9247  0.7980
 2739TIP3    H229709   0.083   0.838   5.168  0.0602 -0.5788 -0.5749
 2740TIP3   OH229710   5.448   0.320  13.014  0.2395  0.0856  0.0222
 2740TIP3    H129711   5.520   0.346  12.957  0.1430  2.1584  0.8301
 2740TIP3    H229712   5.475   0.347  13.102 -2.2240  2.4235  0.1089
 2741TIP3   OH229713   4.521   5.291  14.129  0.0816  0.6634  0.2542
 2741TIP3    H129714   4.596   5.243  14.094  0.6965  2.3934 -0.8734
 2741TIP3    H229715   4.553   5.380  14.141 -1.9070  1.5455 -0.7099
 2742TIP3   OH229716   6.678   4.686  11.880  0.4985 -0.0965  0.2772
 2742TIP3    H129717   6.603   4.645  11.924 -0.3403  0.6352 -0.4473
 2742TIP3    H229718   6.690   4.634  11.801 -0.8328  1.2931 -0.8526
 2743TIP3   OH229719   6.495   5.659  16.244  0.4305 -0.1862 -0.5235
 2743TIP3    H129720   6.404   5.688  16.247  0.7086  0.6993 -0.2793
 2743TIP3    H229721   6.502   5.592  16.311 -0.6786 -2.1687 -2.3452
 2744TIP3   OH229722   2.162   5.953  14.923  0.3812  0.6608 -0.4995
 2744TIP3    H129723   2.238   5.928  14.870 -0.2497  0.5261 -1.3509
 2744TIP3    H229724   2.087   5.916  14.876 -0.2485  1.1703  0.1017
 2745TIP3   OH229725   0.656   5.078   1.266 -0.2581  0.2363  0.1666
 2745TIP3    H129726   0.664   5.085   1.170  0.6208 -0.1557  0.2067
 2745TIP3    H229727   0.715   5.006   1.289  0.9626  1.5605  1.2130
 2746TIP3   OH229728   4.814   1.538  13.960  0.0827  0.3371 -0.0531
 2746TIP3    H129729   4.760   1.617  13.956  0.8189  0.8029 -1.0030
 2746TIP3    H229730   4.846   1.536  14.051  0.2293  1.2457 -0.0777
 2747TIP3   OH229731   4.532   4.244  14.420  0.1655 -0.1504 -0.3365
 2747TIP3    H129732   4.592   4.236  14.345  1.5218  2.0743  0.4816
 2747TIP3    H229733   4.497   4.332  14.413 -1.1442 -0.5920  0.6232
 2748TIP3   OH229734   1.293   3.523  14.161 -0.5710  0.0523  0.4613
 2748TIP3    H129735   1.204   3.518  14.124 -1.1781 -1.5746  2.0261
 2748TIP3    H229736   1.295   3.606  14.207  0.2494  2.2025 -3.2484
 2749TIP3   OH229737   0.482   3.996  16.166 -0.1614  0.1674 -0.0979
 2749TIP3    H129738   0.417   3.936  16.203  0.0875 -0.1203 -0.1204
 2749TIP3    H229739   0.439   4.036  16.091 -0.6879  0.7812  0.5137
 2750TIP3   OH229740   5.948   0.379  12.162 -0.1320 -0.0351  0.2085
 2750TIP3    H129741   5.974   0.434  12.236  0.0363  0.1726 -0.0036
 2750TIP3    H229742   5.857   0.356  12.180  0.0098 -0.2636  0.6479
 2751TIP3   OH229743   2.999   5.522   5.376  0.5541  0.5684 -0.0314
 2751TIP3    H129744   2.926   5.503   5.436 -1.6683 -0.6842 -3.0136
 2751TIP3    H229745   3.052   5.442   5.377  0.8648  0.7729  0.6695
 2752TIP3   OH229746   3.923   3.408  13.733  0.3083  0.4096  0.1013
 2752TIP3    H129747   3.977   3.480  13.764  1.5222 -0.8000  0.8477
 2752TIP3    H229748   3.970   3.329  13.759 -1.4382 -0.6692  0.1018
 2753TIP3   OH229749   6.444   2.886   0.669 -0.0102  0.4375  0.3417
 2753TIP3    H129750   6.372   2.916   0.725  0.9013  0.3248  1.5812
 2753TIP3    H229751   6.417   2.799   0.641 -0.4284  0.4525  0.6818
 2754TIP3   OH229752   1.667   6.576   5.757  0.1411 -0.3723  0.4431
 2754TIP3    H129753   1.664   6.526   5.838  1.9094 -1.7825 -0.3322
 2754TIP3    H229754   1.708   6.517   5.693 -0.9804  0.7939 -1.4172
 2755TIP3   OH229755   2.245   6.558   3.056  0.8757  0.5620  0.2050
 2755TIP3    H129756   2.168   6.505   3.077  1.0439 -1.1104 -2.9713
 2755TIP3    H229757   2.209   6.642   3.026  0.2944 -0.0140 -0.7302
 2756TIP3   OH229758   4.790   5.955   5.939 -0.4759  0.0040  0.3655
 2756TIP3    H129759   4.866   5.923   5.989 -1.1698 -1.3545  0.5798
 2756TIP3    H229760   4.827   5.984   5.855  0.2695 -0.7872  0.4092
 2757TIP3   OH229761   1.855   0.200  10.933  0.1991 -0.3775  0.5658
 2757TIP3    H129762   1.920   0.267  10.913 -0.4050  0.0044 -0.1457
 2757TIP3    H229763   1.866   0.183  11.027  0.3099  0.7651  0.7676
 2758TIP3   OH229764   1.655   2.202  15.664  0.3706  0.3708 -0.5404
 2758TIP3    H129765   1.641   2.138  15.594  1.5111  0.2753 -0.6951
 2758TIP3    H229766   1.572   2.249  15.670 -0.4405 -1.0402 -0.5006
 2759TIP3   OH229767   0.854   1.651  12.977  0.0718  0.0467  0.0188
 2759TIP3    H129768   0.814   1.579  13.027  1.2352 -2.1959 -2.1261
 2759TIP3    H229769   0.907   1.699  13.041  0.5017 -1.9716  1.2286
 2760TIP3   OH229770   1.465   0.158  16.789  0.5131 -0.1306 -0.0344
 2760TIP3    H129771   1.496   0.083  16.840 -0.4482 -0.2067  0.4575
 2760TIP3    H229772   1.525   0.229  16.811  1.8103 -0.9066 -0.9857
 2761TIP3   OH229773   6.085   5.021  12.795 -0.2401  0.1134 -0.3298
 2761TIP3    H129774   6.036   4.953  12.842 -0.6162 -0.3564 -1.4042
 2761TIP3    H229775   6.056   5.103  12.835 -1.3186 -0.2115 -0.4255
 2762TIP3   OH229776   5.804   1.303   4.094 -0.1894  0.8103  0.6602
 2762TIP3    H129777   5.872   1.298   4.027  0.3510  1.5840  1.1380
 2762TIP3    H229778   5.733   1.249   4.061  1.2983 -1.3358  0.8945
 2763TIP3   OH229779   0.912   4.767   0.453 -0.9682  0.2166 -0.1788
 2763TIP3    H129780   0.842   4.742   0.513  0.1435 -2.6253  0.0051
 2763TIP3    H229781   0.926   4.689   0.398  1.5980  0.9451 -0.6331
 2764TIP3   OH229782   0.346   1.853   5.376 -0.3297 -0.1023 -0.3514
 2764TIP3    H129783   0.283   1.813   5.437 -0.9873  1.8417  0.2839
 2764TIP3    H229784   0.298   1.858   5.293 -1.9382  3.5064  0.6898
 2765TIP3   OH229785   2.163   1.862  15.792 -0.3173 -0.2332 -0.0986
 2765TIP3    H129786   2.122   1.841  15.876 -1.9201  0.0167 -0.7900
 2765TIP3    H229787   2.089   1.876  15.733  0.7837  1.4876 -1.0938
 2766TIP3   OH229788   2.188   4.915   1.252 -0.1005  1.0062 -0.0508
 2766TIP3    H129789   2.108   4.865   1.237  1.0409 -0.9900  0.3312
 2766TIP3    H229790   2.259   4.857   1.224  1.4590  1.0626  3.4383
 2767TIP3   OH229791   5.370   1.955   4.166  0.0430 -0.2009  0.3122
 2767TIP3    H129792   5.321   1.962   4.084 -0.9959 -1.6301  0.7908
 2767TIP3    H229793   5.411   1.869   4.162  0.1756 -0.1798  1.1841
 2768TIP3   OH229794   6.603   5.326   1.156 -0.0770 -0.0760  0.4964
 2768TIP3    H129795   6.662   5.388   1.112 -1.3203 -0.2471 -1.4703
 2768TIP3    H229796   6.553   5.380   1.218 -0.5195  0.7476 -0.5616
 2769TIP3   OH229797   3.003   5.854  16.280  0.0981 -0.4550 -0.3982
 2769TIP3    H129798   2.951   5.914  16.334  0.6606 -1.4233  1.2666
 2769TIP3    H229799   3.069   5.909  16.239  0.9516  0.0033  1.5461
 2770TIP3   OH229800   4.476   2.919  15.559  0.2069  0.6251  0.5606
 2770TIP3    H129801   4.427   2.849  15.515  2.6601 -0.8081  0.0103
 2770TIP3    H229802   4.489   2.985  15.491 -3.0846  2.2412  1.3648
 2771TIP3   OH229803   0.323   6.337  13.985 -0.2738  0.4893  0.5916
 2771TIP3    H129804   0.273   6.307  14.061 -0.1966  0.8805  0.7985
 2771TIP3    H229805   0.320   6.432  13.991  1.4625  0.5102  1.2480
 2772TIP3   OH229806   0.745   0.069  11.481  0.1557 -0.2671 -0.4007
 2772TIP3    H129807   0.821   0.128  11.482  0.8893 -1.1893 -0.4863
 2772TIP3    H229808   0.677   0.118  11.434  0.4558  0.8587  0.3242
 2773TIP3   OH229809   6.185   5.509  13.189 -0.0298 -0.5516  0.5821
 2773TIP3    H129810   6.169   5.542  13.277 -1.9639  0.3997 -0.1020
 2773TIP3    H229811   6.275   5.535  13.169 -0.2602  0.9628  1.5015
 2774TIP3   OH229812   3.866   0.709  11.724  0.1205 -0.1938  0.5399
 2774TIP3    H129813   3.953   0.694  11.687 -0.9836 -1.0580 -1.7903
 2774TIP3    H229814   3.858   0.804  11.729 -0.5561  0.0150 -3.5914
 2775TIP3   OH229815   1.879   6.704  11.586 -0.2010  0.0710  0.3331
 2775TIP3    H129816   1.921   6.716  11.671 -0.5969  1.8832  0.3104
 2775TIP3    H229817   1.920   6.770  11.529 -1.2791  0.1617 -0.3591
 2776TIP3   OH229818   1.483   6.117  12.471 -0.3287  0.1453  0.3093
 2776TIP3    H129819   1.510   6.034  12.509  0.4624  1.0285  1.7117
 2776TIP3    H229820   1.517   6.183  12.531  0.1299  1.5405 -1.4397
 2777TIP3   OH229821   5.788   1.099  11.383 -0.5588 -0.6210  0.4019
 2777TIP3    H129822   5.839   1.180  11.390 -2.2140  0.3721  1.3536
 2777TIP3    H229823   5.853   1.029  11.388  0.9170  0.6426 -0.6067
 2778TIP3   OH229824   6.521   1.129   4.261 -0.1607  0.5913 -0.2604
 2778TIP3    H129825   6.614   1.113   4.272 -0.2460 -0.1813 -0.6939
 2778TIP3    H229826   6.516   1.203   4.200  0.1300 -0.7258 -1.9183
 2779TIP3   OH229827   2.670   5.420  11.574 -0.5695 -0.3828 -0.4037
 2779TIP3    H129828   2.671   5.514  11.595 -0.5672 -0.4149 -0.2641
 2779TIP3    H229829   2.644   5.377  11.655 -2.2479 -0.3799 -0.9069
 2780TIP3   OH229830   3.717   2.127  15.929 -0.5435  0.1729 -0.2383
 2780TIP3    H129831   3.715   2.149  15.836  0.2798  2.2439  0.2148
 2780TIP3    H229832   3.625   2.130  15.956 -0.8365 -0.8840 -1.0611
 2781TIP3   OH229833   0.283   0.750   5.380  0.3688  0.2139  0.5702
 2781TIP3    H129834   0.239   0.666   5.389 -0.6406  0.7193  0.3700
 2781TIP3    H229835   0.358   0.731   5.323  0.1170 -0.5376  0.4833
 2782TIP3   OH229836   2.295   2.733  13.905  0.0680  0.3257  0.3885
 2782TIP3    H129837   2.243   2.718  13.826 -0.4392  0.8316  0.6220
 2782TIP3    H229838   2.332   2.648  13.926  0.8085  0.3491 -0.8238
 2783TIP3   OH229839   1.128   5.007  12.201 -0.1394  0.0831 -0.3245
 2783TIP3    H129840   1.060   4.986  12.265  0.3956 -0.5890  0.0267
 2783TIP3    H229841   1.095   4.970  12.119 -1.4403  2.0854 -0.7427
 2784TIP3   OH229842   4.875   6.615  12.050  0.3353 -0.3576  0.2091
 2784TIP3    H129843   4.895   6.534  12.097  1.3019 -0.0346  0.3690
 2784TIP3    H229844   4.796   6.595  12.000  1.4669 -1.9081 -1.0083
 2785TIP3   OH229845   2.998   4.038  15.659  0.0573  0.2008  0.5900
 2785TIP3    H129846   2.997   4.115  15.716  1.6753 -1.6226  3.1780
 2785TIP3    H229847   2.997   4.074  15.571 -1.6641  3.1335  1.7139
 2786TIP3   OH229848   4.994   0.089  14.886  0.0895  0.5283  0.0006
 2786TIP3    H129849   4.940   0.018  14.851  0.2107  0.4449 -0.0167
 2786TIP3    H229850   4.978   0.087  14.980  1.4426 -0.6585  0.2237
 2787TIP3   OH229851   5.009   3.770  13.279 -0.4275  0.3693 -0.3615
 2787TIP3    H129852   5.038   3.772  13.370  0.3833  2.5842 -0.6460
 2787TIP3    H229853   5.077   3.719  13.234 -1.5384 -1.9301  0.4672
 2788TIP3   OH229854   6.301   4.588  14.246 -0.0480 -0.6511  0.1737
 2788TIP3    H129855   6.315   4.540  14.165 -2.1746 -0.7603 -0.1522
 2788TIP3    H229856   6.350   4.669  14.234  0.7301 -1.2323 -0.6777
 2789TIP3   OH229857   1.022   5.880   4.844  0.0516 -0.6486 -0.4874
 2789TIP3    H129858   1.036   5.808   4.905 -3.1859 -1.4858 -0.6375
 2789TIP3    H229859   0.945   5.925   4.877  0.4150  1.1169 -1.9418
 2790TIP3   OH229860   1.807   1.089   0.589 -0.4883 -0.2129 -0.3821
 2790TIP3    H129861   1.837   1.009   0.631  0.6520  0.7172  0.5979
 2790TIP3    H229862   1.841   1.083   0.499 -0.1064 -0.6570 -0.2096
 2791TIP3   OH229863   1.239   0.054  15.949  0.0486  0.7571 -0.4042
 2791TIP3    H129864   1.270  -0.037  15.954 -1.3961  0.2752  0.1205
 2791TIP3    H229865   1.282   0.090  15.872  0.6079 -0.3843 -0.6380
 2792TIP3   OH229866   5.228   1.507  13.669  0.0354 -0.3783  0.4353
 2792TIP3    H129867   5.136   1.480  13.680 -0.4280  1.1267  0.4942
 2792TIP3    H229868   5.245   1.498  13.576 -0.6925  0.8338  0.1651
 2793TIP3   OH229869   1.066   0.804  14.380  0.2341 -0.3924 -0.7360
 2793TIP3    H129870   1.057   0.712  14.408  1.4266 -0.5148 -0.7473
 2793TIP3    H229871   1.052   0.855  14.460 -0.1973 -0.5933 -0.6821
 2794TIP3   OH229872   1.861   3.300  14.630 -0.1149  0.5058  0.1524
 2794TIP3    H129873   1.934   3.274  14.575 -1.8740 -2.2458 -0.9499
 2794TIP3    H229874   1.880   3.261  14.716 -0.1327  0.0590 -0.0475
 2795TIP3   OH229875   6.755   1.507   5.644  0.2644 -0.7207 -0.1896
 2795TIP3    H129876   6.692   1.440   5.672  1.7357 -2.9908 -2.1812
 2795TIP3    H229877   6.746   1.510   5.549  0.2093  1.9603 -0.1238
 2796TIP3   OH229878   6.246   0.426   6.676  0.1792 -0.0498  0.1730
 2796TIP3    H129879   6.337   0.455   6.684  0.6191 -1.4262  0.4202
 2796TIP3    H229880   6.250   0.332   6.697 -1.5402  0.2035  1.6988
 2797TIP3   OH229881   1.259   1.304  16.042 -0.0717  0.5065 -0.1981
 2797TIP3    H129882   1.270   1.302  15.947  0.5227 -0.6580 -0.1132
 2797TIP3    H229883   1.320   1.238  16.074 -1.3026 -0.1161  0.8986
 2798TIP3   OH229884   1.048   3.815  14.055  0.2286 -0.2016  0.4004
 2798TIP3    H129885   1.021   3.897  14.013 -0.6087 -1.8659 -2.4372
 2798TIP3    H229886   1.143   3.815  14.048  0.2335  0.4943  0.3664
 2799TIP3   OH229887   2.386   2.489   3.321 -0.6663  0.6670  0.4280
 2799TIP3    H129888   2.432   2.484   3.237  0.8799  2.1588  1.1787
 2799TIP3    H229889   2.368   2.397   3.343  0.1685  0.1832 -0.8295
 2800TIP3   OH229890   6.502   5.884   1.760  0.0784 -0.2578 -0.3433
 2800TIP3    H129891   6.554   5.917   1.686  0.0675  0.8658  0.1394
 2800TIP3    H229892   6.531   5.794   1.771  2.0893  0.4094  0.0412
 2801TIP3   OH229893   1.632   6.520   0.244  0.0831 -0.0635  0.3221
 2801TIP3    H129894   1.678   6.463   0.306 -0.4359 -1.0768 -0.2061
 2801TIP3    H229895   1.539   6.511   0.268  0.0869  1.4833  0.9870
 2802TIP3   OH229896   1.277   4.586   4.876 -0.2761 -0.7265  0.1996
 2802TIP3    H129897   1.333   4.631   4.940 -0.5258 -0.4396  0.2181
 2802TIP3    H229898   1.198   4.565   4.925 -0.2197 -1.0600  0.1497
 2803TIP3   OH229899   2.733   2.360   1.482  0.4996  0.1305  0.3129
 2803TIP3    H129900   2.773   2.288   1.432  1.2820  1.2368 -0.6884
 2803TIP3    H229901   2.790   2.371   1.558 -0.4701 -1.2897  1.2840
 2804TIP3   OH229902   2.592   1.848   6.425 -0.1214  0.9336  0.7560
 2804TIP3    H129903   2.502   1.828   6.451 -0.3726 -0.7280 -1.2948
 2804TIP3    H229904   2.597   1.944   6.427 -2.4100  1.1022 -0.6635
 2805TIP3   OH229905   1.616   4.764   4.791  0.2395 -0.5203 -0.1207
 2805TIP3    H129906   1.651   4.815   4.864 -2.3287  0.1296  0.7459
 2805TIP3    H229907   1.618   4.825   4.717 -1.6211  0.4955  0.6080
 2806TIP3   OH229908   6.244   6.351  11.515  0.1152 -0.0421 -0.3199
 2806TIP3    H129909   6.191   6.406  11.458 -1.3745 -2.8328 -1.6980
 2806TIP3    H229910   6.225   6.262  11.488 -0.0441 -1.4415  4.0519
 2807TIP3   OH229911   5.774   1.010   4.335 -0.0367  0.2242  0.1861
 2807TIP3    H129912   5.680   1.019   4.325  0.1358  1.3157 -0.5236
 2807TIP3    H229913   5.786   0.984   4.427 -0.9867  0.6676  0.4399
 2808TIP3   OH229914   2.375   2.039   2.831 -0.1740 -0.0894  0.5197
 2808TIP3    H129915   2.437   2.034   2.904  1.4304  0.0872 -0.8073
 2808TIP3    H229916   2.312   1.969   2.849  0.2607 -0.1280  2.0011
 2809TIP3   OH229917   4.202   6.439   6.794  0.1210 -0.3665  0.2423
 2809TIP3    H129918   4.288   6.475   6.818 -0.1180  1.6342 -1.6805
 2809TIP3    H229919   4.222   6.366   6.736  0.5524 -1.2857  1.5255
 2810TIP3   OH229920   5.667   6.727   3.801 -0.3034  0.2141 -0.0259
 2810TIP3    H129921   5.603   6.662   3.775 -0.9571  1.2456 -1.0638
 2810TIP3    H229922   5.621   6.811   3.794  0.0781  0.6940  2.6625
 2811TIP3   OH229923   4.934   2.928   3.574  0.4531  0.2463  0.6624
 2811TIP3    H129924   4.901   2.867   3.508  0.7760 -0.0069  0.7346
 2811TIP3    H229925   5.027   2.938   3.554 -0.0584  2.5786 -0.8322
 2812TIP3   OH229926   4.481   2.584   4.776 -0.9359 -0.4367 -0.0679
 2812TIP3    H129927   4.448   2.495   4.770  0.8825 -1.1381 -0.0028
 2812TIP3    H229928   4.553   2.587   4.712  1.2220 -0.0578  2.3073
 2813TIP3   OH229929   3.886   4.877  15.355 -0.4556 -0.5404 -0.1264
 2813TIP3    H129930   3.828   4.806  15.383  0.8622 -1.8005 -0.5269
 2813TIP3    H229931   3.847   4.956  15.393 -2.0047 -1.4496  0.2426
 2814TIP3   OH229932   3.136   2.983   5.682  0.6315  0.8324 -0.1107
 2814TIP3    H129933   3.050   2.942   5.692  1.0273 -0.0815 -0.4238
 2814TIP3    H229934   3.149   3.030   5.764  0.0777  0.5073  0.1676
 2815TIP3   OH229935   6.763   1.322   3.291  0.4624 -0.2603  0.0189
 2815TIP3    H129936   6.687   1.343   3.237 -0.4319 -1.8310  0.6208
 2815TIP3    H229937   6.784   1.231   3.269  2.4150  0.2654 -0.4100
 2816TIP3   OH229938   0.419   4.507   6.057 -0.0856  0.1729  0.2183
 2816TIP3    H129939   0.352   4.439   6.063  1.6975 -1.5390  1.5931
 2816TIP3    H229940   0.402   4.565   6.131 -3.6034  3.2062 -2.7981
 2817TIP3   OH229941   3.152   6.286   1.544 -0.5668 -0.5740  0.1442
 2817TIP3    H129942   3.064   6.315   1.566 -1.2464 -1.6424 -1.1008
 2817TIP3    H229943   3.158   6.297   1.449  0.9430  0.2775  0.3160
 2818TIP3   OH229944   2.107   0.576   5.818  0.5236 -0.0853  0.1667
 2818TIP3    H129945   2.188   0.579   5.869  0.8335  2.1461 -0.3731
 2818TIP3    H229946   2.136   0.564   5.727  0.0965 -1.8300  0.2483
 2819TIP3   OH229947   2.125   6.250   0.704 -0.2690 -0.3763 -0.0432
 2819TIP3    H129948   2.098   6.216   0.789  0.8710 -1.2716 -0.0280
 2819TIP3    H229949   2.044   6.252   0.653 -0.6245 -1.7836  0.4191
 2820TIP3   OH229950   2.781   0.035  16.950  0.0478 -0.1450  0.4335
 2820TIP3    H129951   2.737  -0.041  16.913 -2.3383  0.2878  2.2215
 2820TIP3    H229952   2.796   0.012  17.042  1.5535  0.5807  0.3759
 2821TIP3   OH229953   3.348   3.524  16.903  0.0044  0.4625  0.2998
 2821TIP3    H129954   3.389   3.453  16.953  0.4949  1.7405  1.7635
 2821TIP3    H229955   3.415   3.553  16.842  0.3373  0.6868  0.7677
 2822TIP3   OH229956   0.196   5.446  16.084  0.6088  0.0779 -0.0721
 2822TIP3    H129957   0.282   5.465  16.121  1.1722  1.4983 -2.0111
 2822TIP3    H229958   0.214   5.410  15.998 -0.7122 -1.7488  0.3978
 2823TIP3   OH229959   3.211   6.242  17.227  0.1742  0.3267 -0.2504
 2823TIP3    H129960   3.216   6.182  17.153 -2.0255 -1.2552  0.8402
 2823TIP3    H229961   3.156   6.314  17.196 -0.8927 -0.4213 -0.1144
 2824TIP3   OH229962   4.280   5.773  13.078  0.3915  0.4809  0.1188
 2824TIP3    H129963   4.276   5.868  13.076 -0.2412  0.4749  0.8116
 2824TIP3    H229964   4.373   5.753  13.069  0.4813  1.1434 -0.4969
 2825TIP3   OH229965   5.577   0.043  15.290  0.3038  0.4728 -0.2526
 2825TIP3    H129966   5.532   0.023  15.372 -1.8209  0.4093 -1.3951
 2825TIP3    H229967   5.589   0.138  15.293 -1.4916  0.7299 -0.6989
 2826TIP3   OH229968   3.232   5.311   1.550 -0.4962 -0.1834 -0.1891
 2826TIP3    H129969   3.315   5.357   1.539 -1.1512  0.6168 -1.9671
 2826TIP3    H229970   3.245   5.227   1.507  0.5205 -1.5197  2.5906
 2827TIP3   OH229971   3.185   5.842   5.876  0.7372 -0.0120  0.3903
 2827TIP3    H129972   3.161   5.934   5.878 -0.8556 -0.4295  1.1821
 2827TIP3    H229973   3.150   5.806   5.957  0.3886 -1.5494 -0.4255
 2828TIP3   OH229974   0.424   3.637   5.236 -0.1133  0.1743 -0.5882
 2828TIP3    H129975   0.397   3.702   5.170 -1.5843  0.7923  0.5845
 2828TIP3    H229976   0.513   3.661   5.259 -0.8211  2.1357  0.2188
 2829TIP3   OH229977   3.719   3.999   6.628 -0.8996 -0.1490  0.0637
 2829TIP3    H129978   3.651   4.009   6.694 -1.1145 -0.9943 -0.0288
 2829TIP3    H229979   3.771   4.079   6.635 -1.0183 -0.1608  1.1481
 2830TIP3   OH229980   2.630   0.661  11.451  0.2402 -0.3624 -0.4075
 2830TIP3    H129981   2.677   0.730  11.498  0.4771 -0.7663 -0.0544
 2830TIP3    H229982   2.553   0.705  11.416 -0.2793 -0.2108  0.9015
 2831TIP3   OH229983   0.909   2.305  12.070  0.2571  0.2420 -0.2372
 2831TIP3    H129984   0.984   2.277  12.123 -0.2814  1.6559  1.3075
 2831TIP3    H229985   0.833   2.269  12.115 -0.1814  1.1800 -0.2109
 2832TIP3   OH229986   3.820   4.078  12.549  0.2871 -0.6669 -0.8647
 2832TIP3    H129987   3.792   4.144  12.485  1.6657  0.0870 -0.7158
 2832TIP3    H229988   3.814   4.123  12.633  0.2617 -1.0530 -0.6614
 2833TIP3   OH229989   2.955   2.562  14.526  0.2509  0.2351 -0.4656
 2833TIP3    H129990   3.039   2.576  14.569  1.3673  0.5755 -2.6700
 2833TIP3    H229991   2.951   2.467  14.511 -0.3761  0.0528  0.8502
 2834TIP3   OH229992   3.593   2.942   5.117 -0.5316  0.2477 -0.4725
 2834TIP3    H129993   3.511   2.970   5.157 -0.8482  1.4412 -1.9019
 2834TIP3    H229994   3.626   2.874   5.175 -1.9435  0.5747  0.7489
 2835TIP3   OH229995   2.267   2.889  17.265  0.1983 -0.4520 -0.0041
 2835TIP3    H129996   2.336   2.952  17.286 -0.5195 -0.3342  2.1746
 2835TIP3    H229997   2.296   2.807  17.304 -0.3202 -0.6976 -0.1241
 2836TIP3   OH229998   2.255   3.612   3.219 -0.5514  0.0818 -0.3002
 2836TIP3    H129999   2.252   3.517   3.205 -1.3948 -0.0855  0.9419
 2836TIP3    H230000   2.347   3.635   3.212 -0.3637 -0.7956 -0.7811
 2837TIP3   OH230001   3.523   0.661  12.634 -0.1864  0.4068 -0.0415
 2837TIP3    H130002   3.504   0.579  12.587 -0.5226  1.1223 -1.1627
 2837TIP3    H230003   3.454   0.721  12.607  0.0500  1.0713  0.7982
 2838TIP3   OH230004   2.469   4.304  17.187 -0.0513  0.1243 -0.2700
 2838TIP3    H130005   2.386   4.258  17.199  0.2389 -0.5327 -0.7219
 2838TIP3    H230006   2.449   4.396  17.205 -0.7211 -0.1289  0.2944
 2839TIP3   OH230007   4.697   5.544   5.609 -0.0745 -0.1898  0.4884
 2839TIP3    H130008   4.743   5.555   5.693 -1.5050 -1.1485  1.4216
 2839TIP3    H230009   4.757   5.494   5.555  1.7323  2.1979  0.1993
 2840TIP3   OH230010   0.873   2.456   2.301  0.6089  0.0014 -0.5554
 2840TIP3    H130011   0.906   2.491   2.383 -0.4837  1.4109 -0.6863
 2840TIP3    H230012   0.911   2.513   2.234 -0.5558  0.4739 -0.8330
 2841TIP3   OH230013   5.503   0.471  15.148 -0.2095 -0.2160 -0.1667
 2841TIP3    H130014   5.435   0.415  15.109  0.6889 -1.6388  0.2770
 2841TIP3    H230015   5.456   0.522  15.214 -0.8695 -1.1513  0.1044
 2842TIP3   OH230016   0.439   2.526  14.678 -0.1419 -1.3101 -0.2766
 2842TIP3    H130017   0.408   2.520  14.587  0.3956 -1.0796 -0.4761
 2842TIP3    H230018   0.410   2.612  14.707  1.5479 -0.5023 -0.9349
 2843TIP3   OH230019   4.833   4.071   2.977  0.0464  0.3550 -0.1855
 2843TIP3    H130020   4.823   4.137   3.045  0.8812  0.7575 -0.4400
 2843TIP3    H230021   4.914   4.095   2.932  0.4023 -0.8852 -0.2356
 2844TIP3   OH230022   6.128   0.256   5.877  0.3920 -0.1611  0.1350
 2844TIP3    H130023   6.125   0.164   5.903  0.8614 -0.4377 -0.7589
 2844TIP3    H230024   6.221   0.274   5.862  0.2406  0.2789 -0.2968
 2845TIP3   OH230025   1.387   2.113   6.594 -0.0113 -0.6033 -0.0112
 2845TIP3    H130026   1.464   2.170   6.599 -0.1064 -0.6346  2.1781
 2845TIP3    H230027   1.335   2.137   6.670 -1.3515 -1.7787 -0.5449
 2846TIP3   OH230028   0.295   3.982   0.181  0.1132 -0.4532 -0.7378
 2846TIP3    H130029   0.387   3.969   0.158 -0.2793 -2.1712 -1.3791
 2846TIP3    H230030   0.263   4.047   0.118  0.8204 -0.0071 -0.6458
 2847TIP3   OH230031   1.572   3.969  11.170  0.1424 -0.7353  0.5853
 2847TIP3    H130032   1.538   3.920  11.244 -0.3831  0.2121  0.9797
 2847TIP3    H230033   1.510   3.951  11.098  0.8766 -1.9775  0.2504
 2848TIP3   OH230034   5.456   3.848  12.571  0.5351 -0.1615 -0.3097
 2848TIP3    H130035   5.438   3.941  12.584  0.1485 -0.3548  0.5497
 2848TIP3    H230036   5.454   3.810  12.659 -0.1748 -1.1344 -0.7339
 2849TIP3   OH230037   2.177   5.835  15.552  0.1235  0.2993 -0.5860
 2849TIP3    H130038   2.177   5.911  15.610  0.5916 -0.0445 -0.1278
 2849TIP3    H230039   2.124   5.770  15.597  0.6092 -0.0208 -0.4741
 2850TIP3   OH230040   2.412   4.436  14.135 -0.1242  0.1699 -0.3963
 2850TIP3    H130041   2.365   4.444  14.052 -0.0614  0.2097 -0.4280
 2850TIP3    H230042   2.344   4.438  14.201 -0.1241  0.8435 -0.4088
 2851TIP3   OH230043   2.458   4.588   4.394  0.4791 -0.5113  0.3137
 2851TIP3    H130044   2.365   4.574   4.376  0.1166 -0.4269  2.0247
 2851TIP3    H230045   2.470   4.683   4.387  0.6507 -0.6151 -0.8562
 2852TIP3   OH230046   4.973   2.360  12.311  0.1435 -0.1958 -0.0417
 2852TIP3    H130047   4.901   2.299  12.295 -0.0528 -0.0010  0.0968
 2852TIP3    H230048   5.029   2.352  12.234  1.0116 -1.8172  0.7514
 2853TIP3   OH230049   3.830   6.326  13.246  0.1165  0.7482  0.9496
 2853TIP3    H130050   3.896   6.322  13.316 -0.7594  1.3286  1.8151
 2853TIP3    H230051   3.874   6.370  13.174  0.7217  1.0298  1.4837
 2854TIP3   OH230052   3.590   4.215   1.086  0.1799  0.1615  0.1042
 2854TIP3    H130053   3.609   4.132   1.129  0.2762 -0.8749 -1.8779
 2854TIP3    H230054   3.596   4.196   0.992  1.2404  2.6524 -0.3787
 2855TIP3   OH230055   0.068   6.440   1.553 -0.0345 -0.8306  0.1009
 2855TIP3    H130056  -0.015   6.451   1.508 -0.0216 -0.2931  0.1950
 2855TIP3    H230057   0.078   6.346   1.565 -0.8258 -0.8675  0.4651
 2856TIP3   OH230058   6.500   5.140  15.374 -0.0813  0.0100 -0.4585
 2856TIP3    H130059   6.527   5.120  15.464  0.5957 -0.7341 -0.8299
 2856TIP3    H230060   6.546   5.221  15.352  0.4133 -0.2661 -0.4372
 2857TIP3   OH230061   0.926   0.303  10.419 -0.0689 -0.0575 -0.7199
 2857TIP3    H130062   0.867   0.373  10.391 -0.0786 -0.6266 -2.1580
 2857TIP3    H230063   0.878   0.259  10.490 -0.3651  0.9423 -0.2953
 2858TIP3   OH230064   1.099   3.422  15.252 -0.4167  0.0332 -0.1096
 2858TIP3    H130065   1.011   3.444  15.283 -1.5303  1.3577 -3.9919
 2858TIP3    H230066   1.085   3.372  15.172  2.3431  0.9826 -1.2712
 2859TIP3   OH230067   0.373   6.807   1.260  0.5414  0.0218 -0.3811
 2859TIP3    H130068   0.294   6.860   1.266  0.8246  0.2844  1.0901
 2859TIP3    H230069   0.346   6.720   1.289  0.4497 -0.2621 -1.2979
 2860TIP3   OH230070   1.607   4.448  15.260 -0.4727  0.2921 -0.4552
 2860TIP3    H130071   1.557   4.377  15.300 -2.6965  1.2462 -1.4303
 2860TIP3    H230072   1.577   4.449  15.169  0.4492  1.6794 -0.7521
 2861TIP3   OH230073   1.031   5.272   4.386 -0.4521  0.5169  0.4139
 2861TIP3    H130074   1.044   5.342   4.451  0.5306 -0.3409  1.1657
 2861TIP3    H230075   1.050   5.314   4.302  0.5920  1.0363  0.8971
 2862TIP3   OH230076   4.768   2.712   0.486  0.5481  0.4590  0.5530
 2862TIP3    H130077   4.819   2.643   0.445 -0.7133 -1.1655  1.6060
 2862TIP3    H230078   4.720   2.753   0.414 -0.2411 -1.1307  0.1431
 2863TIP3   OH230079   2.061   3.942  17.289 -0.1085  0.7018  0.4154
 2863TIP3    H130080   2.155   3.957  17.278 -0.0446 -0.2481 -0.3728
 2863TIP3    H230081   2.044   3.858  17.246 -0.8030 -0.5946  3.0904
 2864TIP3   OH230082   5.243   5.594   4.732  0.2351  0.7532  0.0426
 2864TIP3    H130083   5.152   5.623   4.719 -0.4163 -0.3680  1.8204
 2864TIP3    H230084   5.268   5.557   4.648 -0.9825  1.0383 -0.4654
 2865TIP3   OH230085   4.307   2.677  11.476  0.3833 -0.2622  0.5504
 2865TIP3    H130086   4.216   2.681  11.507  0.1270 -1.1480 -0.0545
 2865TIP3    H230087   4.331   2.768  11.460 -0.8107 -0.1062 -0.4403
 2866TIP3   OH230088   6.400   4.746   1.673  0.0183 -0.1400 -0.2427
 2866TIP3    H130089   6.379   4.700   1.755 -2.7184  0.9304 -0.3028
 2866TIP3    H230090   6.318   4.789   1.648  1.1881  0.6447 -2.8552
 2867TIP3   OH230091   3.932   3.341   1.565 -0.3230  0.1811 -0.7492
 2867TIP3    H130092   3.878   3.289   1.505 -1.6005 -0.6080  1.0034
 2867TIP3    H230093   3.977   3.275   1.619 -0.4067  0.8770  0.1842
 2868TIP3   OH230094   0.344   2.961  14.424 -0.1820  0.5029  0.2489
 2868TIP3    H130095   0.377   2.903  14.356 -0.5617  1.0005 -0.3652
 2868TIP3    H230096   0.259   2.991  14.391 -0.5808  0.3821  1.1496
 2869TIP3   OH230097   6.718   1.982  11.906  0.6943 -0.0633  0.4814
 2869TIP3    H130098   6.678   1.896  11.892  0.9400 -0.2853  1.1214
 2869TIP3    H230099   6.661   2.024  11.970 -1.0290  1.3563 -1.8863
 2870TIP3   OH230100   0.092   5.739   3.846 -0.2155  0.2781  0.0416
 2870TIP3    H130101   0.169   5.766   3.896  0.3651  0.9622 -1.2006
 2870TIP3    H230102   0.062   5.819   3.803 -2.2982  0.2658  1.3675
 2871TIP3   OH230103   4.694   4.210  17.022 -0.2352  0.0329 -0.0657
 2871TIP3    H130104   4.669   4.196  16.930  1.9626  1.3635 -0.9169
 2871TIP3    H230105   4.782   4.247  17.017 -0.6616  1.5302  2.5369
 2872TIP3   OH230106   5.318   0.165   5.309 -0.2277  0.6660  0.3356
 2872TIP3    H130107   5.334   0.078   5.273 -2.8814 -0.1850  1.1229
 2872TIP3    H230108   5.404   0.207   5.310  0.8830 -1.5077 -1.1664
 2873TIP3   OH230109   5.004   3.283  13.925 -0.5917  0.1658  0.1633
 2873TIP3    H130110   4.968   3.196  13.943 -0.0482  0.2134  1.5153
 2873TIP3    H230111   5.098   3.271  13.930 -0.4843  0.6087 -0.7503
 2874TIP3   OH230112   2.892   2.497   6.643 -0.3334  0.2588  0.2667
 2874TIP3    H130113   2.928   2.585   6.635 -0.9795  0.6082  1.1330
 2874TIP3    H230114   2.810   2.509   6.690 -1.1066 -0.6486 -0.8143
 2875TIP3   OH230115   0.740   0.120  15.368  0.0668  0.0671  0.4388
 2875TIP3    H130116   0.749   0.174  15.289 -0.5704 -0.1456  0.2173
 2875TIP3    H230117   0.683   0.048  15.341  2.3339 -1.7138  0.2102
 2876TIP3   OH230118   6.113   5.028   3.674  0.0928 -0.3499  0.0566
 2876TIP3    H130119   6.056   4.952   3.659 -0.9128  0.3629  0.1996
 2876TIP3    H230120   6.200   4.998   3.648 -0.2880 -1.5605  0.1260
 2877TIP3   OH230121   3.056   5.978   2.204  1.1130  0.0054 -0.2188
 2877TIP3    H130122   3.021   6.067   2.211 -0.8788 -0.7669 -0.1883
 2877TIP3    H230123   3.094   5.961   2.290 -2.0200 -0.5982  1.1224
 2878TIP3   OH230124   1.779   6.453  13.324 -0.0002 -0.1333  0.0071
 2878TIP3    H130125   1.725   6.396  13.379 -0.7191  0.1992 -0.3373
 2878TIP3    H230126   1.866   6.415  13.328 -0.1853 -0.4921  0.8460
 2879TIP3   OH230127   2.788   3.705   4.842  0.0484 -0.2967 -0.0112
 2879TIP3    H130128   2.791   3.662   4.928  0.6409 -1.5481 -0.6344
 2879TIP3    H230129   2.805   3.797   4.861  0.8351 -0.6588  1.1481
 2880TIP3   OH230130   3.668   5.259   1.465  0.1077 -0.2291 -0.1218
 2880TIP3    H130131   3.614   5.284   1.390 -0.1513  0.9406  0.4453
 2880TIP3    H230132   3.756   5.249   1.428  0.3122  1.9851 -0.3063
 2881TIP3   OH230133   5.744   3.916   6.650  0.5129 -0.0527  0.1722
 2881TIP3    H130134   5.732   3.924   6.744  0.4835 -0.3986  0.1952
 2881TIP3    H230135   5.825   3.963   6.632 -0.9419  2.5107 -0.0088
 2882TIP3   OH230136   0.985   3.130  12.422 -0.1394 -0.2808  0.1968
 2882TIP3    H130137   0.979   3.224  12.407  2.3957  0.4106  3.0247
 2882TIP3    H230138   0.910   3.109  12.477  0.9935  0.6864  2.1287
 2883TIP3   OH230139   3.278   4.332   2.123 -0.1122 -0.7420 -0.1152
 2883TIP3    H130140   3.292   4.401   2.188 -2.4677 -0.6227  0.3166
 2883TIP3    H230141   3.242   4.377   2.047  0.9684 -1.1336 -0.8719
 2884TIP3   OH230142   0.680   0.797  15.858  0.3656  0.1299 -0.4082
 2884TIP3    H130143   0.677   0.886  15.894 -0.4255  0.7929 -2.0402
 2884TIP3    H230144   0.684   0.740  15.935  3.3213  1.6493  0.6268
 2885TIP3   OH230145   3.131   2.977   0.083  0.4403  0.2870  0.0550
 2885TIP3    H130146   3.129   2.951   0.175  0.2874  1.2196  0.3179
 2885TIP3    H230147   3.162   2.899   0.037  0.3631 -0.2342  0.8777
 2886TIP3   OH230148   1.752   1.708   1.128  0.6281  0.0433  0.5438
 2886TIP3    H130149   1.757   1.641   1.060  0.7570 -0.1260  0.7180
 2886TIP3    H230150   1.813   1.776   1.099 -0.7046  0.8420 -0.4512
 2887TIP3   OH230151   3.939   4.245   5.667  0.4323 -0.1606  0.7111
 2887TIP3    H130152   3.857   4.291   5.683  0.9121  1.3092 -0.8282
 2887TIP3    H230153   3.923   4.193   5.589  0.9222  0.0676  0.4522
 2888TIP3   OH230154   4.706   3.362  13.654 -0.4726 -0.2067 -0.1642
 2888TIP3    H130155   4.648   3.391  13.724 -0.2689 -1.0116  0.3507
 2888TIP3    H230156   4.701   3.266  13.657 -0.6213 -0.2504 -1.3834
 2889TIP3   OH230157   6.308   6.648  13.935 -0.1706  0.1005  0.2294
 2889TIP3    H130158   6.354   6.627  13.854  1.3456 -0.0042  1.1131
 2889TIP3    H230159   6.352   6.725  13.969 -2.5246  1.7587 -0.3988
 2890TIP3   OH230160   1.123   5.473  10.768  0.1957  0.1482 -0.0351
 2890TIP3    H130161   1.094   5.492  10.679  0.5772  2.6504  0.3451
 2890TIP3    H230162   1.131   5.377  10.771 -1.0437 -0.0494 -2.2887
 2891TIP3   OH230163   6.163   5.241  15.667  0.0376  0.1464 -0.2654
 2891TIP3    H130164   6.160   5.263  15.574 -0.0446 -1.3285 -0.6315
 2891TIP3    H230165   6.218   5.163  15.671 -3.3821 -2.3753  0.3482
 2892TIP3   OH230166   3.874   0.723  16.856 -0.2605  0.0751  0.4671
 2892TIP3    H130167   3.812   0.753  16.923 -0.0156 -0.2467  0.8410
 2892TIP3    H230168   3.823   0.722  16.775 -1.3742 -2.3613  1.1636
 2893TIP3   OH230169   0.398   4.997  14.070 -0.0280 -0.9686 -0.3137
 2893TIP3    H130170   0.482   5.041  14.084 -0.3571 -0.6925  0.8266
 2893TIP3    H230171   0.338   5.067  14.044 -0.2368 -0.9458  0.2249
 2894TIP3   OH230172   4.073   6.330   6.142  0.1242  0.5568  0.1039
 2894TIP3    H130173   4.004   6.397   6.145  0.5193  0.9891 -0.2990
 2894TIP3    H230174   4.036   6.255   6.188 -0.5031  0.8919  0.1524
 2895TIP3   OH230175   2.682   6.746  12.677 -0.1295 -0.1348 -0.1508
 2895TIP3    H130176   2.756   6.690  12.653 -1.0554 -0.4280 -2.4401
 2895TIP3    H230177   2.722   6.817  12.728  1.4376 -1.3601  0.3796
 2896TIP3   OH230178   4.707   6.263   6.541 -0.6717 -0.4252  0.3908
 2896TIP3    H130179   4.740   6.340   6.494 -1.0799 -0.9389 -0.7739
 2896TIP3    H230180   4.774   6.197   6.529 -0.4516 -0.3433  1.1520
 2897TIP3   OH230181   1.220   3.160  11.383 -0.0205 -0.5788  0.5415
 2897TIP3    H130182   1.129   3.134  11.396 -0.9815  0.2913 -3.8407
 2897TIP3    H230183   1.269   3.078  11.382 -1.0088 -1.1806  0.9502
 2898TIP3   OH230184   2.184   4.744  13.921  0.1264  0.0121 -0.2671
 2898TIP3    H130185   2.134   4.781  13.849  0.4621  1.0301  0.0230
 2898TIP3    H230186   2.223   4.819  13.965  0.0240 -0.6078  0.9082
 2899TIP3   OH230187   3.857   2.345   2.438 -0.4401 -0.1011  0.2448
 2899TIP3    H130188   3.789   2.412   2.444  0.5758  0.9971 -0.2745
 2899TIP3    H230189   3.811   2.266   2.410 -1.2291  1.1112 -2.0124
 2900TIP3   OH230190   4.321   4.035  13.983 -0.1421 -0.0059  0.0082
 2900TIP3    H130191   4.371   4.101  14.030  1.3898 -1.6724  0.7803
 2900TIP3    H230192   4.234   4.073  13.974  0.1810  1.3293  2.0968
 2901TIP3   OH230193   4.978   4.262  11.331 -0.0310 -0.1201  0.7547
 2901TIP3    H130194   4.984   4.343  11.381 -1.2724  0.1417  0.4936
 2901TIP3    H230195   5.064   4.252  11.291  0.2583  0.8541  1.1211
 2902TIP3   OH230196   3.986   4.584   6.414 -0.3104  0.3518  0.3487
 2902TIP3    H130197   4.049   4.526   6.457 -1.5068  0.0652  1.7242
 2902TIP3    H230198   3.917   4.526   6.383 -0.2312  0.7497 -0.5939
 2903TIP3   OH230199   1.972   5.535   0.377 -0.8133  0.5405 -0.3712
 2903TIP3    H130200   1.994   5.497   0.462 -0.1010  1.0598 -0.3166
 2903TIP3    H230201   1.981   5.463   0.315 -0.1756  0.4479 -0.1705
 2904TIP3   OH230202   3.842   1.696  12.092  0.5595 -0.0541 -0.1415
 2904TIP3    H130203   3.891   1.777  12.077  2.0315 -0.9301 -0.1573
 2904TIP3    H230204   3.868   1.667  12.179 -1.1954  0.3121  0.5423
 2905TIP3   OH230205   4.454   1.509   0.026  0.0231 -0.0215  0.1909
 2905TIP3    H130206   4.483   1.505   0.118  0.7624  0.6543 -0.0060
 2905TIP3    H230207   4.440   1.602   0.010 -2.8279 -0.3537  0.4306
 2906TIP3   OH230208   2.342   4.476  15.295  0.3746  0.3563  0.3233
 2906TIP3    H130209   2.255   4.455  15.260  0.2725  0.3106  0.5987
 2906TIP3    H230210   2.371   4.552  15.245  1.2980 -1.2212 -1.5643
 2907TIP3   OH230211   2.814   0.377  17.148  0.3307 -0.4652 -0.0388
 2907TIP3    H130212   2.842   0.341  17.064  0.0047 -1.9599  0.4755
 2907TIP3    H230213   2.859   0.461  17.155 -1.3248  0.7113 -2.7123
 2908TIP3   OH230214   3.705   2.121   4.562  0.5703 -0.2001  0.7589
 2908TIP3    H130215   3.691   2.209   4.526 -1.1042 -1.1936 -1.1037
 2908TIP3    H230216   3.699   2.133   4.657  1.4253  1.8695  0.5761
 2909TIP3   OH230217   2.736   2.784   4.685 -0.4777  0.1889  0.5396
 2909TIP3    H130218   2.643   2.785   4.707 -0.1777  0.2628  1.8769
 2909TIP3    H230219   2.751   2.866   4.638 -1.5287 -0.8491 -1.6566
 2910TIP3   OH230220   3.723   1.420  16.144 -0.0971 -0.3971 -0.0938
 2910TIP3    H130221   3.639   1.441  16.103  0.7774  0.3524 -1.5170
 2910TIP3    H230222   3.750   1.501  16.187 -0.5473 -0.9073  1.1692
 2911TIP3   OH230223   3.596   6.013   0.669 -0.0150 -0.4539  0.1411
 2911TIP3    H130224   3.563   6.089   0.621 -1.1396 -0.3026  1.1482
 2911TIP3    H230225   3.604   5.945   0.602  0.0494  0.2462 -0.5780
 2912TIP3   OH230226   0.687   3.305   6.210 -0.6502  0.0432 -0.5264
 2912TIP3    H130227   0.644   3.302   6.296 -0.5908 -0.6662 -0.5228
 2912TIP3    H230228   0.629   3.255   6.153 -1.6399  2.0318 -1.3286
 2913TIP3   OH230229   2.728   2.327   3.006 -0.1215  0.4971 -0.0683
 2913TIP3    H130230   2.783   2.395   3.045 -0.1787  0.1509  0.6209
 2913TIP3    H230231   2.790   2.269   2.961 -0.0390  0.8051 -0.3525
 2914TIP3   OH230232   0.857   2.637   5.202  0.2691  0.2747 -0.3833
 2914TIP3    H130233   0.789   2.687   5.156  1.2135  0.8653 -1.1486
 2914TIP3    H230234   0.911   2.600   5.132  1.8877  1.4205  0.2190
 2915TIP3   OH230235   5.332   3.090   1.925 -0.3748  0.0400  0.0838
 2915TIP3    H130236   5.326   3.084   1.830 -1.4306  0.0601  0.1408
 2915TIP3    H230237   5.260   3.035   1.957 -1.3185  1.6827  0.8294
 2916TIP3   OH230238   0.398   6.719   1.854 -0.3490 -1.0405 -0.4421
 2916TIP3    H130239   0.491   6.706   1.833 -0.3265  1.4044 -2.1153
 2916TIP3    H230240   0.352   6.658   1.796  0.1855 -1.8707  0.0007
 2917TIP3   OH230241   4.092   2.604   5.035  0.1078  0.5454 -0.3051
 2917TIP3    H130242   4.064   2.638   4.950  2.4628  2.1991 -0.4767
 2917TIP3    H230243   4.093   2.681   5.092 -1.1443 -0.4922  1.1383
 2918TIP3   OH230244   0.626   6.356   2.669  0.4764 -0.2366  0.7750
 2918TIP3    H130245   0.601   6.438   2.627 -1.2369 -0.4647  1.3320
 2918TIP3    H230246   0.667   6.305   2.599  1.9194  1.2145  0.5106
 2919TIP3   OH230247   5.508   0.383  13.772 -0.0651  0.2993 -0.4444
 2919TIP3    H130248   5.553   0.440  13.711 -0.3811 -1.2381 -2.1764
 2919TIP3    H230249   5.555   0.300  13.766  0.0347  0.1984  1.5806
 2920TIP3   OH230250   4.897   1.071  16.943 -0.2346 -0.3979  0.1936
 2920TIP3    H130251   4.893   1.041  17.034 -0.5430  0.5806  0.5121
 2920TIP3    H230252   4.812   1.047  16.906 -1.0740  1.4237  0.8897
 2921TIP3   OH230253   5.512   4.888  13.995 -0.3198  0.6338 -0.2414
 2921TIP3    H130254   5.487   4.952  13.928  1.7894  0.7458 -0.9484
 2921TIP3    H230255   5.569   4.937  14.054 -1.4327  0.2826  1.1440
 2922TIP3   OH230256   1.436   6.143  16.229  0.4558  0.5018  0.0023
 2922TIP3    H130257   1.414   6.093  16.307 -1.3339 -0.7988 -1.2993
 2922TIP3    H230258   1.526   6.118  16.209  0.0583 -1.1370  0.1981
 2923TIP3   OH230259   1.593   1.547  16.820 -0.3719  0.1747 -0.4190
 2923TIP3    H130260   1.512   1.538  16.871 -1.0046  2.1863 -1.0391
 2923TIP3    H230261   1.597   1.640  16.798  1.5285 -0.1241 -1.3719
 2924TIP3   OH230262   2.721   4.473   1.650 -0.3240  0.8270 -0.4652
 2924TIP3    H130263   2.639   4.494   1.605 -0.8409 -0.2053 -0.0085
 2924TIP3    H230264   2.740   4.551   1.702 -1.6601  0.6154  0.3653
 2925TIP3   OH230265   0.406   4.934  12.166 -0.1086  0.2904 -0.2928
 2925TIP3    H130266   0.433   4.867  12.104  1.1916  0.8383 -0.3386
 2925TIP3    H230267   0.485   4.953  12.217 -0.1473  2.5234 -0.9696
 2926TIP3   OH230268   4.006   1.050  15.977 -0.4997 -0.4213 -0.2753
 2926TIP3    H130269   3.980   0.958  15.983 -0.0768 -0.4822  0.6704
 2926TIP3    H230270   4.014   1.079  16.068  0.4305  0.2465 -0.5623
 2927TIP3   OH230271   6.576   3.527   3.182  0.2339  0.0267 -0.2397
 2927TIP3    H130272   6.500   3.559   3.133 -0.4274  0.5043  1.0640
 2927TIP3    H230273   6.541   3.458   3.238  0.9473 -0.3887 -0.3035
 2928TIP3   OH230274   6.685   6.268  11.239 -0.1746 -0.2661 -0.2229
 2928TIP3    H130275   6.710   6.193  11.293 -1.7694 -0.6069  0.0787
 2928TIP3    H230276   6.766   6.295  11.197  0.5901 -1.6389  0.3179
 2929TIP3   OH230277   3.833   2.239  13.962 -0.3337  0.1511  0.7141
 2929TIP3    H130278   3.847   2.272  14.050  0.1851  0.5590  0.4853
 2929TIP3    H230279   3.746   2.270  13.937 -0.5982 -0.2109  1.1891
 2930TIP3   OH230280   4.869   1.196   0.906  0.0696  0.0704 -0.3256
 2930TIP3    H130281   4.796   1.135   0.898 -2.8899  3.4893 -0.8141
 2930TIP3    H230282   4.868   1.222   0.998  0.3841  0.5023 -0.4427
 2931TIP3   OH230283   4.270   5.700  12.467  0.1513  0.2357  0.0255
 2931TIP3    H130284   4.335   5.671  12.403 -1.2539 -2.9095 -0.1089
 2931TIP3    H230285   4.291   5.649  12.546 -1.3884  0.0813  0.3449
 2932TIP3   OH230286   3.951   0.137  14.021  0.0805 -0.1725 -0.5636
 2932TIP3    H130287   3.892   0.199  14.065  0.8867 -0.5430  1.0851
 2932TIP3    H230288   3.896   0.062  14.000 -0.5951  0.5274 -1.3332
 2933TIP3   OH230289   1.883   3.683   5.979 -0.2646 -0.2662 -0.4332
 2933TIP3    H130290   1.808   3.741   5.970  2.3448  3.4800  0.4992
 2933TIP3    H230291   1.912   3.667   5.889 -0.1334  1.1485 -0.6552
 2934TIP3   OH230292   2.506   0.059   1.468 -0.2686 -0.0404 -0.0116
 2934TIP3    H130293   2.569   0.128   1.490  0.0829  0.2645 -1.8461
 2934TIP3    H230294   2.422   0.104   1.463  0.2312  0.6992 -3.0646
 2935TIP3   OH230295   0.582   1.833   0.489  0.0751 -0.4970 -0.0003
 2935TIP3    H130296   0.539   1.856   0.571  0.8848 -0.6451  0.4719
 2935TIP3    H230297   0.659   1.783   0.515 -0.4320 -1.7762 -0.9203
 2936TIP3   OH230298   4.906   6.779  13.990 -0.3917  1.1458 -0.1012
 2936TIP3    H130299   4.828   6.763  13.938 -0.6318 -0.2973  0.6793
 2936TIP3    H230300   4.947   6.856  13.950 -1.4764  1.0774 -1.3452
 2937TIP3   OH230301   5.835   5.736   6.350  0.2909  0.3733 -0.4775
 2937TIP3    H130302   5.754   5.782   6.373  0.2717  0.5170 -0.8272
 2937TIP3    H230303   5.871   5.787   6.277  0.1472 -0.3012 -1.0304
 2938TIP3   OH230304   6.523   3.454  12.167 -1.0163 -0.3103 -0.0304
 2938TIP3    H130305   6.555   3.386  12.108  0.8804 -1.4152  2.2166
 2938TIP3    H230306   6.444   3.417  12.206 -0.2665 -1.0498  0.8094
 2939TIP3   OH230307   6.163   2.343  11.090 -0.1966  0.1001 -0.1343
 2939TIP3    H130308   6.246   2.324  11.047  0.4995 -0.2681  1.3569
 2939TIP3    H230309   6.122   2.257  11.103  0.5547  0.0287  1.8350
 2940TIP3   OH230310   1.943   1.591   1.325 -0.2821 -0.0218  0.5774
 2940TIP3    H130311   1.982   1.645   1.394 -2.0049  0.8121  0.9392
 2940TIP3    H230312   1.860   1.635   1.305 -0.6943 -1.3412 -0.6658
 2941TIP3   OH230313   2.375   4.147  11.016 -0.4540 -0.0263  0.6799
 2941TIP3    H130314   2.320   4.201  11.073 -0.1438  0.3291  0.6476
 2941TIP3    H230315   2.450   4.124  11.071  0.6998  1.7412 -0.0845
 2942TIP3   OH230316   6.260   4.352  14.703  0.2908 -0.3859 -0.0456
 2942TIP3    H130317   6.165   4.360  14.714  0.0571 -0.7568 -1.6480
 2942TIP3    H230318   6.297   4.423  14.755 -0.8731 -0.1506  0.4726
 2943TIP3   OH230319   0.017   0.927   0.578  0.2034  0.1376  0.5984
 2943TIP3    H130320  -0.065   0.907   0.533  0.2193 -1.1342  1.1225
 2943TIP3    H230321  -0.004   1.003   0.633 -0.7595 -0.5042  1.1261
 2944TIP3   OH230322   2.558   5.482   0.324 -0.1474  0.2178 -0.3634
 2944TIP3    H130323   2.601   5.563   0.350  1.2120 -0.2041 -1.2004
 2944TIP3    H230324   2.507   5.506   0.247  0.5804  0.2131 -0.8590
 2945TIP3   OH230325   4.604   3.944  12.025  0.0565 -0.2817  0.0256
 2945TIP3    H130326   4.620   3.894  11.945 -2.2851 -0.6694 -0.2192
 2945TIP3    H230327   4.529   3.901  12.066 -0.4587  1.5388  1.0638
 2946TIP3   OH230328   0.888   0.732   3.962 -0.1937 -0.5651  0.0212
 2946TIP3    H130329   0.983   0.734   3.975 -0.2973  0.4257  0.6354
 2946TIP3    H230330   0.862   0.824   3.959 -1.0555 -0.8307 -0.7745
 2947TIP3   OH230331   6.746   0.138  11.841  0.0063 -0.4614  0.8742
 2947TIP3    H130332   6.755   0.231  11.860 -0.9077 -0.3432  0.7328
 2947TIP3    H230333   6.771   0.129  11.749  2.5616 -0.7467  1.5457
 2948TIP3   OH230334   5.517   1.045   4.177  0.0947  0.0754  0.3629
 2948TIP3    H130335   5.578   1.061   4.105  0.4075 -0.1270  0.5793
 2948TIP3    H230336   5.444   1.105   4.161  0.6658  0.8099  0.4789
 2949TIP3   OH230337   5.231   5.541   2.400  0.5816  0.2152  0.3408
 2949TIP3    H130338   5.197   5.623   2.364 -1.0983 -0.1998  0.9419
 2949TIP3    H230339   5.296   5.569   2.465  0.8264  1.0444 -0.2574
 2950TIP3   OH230340   6.695   4.512   2.556  0.0103  0.4620  0.4236
 2950TIP3    H130341   6.639   4.559   2.618  0.7773  0.5817  1.0214
 2950TIP3    H230342   6.641   4.438   2.528 -0.9614  1.3139 -0.0322
 2951TIP3   OH230343   0.546   3.979  17.157 -0.4721 -0.4082  0.2105
 2951TIP3    H130344   0.626   3.960  17.109 -0.7923 -0.3180 -0.3584
 2951TIP3    H230345   0.528   4.071  17.138 -0.8165 -0.4817  0.1876
 2952TIP3   OH230346   2.034   5.744  12.823  0.5768 -0.7774 -0.7240
 2952TIP3    H130347   1.982   5.770  12.898  0.0134 -0.6474 -1.1569
 2952TIP3    H230348   2.119   5.718  12.860 -0.2169 -2.2460  0.1140
 2953TIP3   OH230349   2.802   0.555  14.824  0.6274  0.1506  0.1881
 2953TIP3    H130350   2.817   0.511  14.740  0.1006  0.0200  0.1587
 2953TIP3    H230351   2.887   0.592  14.848  1.4002 -1.9780  0.8393
 2954TIP3   OH230352   2.148   3.926   0.955 -0.4732  0.4322  0.1368
 2954TIP3    H130353   2.079   3.932   1.021 -0.2851 -0.8927  0.4511
 2954TIP3    H230354   2.105   3.888   0.878 -0.6490  1.7980 -0.4588
 2955TIP3   OH230355   0.616   6.311   1.069 -0.6144  0.5253 -0.1048
 2955TIP3    H130356   0.658   6.344   1.149  0.5304 -0.0262 -0.4607
 2955TIP3    H230357   0.551   6.377   1.047  0.5528  1.7680  0.0861
 2956TIP3   OH230358   4.192   3.840   2.715  0.1264 -0.4409 -0.1064
 2956TIP3    H130359   4.197   3.822   2.809  0.2515 -0.2389 -0.0738
 2956TIP3    H230360   4.274   3.886   2.695 -0.6267  0.9490 -0.0064
 2957TIP3   OH230361   0.236   1.193  11.672 -0.7692  0.5924  0.0129
 2957TIP3    H130362   0.293   1.183  11.596 -1.3058 -0.2071 -0.2898
 2957TIP3    H230363   0.223   1.104  11.705 -1.1346  0.8584  0.6018
 2958TIP3   OH230364   4.264   6.188   2.520 -0.1322 -0.2719 -0.1048
 2958TIP3    H130365   4.249   6.262   2.578 -0.8786 -1.0962  0.7779
 2958TIP3    H230366   4.186   6.183   2.465 -1.5251 -2.2735  1.9485
 2959TIP3   OH230367   0.519   3.799   5.753 -0.9537  0.0342  0.4067
 2959TIP3    H130368   0.592   3.808   5.692  0.6634  1.2037  2.4303
 2959TIP3    H230369   0.467   3.726   5.718  0.0310  0.5227 -2.1958
 2960TIP3   OH230370   6.726   0.237  13.724  0.8418  0.6996  0.4046
 2960TIP3    H130371   6.673   0.184  13.784  0.8062  1.5333  1.1073
 2960TIP3    H230372   6.784   0.288  13.780  2.5281 -0.3137 -0.3690
 2961TIP3   OH230373   0.121   3.674  17.224  0.1219 -0.9413 -0.1274
 2961TIP3    H130374   0.171   3.749  17.190 -0.2352 -0.1818  1.0081
 2961TIP3    H230375   0.182   3.601  17.217  1.3881 -0.0406  1.1348
 2962TIP3   OH230376   0.594   6.033   2.101  0.3295  0.0348 -0.0512
 2962TIP3    H130377   0.558   6.118   2.079 -1.2516 -0.3329  1.0333
 2962TIP3    H230378   0.687   6.048   2.113  0.3572  1.2376 -1.7233
 2963TIP3   OH230379   4.747   3.242  16.015  0.0296  0.2767 -0.2662
 2963TIP3    H130380   4.685   3.313  16.033 -1.3718 -1.3775  1.7193
 2963TIP3    H230381   4.692   3.165  16.003  1.5999 -0.7290 -1.1235
 2964TIP3   OH230382   4.916   6.392   4.273 -0.3121 -0.2401 -0.2196
 2964TIP3    H130383   4.929   6.449   4.349  0.7800 -0.5214 -0.1856
 2964TIP3    H230384   4.934   6.448   4.198  2.1365 -0.8615 -0.1466
 2965TIP3   OH230385   5.510   5.424  14.590  0.1999 -0.1817  0.0176
 2965TIP3    H130386   5.544   5.380  14.512 -1.5852  0.1572 -0.9987
 2965TIP3    H230387   5.425   5.382  14.605 -0.0169  0.6073  1.0472
 2966TIP3   OH230388   3.699   1.579   1.786  0.0114 -0.6216 -0.2247
 2966TIP3    H130389   3.735   1.509   1.731 -0.9640 -0.9598 -0.4470
 2966TIP3    H230390   3.605   1.563   1.786  0.0264 -0.8503  1.8719
 2967TIP3   OH230391   4.921   1.939   0.277  0.5364 -0.2998 -0.2752
 2967TIP3    H130392   4.990   1.897   0.226 -0.0935 -2.7946  0.8754
 2967TIP3    H230393   4.841   1.894   0.251 -0.1677  0.2040  0.9789
 2968TIP3   OH230394   3.269   0.599   1.363  0.0459 -0.5160  0.2192
 2968TIP3    H130395   3.257   0.644   1.446 -1.3798  1.5727 -1.1083
 2968TIP3    H230396   3.272   0.506   1.387 -0.1043  0.0672  2.6103
 2969TIP3   OH230397   3.207   3.686  12.086  0.2642 -0.0220  0.0607
 2969TIP3    H130398   3.157   3.738  12.149  0.1233 -1.9987  1.6276
 2969TIP3    H230399   3.285   3.659  12.135  0.5859 -0.8458 -0.9015
 2970TIP3   OH230400   3.818   0.569   5.580 -0.0501  0.6846 -0.1443
 2970TIP3    H130401   3.735   0.522   5.573  0.0223  0.7304 -1.5105
 2970TIP3    H230402   3.882   0.511   5.539 -0.1050  2.2719 -2.6175
 2971TIP3   OH230403   4.564   3.517  12.970  0.0229  0.1359  0.5086
 2971TIP3    H130404   4.633   3.551  12.914 -1.1704 -0.7470 -1.5730
 2971TIP3    H230405   4.531   3.593  13.017  0.5406  1.0264 -0.5493
 2972TIP3   OH230406   0.515   4.244  15.585  0.4989  0.3028  0.1255
 2972TIP3    H130407   0.454   4.183  15.544  0.5054  1.0093 -0.9296
 2972TIP3    H230408   0.482   4.331  15.564  1.2819  0.6872  0.4322
 2973TIP3   OH230409   0.199   3.662   1.519  0.8119 -0.3370  0.1499
 2973TIP3    H130410   0.104   3.672   1.528  0.6393 -0.4391 -1.4040
 2973TIP3    H230411   0.229   3.636   1.606 -0.5996 -0.4133  0.6261
 2974TIP3   OH230412   4.323   5.305  12.127 -0.3237 -0.1932 -0.2820
 2974TIP3    H130413   4.288   5.324  12.214  1.0881 -0.3673  0.3531
 2974TIP3    H230414   4.366   5.386  12.101  2.5321 -1.2705  0.8483
 2975TIP3   OH230415   0.353   3.370   3.985 -0.4386  0.0460  0.0981
 2975TIP3    H130416   0.345   3.466   3.990 -1.5239  0.0574 -1.4507
 2975TIP3    H230417   0.448   3.354   3.979 -0.3180  1.1602 -1.5154
 2976TIP3   OH230418   2.712   0.286   1.448  0.4711 -0.3497 -0.2032
 2976TIP3    H130419   2.762   0.321   1.522 -0.8027 -0.5908  0.7836
 2976TIP3    H230420   2.634   0.341   1.443  0.9791  0.2481 -1.9613
 2977TIP3   OH230421   3.002   0.733  14.834 -0.1638  0.3485  0.2173
 2977TIP3    H130422   3.071   0.672  14.807  0.4964  0.9172  0.6146
 2977TIP3    H230423   3.048   0.816  14.849 -1.2458  1.2805 -1.5537
 2978TIP3   OH230424   0.445   4.491  12.489  0.5263  0.4985 -0.4604
 2978TIP3    H130425   0.518   4.495  12.551 -0.8068  1.6696  1.0734
 2978TIP3    H230426   0.475   4.541  12.413  0.6623  2.4988  0.8768
 2979TIP3   OH230427   4.900   6.426  14.344 -0.1655 -0.1738  0.0033
 2979TIP3    H130428   4.824   6.477  14.373 -1.0187 -0.7707 -1.1367
 2979TIP3    H230429   4.918   6.459  14.256 -0.2024 -1.2530 -0.4127
 2980TIP3   OH230430   1.671   0.190  15.776  0.0908 -0.3877  0.5565
 2980TIP3    H130431   1.763   0.162  15.772 -0.2978 -1.8257  1.2026
 2980TIP3    H230432   1.623   0.121  15.729 -0.4415  1.5057 -1.7753
 2981TIP3   OH230433   3.014   0.791   1.512 -0.3867  0.0755  0.1432
 2981TIP3    H130434   3.045   0.864   1.458 -1.4225  0.0214 -0.5349
 2981TIP3    H230435   3.080   0.783   1.581 -0.6377  2.1334  0.6576
 2982TIP3   OH230436   0.030   2.517  15.028  0.0583 -0.1275  0.4318
 2982TIP3    H130437   0.078   2.600  15.027  1.8654 -1.0604 -4.3994
 2982TIP3    H230438   0.086   2.456  15.075  0.8222  0.3069  0.0910
 2983TIP3   OH230439   5.888   1.664   0.520 -0.0622 -0.9240  0.3632
 2983TIP3    H130440   5.845   1.748   0.504 -0.7384 -1.4611 -0.6861
 2983TIP3    H230441   5.824   1.599   0.493  0.8162 -1.7667  0.2971
 2984TIP3   OH230442   1.365   5.418  15.930  0.2737 -0.1355 -0.2338
 2984TIP3    H130443   1.420   5.421  16.007 -1.1500 -1.5006  0.8670
 2984TIP3    H230444   1.283   5.461  15.956  0.9527  2.3465 -2.0012
 2985TIP3   OH230445   2.539   5.741   0.859 -0.4581 -0.8360  0.1186
 2985TIP3    H130446   2.492   5.797   0.797  0.1213  0.0412  0.4606
 2985TIP3    H230447   2.539   5.790   0.941  0.8112 -0.9202  0.1910
 2986TIP3   OH230448   4.046   2.754  14.642  0.1109 -0.0115  0.8362
 2986TIP3    H130449   4.024   2.733  14.551  0.2267  3.4845 -0.0679
 2986TIP3    H230450   4.137   2.727  14.652 -0.2958 -1.6352  0.3536
 2987TIP3   OH230451   2.630   0.414  10.557 -0.2229 -0.8070 -0.1026
 2987TIP3    H130452   2.710   0.435  10.605 -0.7161  1.1550 -0.0802
 2987TIP3    H230453   2.568   0.386  10.624 -0.2523 -0.1369  0.1490
 2988TIP3   OH230454   0.083   5.170  16.530 -0.2287  1.4451 -0.0859
 2988TIP3    H130455   0.033   5.248  16.507  0.6122  1.8316 -0.6121
 2988TIP3    H230456   0.081   5.168  16.626  0.1995  2.4093 -0.0508
 2989TIP3   OH230457   1.940   3.928   4.829  0.4168  0.0042  0.1396
 2989TIP3    H130458   1.999   3.990   4.872 -1.2748  1.5971  0.2287
 2989TIP3    H230459   1.959   3.938   4.736 -0.3132  1.2069  0.0966
 2990TIP3   OH230460   5.068   2.524  15.896  0.2150  0.0709  0.3290
 2990TIP3    H130461   4.990   2.534  15.950 -1.3783  1.0373 -2.0475
 2990TIP3    H230462   5.061   2.593  15.830  0.9322 -2.3518 -2.4150
 2991TIP3   OH230463   6.567   3.719   3.408  0.2778 -1.0250 -0.1230
 2991TIP3    H130464   6.612   3.793   3.366  1.0978 -1.2635  0.3342
 2991TIP3    H230465   6.562   3.652   3.340  0.7687 -1.0592 -0.1281
 2992TIP3   OH230466   1.674   5.957   4.960  0.6949  0.1031  0.1587
 2992TIP3    H130467   1.728   5.881   4.984 -0.1693 -0.9147 -0.9947
 2992TIP3    H230468   1.589   5.919   4.939 -0.0788  1.5430  0.6624
 2993TIP3   OH230469   2.394   5.205  11.905 -0.0976  0.2466  0.1295
 2993TIP3    H130470   2.469   5.160  11.945 -1.6356 -2.3678  0.2260
 2993TIP3    H230471   2.319   5.179  11.960 -1.2566  1.7974 -0.6968
 2994TIP3   OH230472   0.063   6.468   5.278  0.5794  0.2117  0.0517
 2994TIP3    H130473   0.040   6.382   5.243  0.8449  0.4053 -0.5923
 2994TIP3    H230474   0.096   6.450   5.366 -0.4632 -0.2358  0.3616
 2995TIP3   OH230475   0.039   0.547   5.765 -0.9426  0.0051  0.0022
 2995TIP3    H130476   0.091   0.531   5.844  0.0933  0.8849 -0.4871
 2995TIP3    H230477   0.054   0.640   5.745  0.1470 -0.5964 -2.1650
 2996TIP3   OH230478   6.786   5.804  15.196 -0.6803  0.0137  0.0966
 2996TIP3    H130479   6.864   5.751  15.206 -0.9783 -0.6415 -0.9339
 2996TIP3    H230480   6.797   5.876  15.257  0.9120  0.1456 -0.3313
 2997TIP3   OH230481   3.662   4.490  14.031 -0.1164 -0.0269 -0.8588
 2997TIP3    H130482   3.600   4.456  14.095  0.9638 -2.2240 -0.9267
 2997TIP3    H230483   3.610   4.507  13.953 -0.7161 -1.3581 -0.7501
 2998TIP3   OH230484   2.012   1.709  14.767  0.4075 -0.0453  0.3320
 2998TIP3    H130485   1.981   1.713  14.857  1.7584 -0.3536  0.8263
 2998TIP3    H230486   1.942   1.665  14.719 -0.9295  1.4090  0.9509
 2999TIP3   OH230487   6.808   0.635   2.053  0.5644  0.3693 -0.3018
 2999TIP3    H130488   6.737   0.581   2.088  1.4671 -1.1275 -0.7215
 2999TIP3    H230489   6.787   0.644   1.960  1.2118 -0.5765 -0.5509
 3000TIP3   OH230490   6.141   4.631   4.484 -0.2422  0.4754 -0.0922
 3000TIP3    H130491   6.145   4.596   4.394  0.4098  1.9565 -0.6452
 3000TIP3    H230492   6.219   4.595   4.526 -0.5543 -0.2348 -0.1076
 3001TIP3   OH230493   2.016   2.650   0.323  0.0571 -0.1755 -0.3267
 3001TIP3    H130494   1.997   2.666   0.230  1.2966  0.7565 -0.4320
 3001TIP3    H230495   1.991   2.731   0.367 -0.2668 -0.5159  0.1222
 3002TIP3   OH230496   3.817   3.258   3.302  0.6356 -0.7111 -0.2321
 3002TIP3    H130497   3.904   3.264   3.342 -0.0232  0.1353  1.1220
 3002TIP3    H230498   3.824   3.186   3.238  2.2207 -0.8682  0.1078
 3003TIP3   OH230499   5.863   3.575  11.276 -0.4284  0.4411 -0.1560
 3003TIP3    H130500   5.771   3.591  11.298 -0.2958 -0.6158  1.2336
 3003TIP3    H230501   5.913   3.626  11.340 -0.0434  0.4551 -0.4633
 3004TIP3   OH230502   0.636   3.067  11.596 -0.2477  0.1776  0.0404
 3004TIP3    H130503   0.608   2.989  11.549  0.5647  1.1489 -2.1290
 3004TIP3    H230504   0.554   3.108  11.625 -0.7178 -0.9201  0.2880
 3005TIP3   OH230505   2.207   5.723   4.340 -0.0638  0.1167 -0.0351
 3005TIP3    H130506   2.142   5.755   4.277 -1.4833 -0.4026  1.1672
 3005TIP3    H230507   2.166   5.733   4.425  2.0648  1.3213  0.8987
 3006TIP3   OH230508   5.619   5.299   1.395 -0.4191  0.1968 -0.5130
 3006TIP3    H130509   5.673   5.236   1.347 -0.9942  0.9305 -2.1540
 3006TIP3    H230510   5.607   5.372   1.334 -1.4572  0.9928  0.6216
 3007TIP3   OH230511   6.692   1.346  12.711  1.0259 -0.4626  0.2745
 3007TIP3    H130512   6.622   1.393  12.666  1.2279  0.6344  1.0859
 3007TIP3    H230513   6.743   1.415  12.753  1.1111 -1.4382  1.7853
 3008TIP3   OH230514   5.653   4.561   2.835 -0.3553  0.2240  0.3316
 3008TIP3    H130515   5.632   4.634   2.776 -0.6364  0.2413  0.4506
 3008TIP3    H230516   5.657   4.601   2.922  2.2306  0.5953  0.0634
 3009TIP3   OH230517   2.302   6.343   2.212  0.2092  0.0669 -0.7821
 3009TIP3    H130518   2.235   6.309   2.153  0.2003  0.4226 -0.9716
 3009TIP3    H230519   2.376   6.283   2.201 -1.0235 -1.9730  1.4268
 3010TIP3   OH230520   1.377   0.848   1.229  0.4120 -0.2034  0.5110
 3010TIP3    H130521   1.393   0.940   1.209  1.9997 -0.8076 -1.1132
 3010TIP3    H230522   1.418   0.835   1.315  0.1906  0.5994  0.7400
 3011TIP3   OH230523   3.398   0.937   1.163 -0.5958 -0.2208 -0.4851
 3011TIP3    H130524   3.438   0.864   1.116 -1.3340 -1.2904  0.5185
 3011TIP3    H230525   3.414   0.918   1.256 -2.2033  0.0550 -0.1381
 3012TIP3   OH230526   6.779   4.726   5.605  0.2690 -0.0538  0.6168
 3012TIP3    H130527   6.811   4.652   5.553  3.8214  1.8437 -0.0344
 3012TIP3    H230528   6.739   4.685   5.682 -0.1592 -2.7004 -0.9160
 3013TIP3   OH230529   3.147   1.933  17.119  0.4351 -0.4587 -0.4314
 3013TIP3    H130530   3.075   1.951  17.179 -0.4419  2.2015 -2.1893
 3013TIP3    H230531   3.112   1.868  17.058 -0.2984  0.4023 -0.9347
 3014TIP3   OH230532   2.134   3.854  11.315 -0.5933  0.1111 -0.5153
 3014TIP3    H130533   2.043   3.872  11.339 -0.6577  1.5091 -1.7639
 3014TIP3    H230534   2.184   3.925  11.353 -0.1974  0.1310 -1.0733
 3015TIP3   OH230535   1.003   1.469   0.626 -0.0047 -0.1060 -0.2341
 3015TIP3    H130536   1.050   1.410   0.568  0.8937  0.6487 -0.2735
 3015TIP3    H230537   0.981   1.415   0.702  1.3906 -0.3126  0.0228
 3016TIP3   OH230538   2.348   0.291   3.295 -0.8320  0.1487  0.1395
 3016TIP3    H130539   2.337   0.208   3.340 -1.0955 -0.6588 -1.3849
 3016TIP3    H230540   2.387   0.349   3.361  1.2154 -1.7238  0.6551
 3017TIP3   OH230541   6.200   4.375   0.352 -0.2625  0.2021 -0.1246
 3017TIP3    H130542   6.237   4.343   0.434  0.3103 -1.5588 -1.0667
 3017TIP3    H230543   6.253   4.336   0.284 -0.2699  2.2427 -1.3542
 3018TIP3   OH230544   4.246   0.645   6.051 -0.0509  0.1659  0.0122
 3018TIP3    H130545   4.274   0.721   6.001  2.1246 -0.6017  0.0250
 3018TIP3    H230546   4.191   0.596   5.991  2.6760 -0.8372 -1.7537
 3019TIP3   OH230547   4.993   1.136   4.887  0.2832 -0.3064  0.2186
 3019TIP3    H130548   5.012   1.117   4.978  0.0724  0.3302  0.3983
 3019TIP3    H230549   5.027   1.224   4.872 -0.2431 -0.1567 -0.1422
 3020TIP3   OH230550   1.187   3.479  13.269 -0.2154  0.2424 -0.0631
 3020TIP3    H130551   1.217   3.396  13.304  1.2345  1.0481  0.6594
 3020TIP3    H230552   1.265   3.535  13.270 -1.1994  1.6475 -0.3853
 3021TIP3   OH230553   5.062   2.167   1.318 -0.0170 -0.1901  0.6738
 3021TIP3    H130554   5.013   2.171   1.236 -1.8203  0.0202  1.7276
 3021TIP3    H230555   5.057   2.076   1.346  0.2828 -0.1911  0.7264
 3022TIP3   OH230556   6.505   2.576  15.958 -0.0291 -0.4597  0.0183
 3022TIP3    H130557   6.431   2.631  15.984 -0.4384 -0.3945 -1.2448
 3022TIP3    H230558   6.497   2.568  15.863  2.9072  1.4388 -0.4696
 3023TIP3   OH230559   4.310   0.598   1.476  0.4440 -0.6215  0.2200
 3023TIP3    H130560   4.329   0.671   1.418 -0.4430 -1.1767 -0.7666
 3023TIP3    H230561   4.268   0.638   1.552  1.4924  0.0859  0.4362
 3024TIP3   OH230562   4.586   3.072   4.526  1.1590  0.4674 -0.2413
 3024TIP3    H130563   4.593   3.066   4.431  2.4692 -0.4815 -0.0912
 3024TIP3    H230564   4.650   3.138   4.552 -1.4897  3.1631 -0.2915
 3025TIP3   OH230565   2.911   2.665  15.284  0.5372  0.0763 -0.1849
 3025TIP3    H130566   3.002   2.665  15.313  0.2455  1.7422  0.7895
 3025TIP3    H230567   2.860   2.657  15.365 -0.2165  1.3674 -0.5237
 3026TIP3   OH230568   6.062   2.536   2.043  0.1117  0.1672  0.4175
 3026TIP3    H130569   6.129   2.476   2.008  1.0288  1.5750 -0.2665
 3026TIP3    H230570   5.997   2.478   2.083  2.0566 -1.2168  1.6633
 3027TIP3   OH230571   1.480   1.175   0.835  0.4872  0.3606  0.9041
 3027TIP3    H130572   1.468   1.173   0.930  2.0613 -2.4601  1.1052
 3027TIP3    H230573   1.573   1.195   0.823  0.4250  0.1407 -0.0125
 3028TIP3   OH230574   0.406   2.705  13.325  0.3520  0.3001 -0.6437
 3028TIP3    H130575   0.367   2.654  13.396  1.3893  0.1540 -0.1645
 3028TIP3    H230576   0.359   2.678  13.247 -1.2084  0.8879  0.0719
 3029TIP3   OH230577   5.566   2.104   4.715  0.0276 -0.6065 -0.4126
 3029TIP3    H130578   5.535   2.119   4.804 -0.0102 -1.1775 -0.3289
 3029TIP3    H230579   5.657   2.133   4.716 -0.0992 -0.2144 -0.2999
 3030TIP3   OH230580   0.011   5.932   3.243  0.4960 -0.0975  0.0520
 3030TIP3    H130581  -0.053   5.971   3.302  0.8252 -0.6247  0.7629
 3030TIP3    H230582  -0.036   5.859   3.202  0.0593  0.6774 -0.8459
 3031TIP3   OH230583   2.449   4.791   2.494  0.1415  0.5138  0.7507
 3031TIP3    H130584   2.434   4.775   2.401  0.9915  0.7211  0.5722
 3031TIP3    H230585   2.362   4.787   2.533 -0.3798  1.6924 -0.2437
 3032TIP3   OH230586   2.209   4.808  15.427  0.1475  0.0111  0.3000
 3032TIP3    H130587   2.222   4.890  15.379  0.6965 -0.0106  0.4130
 3032TIP3    H230588   2.268   4.814  15.503  0.1389 -0.4556  0.3479
 3033TIP3   OH230589   3.880   5.340  14.712 -0.4665 -0.3839 -0.7633
 3033TIP3    H130590   3.941   5.266  14.719 -0.6160 -0.6245 -1.8496
 3033TIP3    H230591   3.931   5.408  14.667 -0.1458  0.3930  0.7300
 3034TIP3   OH230592   5.877   0.368  13.872 -0.0486 -0.4934 -0.0342
 3034TIP3    H130593   5.958   0.418  13.861  0.0557 -0.6373  0.0563
 3034TIP3    H230594   5.893   0.317  13.952 -0.7182  0.4127  0.6893
 3035TIP3   OH230595   0.218   4.696  11.391 -0.5068 -0.5446  0.3144
 3035TIP3    H130596   0.306   4.661  11.376 -0.3088  0.3419 -0.7290
 3035TIP3    H230597   0.200   4.747  11.312 -1.8837 -0.5614  0.6148
 3036TIP3   OH230598   4.409   1.656   4.831 -0.1517 -0.0709  0.6499
 3036TIP3    H130599   4.392   1.573   4.877  1.2988 -1.0512 -0.5241
 3036TIP3    H230600   4.469   1.632   4.760 -0.7507  1.7607 -0.5210
 3037TIP3   OH230601   0.411   3.513   0.030 -0.0296 -0.0808 -0.5840
 3037TIP3    H130602   0.384   3.593  -0.015  0.6556 -0.5790 -1.8925
 3037TIP3    H230603   0.473   3.542   0.096  0.4800  0.4295 -1.2837
 3038TIP3   OH230604   5.678   1.098   3.962 -0.9165  0.0154 -0.7016
 3038TIP3    H130605   5.712   1.126   3.877 -0.1389  0.5335 -0.2188
 3038TIP3    H230606   5.728   1.020   3.984  0.7194  1.3642  0.4921
 3039TIP3   OH230607   0.441   6.566  10.485  0.3206 -0.0498 -0.6106
 3039TIP3    H130608   0.453   6.648  10.437 -0.0753  0.0765 -0.4933
 3039TIP3    H230609   0.530   6.531  10.496  0.6623  1.2131  0.8289
 3040TIP3   OH230610   4.434   2.653  15.191 -0.2712  0.0715  0.3354
 3040TIP3    H130611   4.357   2.685  15.239  0.5562  2.0473  0.4016
 3040TIP3    H230612   4.433   2.702  15.109  1.1633  0.4454  0.5348
 3041TIP3   OH230613   1.646   0.004  16.911 -0.4360  0.4841  0.2499
 3041TIP3    H130614   1.705   0.070  16.873  0.6567 -0.7611 -0.2723
 3041TIP3    H230615   1.679  -0.008  17.000  0.1698 -0.3025 -0.0821
 3042TIP3   OH230616   6.700   2.040   3.402 -0.2580  0.2038 -1.1419
 3042TIP3    H130617   6.623   2.018   3.455  1.4092 -2.3758  0.3493
 3042TIP3    H230618   6.727   2.126   3.434  0.3056 -1.0126  1.8162
 3043TIP3   OH230619   6.537   0.534  15.941  0.2048  0.6491  0.0866
 3043TIP3    H130620   6.454   0.502  15.975 -0.0942  0.4915 -0.7679
 3043TIP3    H230621   6.516   0.618  15.901  0.3626  0.4011 -0.5258
 3044TIP3   OH230622   1.842   2.125  14.897  0.4685 -0.0874 -0.0600
 3044TIP3    H130623   1.864   2.032  14.889 -1.3612 -0.6300  0.8788
 3044TIP3    H230624   1.923   2.171  14.874  1.5831 -1.9221  0.0765
 3045TIP3   OH230625   4.581   4.352  13.264 -0.1614 -0.1806  0.8395
 3045TIP3    H130626   4.491   4.369  13.239 -0.1360 -2.6080 -0.9819
 3045TIP3    H230627   4.618   4.439  13.281 -2.1922  0.9848 -0.5896
 3046TIP3   OH230628   5.466   1.495  10.651 -0.1660 -0.3024 -0.1195
 3046TIP3    H130629   5.396   1.468  10.711  1.6175 -1.4464  1.5065
 3046TIP3    H230630   5.534   1.531  10.709 -0.0654  2.3634 -1.7985
 3047TIP3   OH230631   4.028   5.938   4.884  0.2948 -0.1245 -0.4433
 3047TIP3    H130632   3.958   5.937   4.950  0.8412 -0.3609  0.1408
 3047TIP3    H230633   4.028   6.027   4.850 -0.0083 -0.0068 -0.1345
 3048TIP3   OH230634   3.779   3.040   0.616  0.6201 -0.6189  0.1617
 3048TIP3    H130635   3.860   2.996   0.642 -0.0696 -2.8894 -1.3618
 3048TIP3    H230636   3.807   3.112   0.560  1.5587 -2.0831 -1.3038
 3049TIP3   OH230637   3.702   5.692  15.794  0.7722 -0.5211  0.2435
 3049TIP3    H130638   3.722   5.600  15.812 -0.5916 -0.5670  1.6652
 3049TIP3    H230639   3.635   5.715  15.858  0.3792  1.1930 -0.7366
 3050TIP3   OH230640   4.771   0.719   2.032 -0.6727 -0.2330 -0.3836
 3050TIP3    H130641   4.826   0.701   1.956  0.1893 -0.5489  0.2948
 3050TIP3    H230642   4.695   0.764   1.997  1.2483  2.6536 -1.0767
 3051TIP3   OH230643   6.022   5.715  14.038  0.2081  0.1370 -0.0612
 3051TIP3    H130644   6.082   5.652  14.080 -0.9646 -1.3222 -0.5275
 3051TIP3    H230645   5.993   5.670  13.959 -0.9017  1.1618 -0.2430
 3052TIP3   OH230646   5.306   4.087   0.967 -0.1201 -0.2134 -0.0020
 3052TIP3    H130647   5.270   3.999   0.958  1.1533 -0.5259 -2.8295
 3052TIP3    H230648   5.379   4.089   0.904  1.2496  2.1556  1.5929
 3053TIP3   OH230649   4.126   0.033  11.251  0.1154 -0.5208 -0.4508
 3053TIP3    H130650   4.197   0.038  11.186  1.1611  0.1815  0.7153
 3053TIP3    H230651   4.049   0.067  11.205  1.3919  2.3606 -0.5702
 3054TIP3   OH230652   6.228   0.758   1.431  0.5446  0.2472 -0.2740
 3054TIP3    H130653   6.144   0.718   1.411  0.9305  0.5588 -2.6971
 3054TIP3    H230654   6.207   0.850   1.449  0.2545  0.0907  0.1999
 3055TIP3   OH230655   3.144   6.006  16.996 -0.1485  0.1508  0.1905
 3055TIP3    H130656   3.233   5.983  17.021 -0.0195  0.0974 -0.3179
 3055TIP3    H230657   3.112   5.928  16.950 -0.0685  0.5991 -0.6202
 3056TIP3   OH230658   2.276   4.430  16.417  0.0216 -0.6558  0.7198
 3056TIP3    H130659   2.318   4.488  16.480  2.5558 -1.7941  0.1322
 3056TIP3    H230660   2.188   4.417  16.451 -0.1460  2.4089  1.5772
 3057TIP3   OH230661   2.621   0.118   3.952 -0.2888  0.2158 -0.2739
 3057TIP3    H130662   2.707   0.160   3.951 -0.3533  0.3348 -1.0981
 3057TIP3    H230663   2.637   0.029   3.922 -0.2194 -0.2451  1.0764
 3058TIP3   OH230664   3.893   3.228   0.430 -0.2372 -0.3724 -0.3046
 3058TIP3    H130665   3.854   3.168   0.366 -1.5360  0.5313 -0.3857
 3058TIP3    H230666   3.917   3.305   0.379 -1.9351  0.6482  0.3768
 3059TIP3   OH230667   5.065   5.285   0.900 -0.0351 -0.8584  0.1829
 3059TIP3    H130668   5.050   5.234   0.820  0.1100  1.6192 -1.4912
 3059TIP3    H230669   5.160   5.287   0.909  0.1374  1.7628 -1.6107
 3060TIP3   OH230670   3.600   0.350  15.000 -0.3291 -0.1396 -0.3404
 3060TIP3    H130671   3.619   0.387  15.086 -2.2780 -0.0654  0.0684
 3060TIP3    H230672   3.606   0.256  15.013 -3.1882 -0.2527  0.5491
 3061TIP3   OH230673   6.445   5.555  12.986 -0.0611  0.1953 -0.0654
 3061TIP3    H130674   6.487   5.576  12.903 -0.8648  2.3349  0.0573
 3061TIP3    H230675   6.405   5.469  12.970  2.5563 -0.9725 -0.8106
 3062TIP3   OH230676   2.245   3.683  10.662 -0.4613 -0.4855 -0.2351
 3062TIP3    H130677   2.307   3.684  10.588  0.5627 -0.4806  0.6064
 3062TIP3    H230678   2.159   3.692  10.621  0.1860  1.0002 -1.3193
 3063TIP3   OH230679   4.927   4.000   6.020  0.2152 -0.3248  0.5429
 3063TIP3    H130680   4.854   3.939   6.003 -0.6049  1.2444 -1.8591
 3063TIP3    H230681   5.005   3.945   6.016 -0.7705 -1.9623  2.7158
 3064TIP3   OH230682   0.327   6.118  15.676  0.2360  0.3311 -0.0995
 3064TIP3    H130683   0.319   6.208  15.705 -0.9794  0.3791 -0.5758
 3064TIP3    H230684   0.420   6.098  15.686  0.7390  2.0205 -1.1131
 3065TIP3   OH230685   5.917   6.172   3.046  0.1072 -0.2636 -0.2508
 3065TIP3    H130686   5.842   6.230   3.060 -0.0046 -0.1873 -1.1123
 3065TIP3    H230687   5.937   6.181   2.953  0.9698 -0.5520 -0.1039
 3066TIP3   OH230688   0.071   4.374   2.346 -0.4835  0.6172 -0.1760
 3066TIP3    H130689   0.167   4.376   2.350 -0.4898 -0.4964  0.7470
 3066TIP3    H230690   0.045   4.319   2.420 -1.7761 -0.1961 -1.2109
 3067TIP3   OH230691   4.640   4.297  12.983 -0.7229 -0.0179  0.0313
 3067TIP3    H130692   4.688   4.371  12.945  1.0244 -1.3633 -0.4238
 3067TIP3    H230693   4.655   4.304  13.077  0.2219 -0.3039 -0.0884
 3068TIP3   OH230694   4.157   1.094   2.289 -0.7803 -0.0760  0.5263
 3068TIP3    H130695   4.190   1.004   2.282 -0.4064  0.2004 -1.5731
 3068TIP3    H230696   4.234   1.146   2.313 -0.0827  0.2509 -2.2507
 3069TIP3   OH230697   5.166   6.697   0.601 -0.2399 -0.1170 -0.0235
 3069TIP3    H130698   5.223   6.694   0.525 -0.6142 -0.2077 -0.3050
 3069TIP3    H230699   5.215   6.748   0.666  0.3297 -0.5497 -0.1122
 3070TIP3   OH230700   5.075   5.061  12.916  0.0296  0.3109 -0.2064
 3070TIP3    H130701   5.091   5.014  12.834 -1.9243  0.3291 -0.6076
 3070TIP3    H230702   5.061   5.152  12.889  0.3862  0.5036  0.2520
 3071TIP3   OH230703   3.236   3.344  15.836 -0.6073 -0.7021 -0.2476
 3071TIP3    H130704   3.151   3.311  15.864 -0.3845 -0.2737  0.9886
 3071TIP3    H230705   3.273   3.273  15.783 -0.9817 -1.6248  0.7152
 3072TIP3   OH230706   0.940   1.469  12.602  0.0014 -0.1747 -0.1506
 3072TIP3    H130707   0.847   1.445  12.608 -0.1503  0.2769 -0.6858
 3072TIP3    H230708   0.986   1.391  12.632 -0.4865 -1.2593 -2.1022
 3073TIP3   OH230709   1.799   5.448  15.438 -0.3235 -0.1109  0.0150
 3073TIP3    H130710   1.771   5.539  15.432 -1.2788 -0.4183 -0.3842
 3073TIP3    H230711   1.725   5.398  15.402  0.2266 -1.0318  0.1445
 3074TIP3   OH230712   1.987   4.042   1.906 -0.0643 -0.1167  0.3643
 3074TIP3    H130713   1.962   3.953   1.881 -0.6159  0.3246 -0.7107
 3074TIP3    H230714   2.066   4.059   1.855  1.8991 -1.1428  2.9917
 3075TIP3   OH230715   0.033   6.051  13.189 -0.4172  0.1360  0.1339
 3075TIP3    H130716   0.126   6.057  13.168 -0.0258  1.2118  2.0183
 3075TIP3    H230717  -0.009   6.025  13.107  1.7368 -2.1847 -0.2984
 3076TIP3   OH230718   4.116   4.314  13.707  0.4049 -0.0263  0.4059
 3076TIP3    H130719   4.181   4.299  13.638  0.1771 -0.4560  0.2847
 3076TIP3    H230720   4.097   4.407  13.701  1.4039  0.2154  0.7948
 3077TIP3   OH230721   3.399   2.662   0.420  0.1447 -0.0935 -0.6639
 3077TIP3    H130722   3.390   2.690   0.329 -2.2694  0.4800 -0.2819
 3077TIP3    H230723   3.351   2.729   0.471  4.3087  1.5121  1.3915
 3078TIP3   OH230724   1.141   5.754   3.834  0.6654  0.1961  0.4089
 3078TIP3    H130725   1.233   5.727   3.835  0.7505  0.5159  1.3956
 3078TIP3    H230726   1.093   5.678   3.867  0.2979 -0.9179 -2.5119
 3079TIP3   OH230727   0.346   2.632  15.131 -0.1363  0.4287  0.1307
 3079TIP3    H130728   0.436   2.624  15.099 -1.3196 -1.3322 -3.0913
 3079TIP3    H230729   0.303   2.690  15.068 -1.5746  0.1776  0.8545
 3080TIP3   OH230730   3.693   6.540   1.523  0.5291  0.4596 -0.1089
 3080TIP3    H130731   3.760   6.539   1.455 -0.4329  2.9324 -1.1462
 3080TIP3    H230732   3.610   6.542   1.475 -0.2316 -0.0952  1.1555
 3081TIP3   OH230733   2.607   4.620   2.696  0.3488  0.6336 -0.6394
 3081TIP3    H130734   2.540   4.656   2.639 -0.8090  0.4025  0.5465
 3081TIP3    H230735   2.588   4.657   2.782 -0.2329 -1.9404  0.3944
 3082TIP3   OH230736   1.598   1.600  16.079  0.4455 -0.1216 -0.4497
 3082TIP3    H130737   1.622   1.521  16.128  2.0013  0.2734 -0.5549
 3082TIP3    H230738   1.652   1.669  16.117 -0.2142  0.7084 -1.0078
 3083TIP3   OH230739   2.835   4.312   5.820 -0.1212 -0.0664 -0.7509
 3083TIP3    H130740   2.799   4.401   5.816  1.0380  0.5527  1.4215
 3083TIP3    H230741   2.763   4.259   5.855 -0.5460  0.1858 -1.2347
 3084TIP3   OH230742   3.431   5.552  12.374  0.1009  0.1893 -0.5008
 3084TIP3    H130743   3.487   5.495  12.427 -1.2694 -0.5039  0.2264
 3084TIP3    H230744   3.429   5.635  12.422 -1.4707 -0.5631  0.8002
 3085TIP3   OH230745   2.133   5.571  15.360  0.1963  0.0300 -0.2359
 3085TIP3    H130746   2.173   5.553  15.445 -0.3109 -1.1450 -0.2438
 3085TIP3    H230747   2.192   5.530  15.296  0.5334  0.8374 -0.4493
 3086TIP3   OH230748   2.531   2.051   2.295 -0.6145 -0.5937 -0.3812
 3086TIP3    H130749   2.539   2.146   2.285  0.8343 -0.8608 -2.0048
 3086TIP3    H230750   2.572   2.015   2.217 -0.6699 -2.5790  0.4666
 3087TIP3   OH230751   2.511   3.793  15.195  0.2195 -0.2777 -0.3355
 3087TIP3    H130752   2.597   3.788  15.152  0.5072  0.0588  0.1878
 3087TIP3    H230753   2.531   3.792  15.289 -0.3491 -0.2166 -0.2115
 3088TIP3   OH230754   2.353   6.310  16.400 -0.5485 -0.0468 -0.0986
 3088TIP3    H130755   2.333   6.380  16.338 -0.7389 -0.6697 -0.7514
 3088TIP3    H230756   2.338   6.349  16.486 -2.0473  0.2940 -0.4879
 3089TIP3   OH230757   1.258   2.463  16.512 -0.5164 -0.0267  0.4954
 3089TIP3    H130758   1.257   2.554  16.482 -0.6380  0.3240  1.5378
 3089TIP3    H230759   1.271   2.470  16.607  1.5373 -1.1577  0.3373
 3090TIP3   OH230760   6.710   2.698  10.964  0.4306  0.3904 -0.4888
 3090TIP3    H130761   6.667   2.628  10.915 -0.7331 -0.6872  2.0092
 3090TIP3    H230762   6.759   2.654  11.032 -1.0564  1.9922  1.7139
 3091TIP3   OH230763   1.425   5.065   1.544 -0.7741  0.1029 -0.3438
 3091TIP3    H130764   1.440   4.986   1.596  0.2722  1.3686  1.3207
 3091TIP3    H230765   1.330   5.065   1.527 -1.0387 -0.6114  1.0915
 3092TIP3   OH230766   2.798   6.634  13.004 -0.0995 -0.6433 -0.3370
 3092TIP3    H130767   2.755   6.587  13.075  1.1938  0.5696  1.2954
 3092TIP3    H230768   2.843   6.565  12.954  0.4329 -1.3309  1.0627
 3093TIP3   OH230769   0.036   3.814   2.888 -0.9778  0.2858 -0.3485
 3093TIP3    H130770   0.120   3.851   2.860 -1.5133  1.9971  0.2254
 3093TIP3    H230771   0.034   3.727   2.849  0.1625  1.0074 -2.1043
 3094TIP3   OH230772   3.021   6.704  10.438 -0.2681  0.7190 -0.1822
 3094TIP3    H130773   3.002   6.737  10.350 -1.5288 -0.9101 -0.5449
 3094TIP3    H230774   2.968   6.758  10.496  0.0059  1.3127 -0.4726
 3095TIP3   OH230775   1.299   0.580   3.479 -0.2585 -0.0086  0.4539
 3095TIP3    H130776   1.227   0.644   3.484  0.6993  0.9175  3.5032
 3095TIP3    H230777   1.259   0.502   3.441 -1.8411  1.8512 -1.8737
 3096TIP3   OH230778   6.737   4.804   3.262  0.3139  0.2410 -0.5011
 3096TIP3    H130779   6.814   4.846   3.224  0.2470  0.0550 -0.8404
 3096TIP3    H230780   6.711   4.738   3.198 -0.4743  0.6938 -0.6550
 3097TIP3   OH230781   1.427   5.860  15.056  0.0794  0.6003 -0.5005
 3097TIP3    H130782   1.358   5.831  14.996  0.5339 -0.5586 -0.4769
 3097TIP3    H230783   1.506   5.815  15.025  0.5774  0.9807  0.2042
 3098TIP3   OH230784   5.668   5.012  14.208  0.6141 -0.4280 -0.0448
 3098TIP3    H130785   5.758   5.014  14.175  1.5412  0.0862  2.3982
 3098TIP3    H230786   5.667   4.941  14.272 -0.9169 -0.8859 -0.5520
 3099TIP3   OH230787   3.604   5.872  11.595 -0.1502  0.2628  0.1312
 3099TIP3    H130788   3.532   5.809  11.589 -0.5808  0.7450  0.1701
 3099TIP3    H230789   3.674   5.834  11.541 -0.6908  0.1388 -0.4854
 3100TIP3   OH230790   2.240   6.489  12.742 -0.1319 -0.1498  0.0599
 3100TIP3    H130791   2.334   6.475  12.737 -0.0278  0.9109 -1.2261
 3100TIP3    H230792   2.230   6.575  12.782 -0.5202  0.2300 -0.8339
 3101TIP3   OH230793   0.833   4.157   0.475 -0.5209  0.5413  0.1867
 3101TIP3    H130794   0.866   4.115   0.555 -0.4322  0.7917  0.2828
 3101TIP3    H230795   0.828   4.250   0.497  1.6720  0.9283 -0.8104
 3102TIP3   OH230796   4.839   6.306   5.097  0.5516 -0.1268  0.2643
 3102TIP3    H130797   4.825   6.211   5.103  0.4969 -0.3135 -2.2806
 3102TIP3    H230798   4.774   6.344   5.155 -0.4739 -1.5948  0.1038
 3103TIP3   OH230799   6.764   3.780   5.533  0.3135  0.1265  0.3085
 3103TIP3    H130800   6.817   3.810   5.606 -0.1549  1.4642  0.1031
 3103TIP3    H230801   6.751   3.686   5.550  3.2836 -0.3692 -0.0109
 3104TIP3   OH230802   2.456   2.707  13.385  0.6174  0.0719  0.1175
 3104TIP3    H130803   2.552   2.700  13.376  0.7166  1.5567 -0.0102
 3104TIP3    H230804   2.426   2.732  13.298  0.0494 -0.8344  0.0429
 3105TIP3   OH230805   4.996   4.051  12.115 -0.2594  0.5598 -0.0064
 3105TIP3    H130806   5.029   4.100  12.039  3.0208 -0.9307  0.3534
 3105TIP3    H230807   5.074   4.033  12.167 -1.8358 -2.2825  1.4941
 3106TIP3   OH230808   6.300   0.554  15.574 -0.3497 -0.6456  0.1271
 3106TIP3    H130809   6.370   0.489  15.575  1.4039  1.1712 -0.1311
 3106TIP3    H230810   6.346   0.637  15.562 -2.6577  0.4841 -1.1517
 3107TIP3   OH230811   6.263   3.221   4.908  0.1000 -0.2618  0.8359
 3107TIP3    H130812   6.301   3.150   4.960  3.5812 -0.2491 -1.4868
 3107TIP3    H230813   6.272   3.299   4.962 -1.7980 -1.1796  2.5422
 3108TIP3   OH230814   5.885   0.432   2.182 -0.1993  0.3812 -0.3789
 3108TIP3    H130815   5.869   0.356   2.126 -0.2622  0.4105 -0.4010
 3108TIP3    H230816   5.803   0.444   2.231 -0.2325  0.5093 -0.4651
 3109TIP3   OH230817   3.715   0.900  15.001  0.4254  0.3894 -1.3231
 3109TIP3    H130818   3.722   0.979  15.055  0.0796 -0.3898 -0.0989
 3109TIP3    H230819   3.622   0.891  14.982  0.2353 -0.6173 -0.0381
 3110TIP3   OH230820   5.106   5.548  17.198 -0.2628  0.4362 -0.3147
 3110TIP3    H130821   5.068   5.635  17.209 -0.5005  0.3693 -0.6046
 3110TIP3    H230822   5.031   5.490  17.184 -0.1866  0.0121  0.9671
 3111TIP3   OH230823   4.776   1.763   2.336 -0.0571 -0.5610 -0.4648
 3111TIP3    H130824   4.865   1.728   2.343 -0.7962 -2.8982 -2.2128
 3111TIP3    H230825   4.723   1.688   2.310 -2.9030  0.3608  2.3907
 3112TIP3   OH230826   1.926   3.778   4.339  0.0334 -0.2528 -1.2655
 3112TIP3    H130827   2.004   3.800   4.288 -0.2071 -1.3239 -2.1178
 3112TIP3    H230828   1.928   3.683   4.347  0.7455 -0.0342  1.8887
 3113TIP3   OH230829   0.290   3.002  13.001 -0.0499 -1.1384  0.2996
 3113TIP3    H130830   0.230   2.938  13.041  1.0222 -1.6199  1.1549
 3113TIP3    H230831   0.375   2.958  13.002  0.4594 -0.1685 -0.2370
 3114TIP3   OH230832   4.421   1.272  14.640 -0.6469 -0.3748 -0.4725
 3114TIP3    H130833   4.452   1.261  14.550 -1.2848 -0.2478 -0.7118
 3114TIP3    H230834   4.465   1.352  14.671 -0.4444 -0.4061 -0.6760
 3115TIP3   OH230835   3.820   6.261  12.342 -0.8879 -0.4737 -0.0733
 3115TIP3    H130836   3.912   6.260  12.315 -0.7240 -0.1121  0.4662
 3115TIP3    H230837   3.784   6.339  12.301 -0.3512  0.7134  1.6912
 3116TIP3   OH230838   4.979   3.206  11.662 -0.5367 -0.2591  0.0851
 3116TIP3    H130839   4.969   3.115  11.692  0.5518 -0.5515 -0.3960
 3116TIP3    H230840   4.890   3.234  11.639 -0.6272 -1.9203 -1.7603
 3117TIP3   OH230841   4.416   4.864  11.694  0.0353  0.2729 -0.5428
 3117TIP3    H130842   4.324   4.842  11.679  0.9723 -2.1975 -3.1144
 3117TIP3    H230843   4.445   4.902  11.612  1.2410  1.3525  0.3779
 3118TIP3   OH230844   2.946   4.646  11.949 -0.1750 -0.3711  0.1254
 3118TIP3    H130845   2.991   4.725  11.978  0.7414 -0.6335 -0.5275
 3118TIP3    H230846   2.931   4.596  12.029  0.8747 -0.3599  0.3424
 3119TIP3   OH230847   1.870   1.351   0.650  0.1564  0.0338  0.0322
 3119TIP3    H130848   1.860   1.257   0.662  0.6093  0.0391  0.4639
 3119TIP3    H230849   1.956   1.372   0.689 -0.7855  0.9302  1.6938
 3120TIP3   OH230850   2.204   1.322   2.915  0.0268 -0.2814  0.6852
 3120TIP3    H130851   2.165   1.271   2.986 -1.2367 -3.1142 -1.9185
 3120TIP3    H230852   2.182   1.413   2.935 -0.7699 -1.0637  3.5903
 3121TIP3   OH230853   6.672   6.166   1.458 -0.9783  0.2627 -0.3655
 3121TIP3    H130854   6.681   6.079   1.498  2.0252  1.1772  1.0680
 3121TIP3    H230855   6.697   6.152   1.367  0.4676 -0.2026  0.0893
 3122TIP3   OH230856   5.581   5.974   2.236 -0.1254 -0.5861  0.2114
 3122TIP3    H130857   5.528   6.005   2.310 -0.5792  3.3698 -1.6148
 3122TIP3    H230858   5.657   6.033   2.235 -0.2217 -0.4643 -2.5597
 3123TIP3   OH230859   3.858   1.369   4.412  0.2135 -0.0450  0.1147
 3123TIP3    H130860   3.822   1.282   4.395  0.7790 -0.3322  0.3959
 3123TIP3    H230861   3.794   1.411   4.469  1.3564 -1.3177  2.3734
 3124TIP3   OH230862   2.421   1.514  14.178 -0.3034  0.2014  0.5512
 3124TIP3    H130863   2.471   1.585  14.219  0.9334 -0.3135 -0.0523
 3124TIP3    H230864   2.461   1.503  14.092 -1.0996 -0.6096  0.2751
 3125TIP3   OH230865   5.853   5.629   5.068 -0.0977 -0.3153  0.2582
 3125TIP3    H130866   5.788   5.688   5.106 -1.6218 -2.6474  1.3965
 3125TIP3    H230867   5.822   5.615   4.978  0.3122  0.6137 -0.0430
 3126TIP3   OH230868   2.354   3.888  11.873  0.3332  0.5957 -0.2638
 3126TIP3    H130869   2.302   3.808  11.875  2.5717 -0.9302 -1.0086
 3126TIP3    H230870   2.307   3.946  11.813 -0.8234 -0.4848 -0.4224
 3127TIP3   OH230871   0.109   6.454  11.724 -0.4374  0.5169 -0.0894
 3127TIP3    H130872   0.082   6.449  11.816  1.5914 -3.8800  0.3926
 3127TIP3    H230873   0.034   6.419  11.676 -0.4298  0.1897  0.1351
 3128TIP3   OH230874   1.042   3.050   3.348  0.3144 -0.1358  0.0926
 3128TIP3    H130875   1.094   3.018   3.422  0.6259 -2.7027 -1.1784
 3128TIP3    H230876   1.048   2.981   3.282 -0.8209  1.6218 -1.9513
 3129TIP3   OH230877   1.298   2.518   2.782 -0.1395 -0.2929  0.2125
 3129TIP3    H130878   1.285   2.427   2.807  1.3130 -0.0429  2.0528
 3129TIP3    H230879   1.386   2.520   2.745 -0.2476  0.3275 -0.0127
 3130TIP3   OH230880   5.277   2.827  14.412 -0.0119  0.0607 -0.5811
 3130TIP3    H130881   5.342   2.840  14.343  0.8800 -0.4052  0.1664
 3130TIP3    H230882   5.199   2.796  14.366  1.3369 -2.6667 -1.1313
 3131TIP3   OH230883   1.723   1.911  10.650 -0.3353 -0.2809 -0.9406
 3131TIP3    H130884   1.734   2.005  10.643  0.4364 -0.4212 -1.6059
 3131TIP3    H230885   1.770   1.887  10.730 -0.8723 -0.0607 -0.5454
 3132TIP3   OH230886   2.894   4.205   6.394  0.2251  0.7441  0.1656
 3132TIP3    H130887   2.940   4.269   6.448  1.3517 -1.1974  1.5850
 3132TIP3    H230888   2.819   4.177   6.447 -0.2739  0.8979 -0.4510
 3133TIP3   OH230889   0.475   0.488  11.125 -0.0788  0.1131 -0.0898
 3133TIP3    H130890   0.537   0.556  11.099  0.8358  0.2441  2.2889
 3133TIP3    H230891   0.509   0.408  11.084  1.7286  0.1779  1.2131
 3134TIP3   OH230892   1.868   3.208  14.136  0.4387  0.0534 -0.2309
 3134TIP3    H130893   1.886   3.196  14.230 -1.0137  0.8635  0.1687
 3134TIP3    H230894   1.943   3.258  14.104  0.4261  0.7047  0.7268
 3135TIP3   OH230895   5.172   3.706  14.326 -0.1234  0.1146  0.2201
 3135TIP3    H130896   5.179   3.711  14.231  0.8207  1.3074  0.3418
 3135TIP3    H230897   5.208   3.620  14.348  0.1632  0.0538 -0.4655
 3136TIP3   OH230898   3.360   6.648   1.224  0.0899  0.5103 -0.1247
 3136TIP3    H130899   3.364   6.569   1.170 -0.8028  0.2722  0.1472
 3136TIP3    H230900   3.310   6.711   1.172  0.4675  0.7708 -0.1777
 3137TIP3   OH230901   3.743   3.073   1.666 -0.0154 -0.0254 -0.0780
 3137TIP3    H130902   3.828   3.033   1.651  0.4844  1.3477 -0.8908
 3137TIP3    H230903   3.680   3.003   1.648  0.8665 -0.5077 -1.2905
 3138TIP3   OH230904   4.848   4.699  12.804 -0.1651 -0.2349  0.0537
 3138TIP3    H130905   4.783   4.746  12.856 -0.3025  0.6675 -0.9106
 3138TIP3    H230906   4.799   4.667  12.728  0.2169 -0.8017  0.0367
 3139TIP3   OH230907   4.084   2.808  12.218  0.1510 -0.1253 -0.3732
 3139TIP3    H130908   4.133   2.728  12.234  0.5930  0.2850  0.3338
 3139TIP3    H230909   4.092   2.822  12.124  1.4688 -0.0084 -0.2452
 3140TIP3   OH230910   1.063   5.504   1.044 -0.0767 -0.7574 -0.2301
 3140TIP3    H130911   1.014   5.431   1.081  1.8148 -1.4103  1.1017
 3140TIP3    H230912   1.096   5.471   0.960 -0.2026 -1.0373 -0.1693
 3141TIP3   OH230913   2.623   1.716  12.871  0.1109 -0.7301  0.6909
 3141TIP3    H130914   2.696   1.778  12.871 -0.5342  0.0649 -1.6686
 3141TIP3    H230915   2.545   1.770  12.875 -0.4240 -1.4946  0.8368
 3142TIP3   OH230916   1.881   6.313  15.746 -0.2132 -0.4152 -0.6808
 3142TIP3    H130917   1.929   6.246  15.696 -0.8690 -0.4021 -1.3288
 3142TIP3    H230918   1.839   6.264  15.817  0.7101 -0.4363 -0.1393
 3143TIP3   OH230919   2.061   5.444  13.630  0.5234  0.3285  0.2043
 3143TIP3    H130920   2.089   5.503  13.560 -0.0376  1.7122  1.1239
 3143TIP3    H230921   2.128   5.451  13.697  0.4155 -0.0276  0.3531
 3144TIP3   OH230922   2.061   5.220  11.831  0.4575 -0.3534  0.7180
 3144TIP3    H130923   2.071   5.286  11.900 -2.2253 -0.1170  0.9504
 3144TIP3    H230924   1.990   5.254  11.776  0.4411 -2.0646 -0.3302
 3145TIP3   OH230925   0.498   6.219   3.031  0.3813 -0.6021 -0.0615
 3145TIP3    H130926   0.524   6.287   3.093 -1.0487  0.9585 -1.1028
 3145TIP3    H230927   0.477   6.143   3.085 -0.0308  0.4598  1.3077
 3146TIP3   OH230928   2.118   1.658   2.600  0.3695  0.3201  0.3119
 3146TIP3    H130929   2.117   1.565   2.578  0.8332  0.4359 -0.2376
 3146TIP3    H230930   2.210   1.677   2.620  0.4147  0.8218 -0.3265
 3147TIP3   OH230931   0.126   1.725   0.935 -0.8225  0.8277 -0.2733
 3147TIP3    H130932   0.041   1.715   0.978 -0.2836 -1.6926  0.2847
 3147TIP3    H230933   0.190   1.702   1.002  0.3591  2.9944 -0.6052
 3148TIP3   OH230934   0.647   5.762  13.736 -0.1224  0.1184 -0.1477
 3148TIP3    H130935   0.682   5.789  13.652 -0.6938 -0.3282 -0.5344
 3148TIP3    H230936   0.553   5.779  13.730 -0.3724 -1.1650 -0.1068
 3149TIP3   OH230937   2.254   4.705   0.671 -0.6337  0.5284  0.1297
 3149TIP3    H130938   2.232   4.754   0.592 -0.5641  0.1508 -0.1290
 3149TIP3    H230939   2.177   4.649   0.686 -0.5142  0.3673  0.1446
 3150TIP3   OH230940   6.076   0.648   5.498  0.2813  0.4408  0.4912
 3150TIP3    H130941   6.133   0.725   5.504  1.0989 -0.1837  0.7850
 3150TIP3    H230942   6.136   0.574   5.498 -0.4254 -0.1476 -1.1859
 3151TIP3   OH230943   3.643   0.058   3.478 -0.8597  0.1059  0.8031
 3151TIP3    H130944   3.677  -0.031   3.464 -0.2076  0.5320 -0.3219
 3151TIP3    H230945   3.709   0.100   3.533 -0.3820  0.4012  0.0066
 3152TIP3   OH230946   5.596   3.345   2.326  1.1175 -0.2582 -0.3522
 3152TIP3    H130947   5.580   3.392   2.244  0.4725  0.8832  0.4082
 3152TIP3    H230948   5.578   3.254   2.305 -0.8044  0.2551 -1.0447
 3153TIP3   OH230949   5.581   5.179  16.059 -0.4644  0.0170 -0.5838
 3153TIP3    H130950   5.493   5.215  16.070 -1.1441 -1.6890 -0.3440
 3153TIP3    H230951   5.624   5.196  16.143 -0.6461  0.5971 -0.6008
 3154TIP3   OH230952   2.997   4.476  15.958 -0.2225 -0.2215 -0.5505
 3154TIP3    H130953   3.048   4.504  16.034  1.1209 -0.9926 -1.1463
 3154TIP3    H230954   2.917   4.529  15.962  0.7123  1.1824  0.2767
 3155TIP3   OH230955   6.095   4.563   2.859  0.2981  0.4038  0.2098
 3155TIP3    H130956   6.132   4.477   2.877  0.5535  0.2621 -0.9777
 3155TIP3    H230957   6.009   4.561   2.901  0.3955 -0.3409  0.3826
 3156TIP3   OH230958   6.188   6.012  11.239  0.4262  0.4089  0.0592
 3156TIP3    H130959   6.122   6.053  11.183  0.1391  1.4756  1.1450
 3156TIP3    H230960   6.185   5.919  11.216  0.1260  0.7819 -1.4850
 3157TIP3   OH230961   5.642   0.354  14.373 -0.0449 -0.3222  0.9615
 3157TIP3    H130962   5.583   0.395  14.437 -1.3190 -1.4445  0.5165
 3157TIP3    H230963   5.610   0.385  14.288 -0.3460 -1.3622  0.6889
 3158TIP3   OH230964   6.753   6.536   0.200  0.2027 -0.0596 -0.1173
 3158TIP3    H130965   6.702   6.575   0.271  1.5619  0.2793  0.6774
 3158TIP3    H230966   6.703   6.557   0.120 -0.9522  0.1706  0.6530
 3159TIP3   OH230967   3.560   3.536   2.324 -0.0152 -0.0450 -0.2126
 3159TIP3    H130968   3.556   3.443   2.304 -0.6881 -0.0916  0.0980
 3159TIP3    H230969   3.583   3.578   2.241 -0.4516 -0.4277 -0.5295
 3160TIP3   OH230970   0.753   2.629   3.139 -0.1765 -0.8128 -0.2030
 3160TIP3    H130971   0.725   2.539   3.157  0.3712 -0.8300  0.5832
 3160TIP3    H230972   0.711   2.651   3.056 -1.3057 -1.3638  0.2131
 3161TIP3   OH230973   2.216   4.794  11.465  0.4246 -0.5457 -0.3194
 3161TIP3    H130974   2.254   4.847  11.535 -1.1841 -1.4048  1.2397
 3161TIP3    H230975   2.141   4.845  11.435  0.2445 -0.8585 -0.4025
 3162TIP3   OH230976   2.301   0.413  12.571  0.0981  0.0618 -0.2526
 3162TIP3    H130977   2.341   0.353  12.508  0.7835 -1.8515  1.9222
 3162TIP3    H230978   2.210   0.384  12.577 -0.0765  0.5117 -0.6332
 3163TIP3   OH230979   2.667   5.479   3.297  0.1912 -0.3660  0.1788
 3163TIP3    H130980   2.604   5.477   3.369  0.2016 -0.5358  0.1834
 3163TIP3    H230981   2.718   5.558   3.312  0.2971 -0.4849  0.4492
 3164TIP3   OH230982   4.605   2.235   1.274  0.4590  0.3251  0.2631
 3164TIP3    H130983   4.641   2.312   1.319 -1.4293  1.6704 -0.4210
 3164TIP3    H230984   4.596   2.264   1.183 -1.0462 -0.4163  0.1622
 3165TIP3   OH230985   3.660   0.638   4.845  0.7076 -0.2409  0.0415
 3165TIP3    H130986   3.568   0.662   4.830  1.1464  1.3299 -0.2127
 3165TIP3    H230987   3.686   0.592   4.765  0.4593  0.2925 -0.3494
 3166TIP3   OH230988   2.783   6.320   2.698  0.0378  0.0205  0.1242
 3166TIP3    H130989   2.839   6.382   2.745  1.7875 -1.9710  0.7745
 3166TIP3    H230990   2.744   6.372   2.628 -1.3258  2.6505  2.7383
 3167TIP3   OH230991   1.969   1.500  11.976  0.5848  0.2655 -0.3924
 3167TIP3    H130992   1.917   1.420  11.968 -0.0531  0.6511 -0.1518
 3167TIP3    H230993   1.974   1.534  11.887 -0.2950  0.6674 -0.3001
 3168TIP3   OH230994   2.294   4.732  14.221  0.1783 -0.0029 -0.4296
 3168TIP3    H130995   2.272   4.671  14.292  0.3061 -0.9629 -1.2085
 3168TIP3    H230996   2.217   4.788  14.213  0.0872 -0.0126  0.3368
 3169TIP3   OH230997   4.852   1.746   4.934 -0.0188 -0.0313  0.4124
 3169TIP3    H130998   4.872   1.652   4.929 -0.0448  0.0452 -1.7988
 3169TIP3    H230999   4.925   1.787   4.886 -1.2274  0.8725 -0.6788
 3170TIP3   OH231000   0.921   0.971  13.285  0.7939  0.5881  0.3904
 3170TIP3    H131001   0.868   0.967  13.205  0.5938  2.3620  0.4142
 3170TIP3    H231002   0.916   0.883  13.322  1.5424 -0.4815 -1.9608
 3171TIP3   OH231003   0.435   0.278  15.101 -0.1372  0.3225 -0.0574
 3171TIP3    H131004   0.421   0.308  15.011 -0.9849 -0.1616 -0.0957
 3171TIP3    H231005   0.356   0.227  15.121  0.4128 -0.2403  0.6792
 3172TIP3   OH231006   0.180   4.637   3.523  0.6767 -0.1517 -0.1151
 3172TIP3    H131007   0.091   4.615   3.550  0.2019 -0.0206 -1.5013
 3172TIP3    H231008   0.209   4.561   3.472  0.5954  0.6480 -1.3706
 3173TIP3   OH231009   6.453   3.942  14.146  0.0667 -0.4027 -0.3041
 3173TIP3    H131010   6.385   3.929  14.211 -0.5265  1.1418 -0.5840
 3173TIP3    H231011   6.472   4.036  14.150 -0.1212 -0.2449 -2.4717
 3174TIP3   OH231012   0.992   3.611   2.150 -0.4617  0.3804 -0.2837
 3174TIP3    H131013   1.084   3.586   2.162 -0.5704 -0.0219 -0.3110
 3174TIP3    H231014   0.991   3.705   2.172 -0.1250  0.2904  0.1406
 3175TIP3   OH231015   1.130   5.468   0.396 -0.3380  0.0791  0.5473
 3175TIP3    H131016   1.188   5.432   0.329 -0.7018  1.6096 -0.6244
 3175TIP3    H231017   1.125   5.399   0.462 -0.0781 -1.5295 -1.0534
 3176TIP3   OH231018   0.547   0.644  12.502 -0.1165  0.1420  0.9767
 3176TIP3    H131019   0.555   0.640  12.598 -2.2892  1.3934  1.2402
 3176TIP3    H231020   0.636   0.630  12.470  0.8948  1.1336  3.2430
 3177TIP3   OH231021   4.440   4.928   3.035  0.0518  0.7859 -0.2890
 3177TIP3    H131022   4.513   4.875   3.003 -0.0680  0.3738  0.1171
 3177TIP3    H231023   4.447   5.010   2.986  0.6615  0.6703 -0.4010
 3178TIP3   OH231024   3.528   2.436   6.334  0.2963  0.9201 -0.0962
 3178TIP3    H131025   3.454   2.390   6.294 -0.2120  1.8882 -0.2960
 3178TIP3    H231026   3.586   2.367   6.365  0.0088  0.1603 -1.2521
 3179TIP3   OH231027   2.133   5.691   1.583  0.1529 -0.3984 -0.4140
 3179TIP3    H131028   2.163   5.782   1.579  1.2472 -0.7841 -1.5594
 3179TIP3    H231029   2.132   5.671   1.677  1.1723  0.3989 -0.2097
 3180TIP3   OH231030   3.088   5.855  15.021  0.4732  0.3599 -0.0797
 3180TIP3    H131031   3.179   5.884  15.022  1.0037 -1.2569 -0.0339
 3180TIP3    H231032   3.056   5.880  14.934  0.8532  1.2268  0.0221
 3181TIP3   OH231033   0.680   5.037  14.144  0.3277 -0.0542 -0.1103
 3181TIP3    H131034   0.741   4.995  14.204  0.6900 -0.9087 -1.0536
 3181TIP3    H231035   0.701   5.130  14.149  1.3567 -0.2857 -0.0313
 3182TIP3   OH231036   3.579   4.924  15.242 -0.1522 -0.1396 -0.8181
 3182TIP3    H131037   3.508   4.989  15.239 -0.5807 -0.5382  0.6403
 3182TIP3    H231038   3.596   4.911  15.335  1.0017 -0.9776 -1.1382
 3183TIP3   OH231039   1.665   2.019  15.098  0.1767 -0.0480 -0.4769
 3183TIP3    H131040   1.720   2.097  15.091 -0.1929  0.1840 -0.8492
 3183TIP3    H231041   1.587   2.041  15.047  0.3567 -0.9073 -1.1252
 3184TIP3   OH231042   4.085   6.749   0.475 -0.6175  0.0646  0.0288
 3184TIP3    H131043   4.060   6.678   0.534  0.4736 -0.3937 -0.0461
 3184TIP3    H231044   4.004   6.773   0.431 -0.6993 -2.2778 -1.1742
 3185TIP3   OH231045   1.775   5.931   0.612 -0.4217 -0.3927 -0.3933
 3185TIP3    H131046   1.846   5.962   0.556 -0.4169  1.7170  0.7235
 3185TIP3    H231047   1.724   5.873   0.556  1.7291 -1.3298 -1.4463
 3186TIP3   OH231048   5.211   1.388  15.711  0.2476 -0.0673 -0.0864
 3186TIP3    H131049   5.124   1.405  15.747 -0.2395 -1.8557 -0.3741
 3186TIP3    H231050   5.252   1.329  15.775  0.9796  0.1960 -0.3085
 3187TIP3   OH231051   0.483   3.413   0.957 -0.0745  0.2261 -0.3427
 3187TIP3    H131052   0.471   3.429   0.864 -0.7063  0.5180 -0.2134
 3187TIP3    H231053   0.395   3.391   0.989  0.4085 -1.4729 -0.1341
 3188TIP3   OH231054   2.842   5.146  11.801 -0.4058  0.0265  0.2494
 3188TIP3    H131055   2.900   5.082  11.759 -0.4956  0.0346  0.1123
 3188TIP3    H231056   2.755   5.121  11.772 -0.6508 -1.0696  1.8775
 3189TIP3   OH231057   3.765   6.304  16.955  0.0741  0.4685  0.1519
 3189TIP3    H131058   3.749   6.223  16.907  1.9630 -0.1813  0.5454
 3189TIP3    H231059   3.735   6.286  17.044 -0.6676  0.6464 -0.0554
 3190TIP3   OH231060   3.982   4.885   2.644 -0.5580  0.5279  0.4745
 3190TIP3    H131061   4.016   4.876   2.555 -1.6821  0.9723 -0.0046
 3190TIP3    H231062   3.931   4.966   2.642 -1.7822 -0.2101  1.1265
 3191TIP3   OH231063   1.856   5.998  12.414 -0.2221  0.0963 -0.2712
 3191TIP3    H131064   1.886   5.916  12.453  0.6154  0.7652  0.5191
 3191TIP3    H231065   1.879   5.991  12.321 -1.3752 -1.1125 -0.4696
 3192TIP3   OH231066   2.985   5.039  16.092 -0.9033  0.2988 -0.4481
 3192TIP3    H131067   3.046   5.001  16.029 -0.7543 -1.3902  0.6719
 3192TIP3    H231068   3.037   5.100  16.143 -0.2401 -0.7828  0.1913
 3193TIP3   OH231069   0.748   3.714  10.765  0.8796 -0.4166  0.2445
 3193TIP3    H131070   0.655   3.726  10.743  1.5154  0.4961 -2.0705
 3193TIP3    H231071   0.779   3.803  10.784  1.1658 -0.7840  1.4816
 3194TIP3   OH231072   6.120   5.501   4.256 -0.5199  0.2466 -0.1622
 3194TIP3    H131073   6.115   5.467   4.166 -0.1861  3.5631 -1.5116
 3194TIP3    H231074   6.068   5.440   4.308  1.5716 -3.3469 -2.0751
 3195TIP3   OH231075   2.922   2.059   2.327 -0.1814 -0.0065  0.0391
 3195TIP3    H131076   2.828   2.043   2.329 -0.0949 -0.4621  0.5303
 3195TIP3    H231077   2.948   2.034   2.237 -0.4797 -0.1724 -0.0026
 3196TIP3   OH231078   1.971   6.497  16.460  0.1291 -0.1760  0.0860
 3196TIP3    H131079   2.054   6.450  16.456 -0.4783 -1.3110  0.5376
 3196TIP3    H231080   1.906   6.429  16.477 -0.7263  0.8780  1.1065
 3197TIP3   OH231081   6.265   2.820   1.899  0.0015 -0.4112  0.5349
 3197TIP3    H131082   6.312   2.755   1.848  0.2797 -0.0816  0.3652
 3197TIP3    H231083   6.266   2.899   1.845  1.4228  0.3161  1.5741
 3198TIP3   OH231084   6.094   6.648   1.725 -0.6547  0.6467 -0.2864
 3198TIP3    H131085   6.106   6.638   1.820  1.3788 -0.7152 -0.6682
 3198TIP3    H231086   5.999   6.659   1.714 -0.6650  3.7411  2.1640
 3199TIP3   OH231087   3.579   1.837  13.312  0.1650  0.6529  0.0818
 3199TIP3    H131088   3.639   1.798  13.248 -2.7024 -0.9256 -1.7768
 3199TIP3    H231089   3.544   1.914  13.269  0.3151  1.1757  0.8786
 3200TIP3   OH231090   6.594   4.642   5.804  0.5451 -0.1517 -0.1638
 3200TIP3    H131091   6.513   4.617   5.847 -0.7194  1.2286 -1.7009
 3200TIP3    H231092   6.625   4.717   5.855 -0.2345  0.6181 -0.8099
 3201TIP3   OH231093   0.419   5.901  16.674 -0.6838  0.5438  0.1178
 3201TIP3    H131094   0.402   5.870  16.763 -1.6353  0.3892 -0.1155
 3201TIP3    H231095   0.355   5.972  16.661 -1.5338 -0.3960 -0.9573
 3202TIP3   OH231096   2.132   3.828  15.568  0.1608 -0.2474 -0.3391
 3202TIP3    H131097   2.155   3.899  15.628 -2.5251  2.1985 -2.0801
 3202TIP3    H231098   2.079   3.769  15.622  2.7826 -1.2366  1.2379
 3203TIP3   OH231099   1.641   1.279  12.167  0.1926 -0.8008  0.1339
 3203TIP3    H131100   1.649   1.227  12.247 -0.1349 -0.4023  0.4259
 3203TIP3    H231101   1.589   1.225  12.108 -0.2133 -0.7722  0.4652
 3204TIP3   OH231102   5.677   2.898  11.034 -0.0086 -0.5319  0.1982
 3204TIP3    H131103   5.737   2.838  10.991 -0.4712 -2.0401  1.6038
 3204TIP3    H231104   5.719   2.984  11.026  1.2636 -1.2317 -0.7311
 3205TIP3   OH231105   1.874   0.465  11.225  0.1340  0.3556  0.4906
 3205TIP3    H131106   1.783   0.494  11.236  0.4742  1.3302  0.7867
 3205TIP3    H231107   1.870   0.370  11.234 -0.7993  0.4270  0.8784
 3206TIP3   OH231108   4.875   3.618   2.341 -0.5950 -0.1654  0.1582
 3206TIP3    H131109   4.887   3.709   2.312 -0.2560 -0.3781 -0.3751
 3206TIP3    H231110   4.828   3.626   2.424 -1.3873  0.4669 -0.3321
 3207TIP3   OH231111   4.410   0.941  15.226  0.2630  0.2138  0.1019
 3207TIP3    H131112   4.361   1.017  15.257 -1.6092 -0.5197 -0.9924
 3207TIP3    H231113   4.346   0.890  15.177  2.1551 -0.7500 -1.4032
 3208TIP3   OH231114   2.375   4.845  15.673  0.6547 -0.1631 -1.2715
 3208TIP3    H131115   2.380   4.753  15.645  0.8899 -0.6983  0.4789
 3208TIP3    H231116   2.466   4.870  15.692  0.2025 -0.9137  2.3404
 3209TIP3   OH231117   4.542   4.035   6.687 -0.7098 -0.1432 -0.0824
 3209TIP3    H131118   4.485   4.065   6.617 -2.1362  1.0541  1.5652
 3209TIP3    H231119   4.622   4.087   6.677 -1.0298  0.2486 -0.6106
 3210TIP3   OH231120   2.435   5.859  15.417 -0.3284 -0.1913 -0.3128
 3210TIP3    H131121   2.366   5.865  15.483 -0.7764  1.1197 -0.8884
 3210TIP3    H231122   2.512   5.828  15.465 -1.4057 -2.0130  0.2660
 3211TIP3   OH231123   0.060   2.450  12.037 -0.3196 -0.0873  0.2288
 3211TIP3    H131124   0.114   2.391  12.090 -0.5214 -0.7665 -0.3144
 3211TIP3    H231125  -0.007   2.393  11.999 -0.4458  0.4777 -0.3953
 3212TIP3   OH231126   1.189   3.143  14.756  0.1343  0.3887 -0.1102
 3212TIP3    H131127   1.197   3.150  14.661  0.8535 -0.3416 -0.1153
 3212TIP3    H231128   1.256   3.079  14.781 -1.1713 -0.6851  0.7082
 3213TIP3   OH231129   0.847   6.029   1.723 -0.3516 -0.7412  0.5345
 3213TIP3    H131130   0.793   6.076   1.659  0.1273  1.1365  1.4795
 3213TIP3    H231131   0.937   6.056   1.703  0.1778 -2.9575 -0.2901
 3214TIP3   OH231132   1.262   0.085  15.395 -0.7257  0.1182  0.0593
 3214TIP3    H131133   1.316   0.039  15.331 -0.6347  0.9485 -0.4764
 3214TIP3    H231134   1.229   0.162  15.348 -0.7362  0.6916  0.9798
 3215TIP3   OH231135   5.600   2.340   3.333  0.0181 -0.7004 -0.0858
 3215TIP3    H131136   5.578   2.428   3.364 -0.1488 -0.2114 -1.5733
 3215TIP3    H231137   5.516   2.296   3.326 -0.0425 -0.4845 -0.7918
 3216TIP3   OH231138   1.229   4.144  17.279  0.3340  0.2185 -0.1816
 3216TIP3    H131139   1.167   4.204  17.320  1.3055  1.0843  0.0427
 3216TIP3    H231140   1.291   4.122  17.349 -0.7591 -2.1042  0.1132
 3217TIP3   OH231141   4.084   0.449   0.691 -0.2077 -0.1704 -0.5479
 3217TIP3    H131142   4.017   0.402   0.740  0.5999 -1.8962 -1.0583
 3217TIP3    H231143   4.106   0.390   0.618  2.1276  0.1927 -0.1652
 3218TIP3   OH231144   0.114   3.282  15.898 -0.2404  0.5170 -0.1021
 3218TIP3    H131145   0.109   3.352  15.833  0.8286  0.2501 -0.4829
 3218TIP3    H231146   0.072   3.318  15.976 -0.5494  1.2355 -0.5980
 3219TIP3   OH231147   0.114   3.714  14.270 -0.0062 -0.1815  0.4697
 3219TIP3    H131148   0.022   3.733  14.251 -0.5879 -0.9174  2.3269
 3219TIP3    H231149   0.164   3.773  14.214 -1.5422 -1.7117 -2.6551
 3220TIP3   OH231150   6.348   3.111  15.434  0.2953  0.8679 -0.0596
 3220TIP3    H131151   6.383   3.023  15.427  1.0368  1.2412 -1.2832
 3220TIP3    H231152   6.328   3.122  15.527 -0.2035 -0.7267  0.0445
 3221TIP3   OH231153   1.459   3.572  13.380 -0.1082 -0.2022  0.1608
 3221TIP3    H131154   1.553   3.579  13.400 -0.6019  1.4666  2.0329
 3221TIP3    H231155   1.417   3.567  13.466 -1.7717 -0.4842 -0.6657
 3222TIP3   OH231156   1.619   0.860   1.842 -0.0518 -0.3899 -0.2404
 3222TIP3    H131157   1.699   0.894   1.801  0.2997  2.2751  2.5132
 3222TIP3    H231158   1.548   0.900   1.792  0.3783  2.5430  1.3885
 3223TIP3   OH231159   1.502   5.485  15.686 -0.2446  0.1474 -0.4765
 3223TIP3    H131160   1.556   5.407  15.673  0.0113  0.2559 -0.0689
 3223TIP3    H231161   1.439   5.459  15.753  1.8729  1.2885  2.0498
 3224TIP3   OH231162   0.100   4.599   2.714 -0.4506 -0.2519  0.1715
 3224TIP3    H131163   0.114   4.688   2.681  0.7012 -1.0358 -1.5156
 3224TIP3    H231164   0.018   4.570   2.673  0.1729 -0.6525 -0.8216
 3225TIP3   OH231165   1.715   0.126   4.366  0.0721 -0.6629 -0.0981
 3225TIP3    H131166   1.623   0.112   4.345  0.1818 -0.1401 -0.9324
 3225TIP3    H231167   1.729   0.075   4.446 -0.5015 -2.1382 -0.9203
 3226TIP3   OH231168   5.564   0.955   0.868 -0.1816 -0.1382 -0.8149
 3226TIP3    H131169   5.524   1.042   0.869 -1.7015 -0.8384  0.5723
 3226TIP3    H231170   5.493   0.896   0.843  0.4745 -1.1744 -0.2673
 3227TIP3   OH231171   5.406   5.606   3.472 -0.2900  0.1251 -0.0064
 3227TIP3    H131172   5.411   5.615   3.377 -1.4131 -0.2660 -0.1110
 3227TIP3    H231173   5.468   5.537   3.493  1.3975  1.5493 -0.2332
 3228TIP3   OH231174   1.867   6.125   4.389 -0.4359 -0.2318  0.5317
 3228TIP3    H131175   1.860   6.106   4.296  1.1566  0.7531  0.1955
 3228TIP3    H231176   1.904   6.046   4.428 -0.2473 -0.3104  0.1863
 3229TIP3   OH231177   0.844   2.031   4.032 -0.0556 -0.0973 -0.3256
 3229TIP3    H131178   0.850   2.088   3.955  0.3579  0.2570 -0.0351
 3229TIP3    H231179   0.934   2.027   4.065  0.1000 -1.7184 -0.9202
 3230TIP3   OH231180   2.253   6.411   1.006  0.0722  0.0970  0.5800
 3230TIP3    H131181   2.295   6.330   0.978  1.3032  0.5424  1.1163
 3230TIP3    H231182   2.306   6.442   1.079  0.6820  2.3140 -0.7406
 3231TIP3   OH231183   5.243   5.720  13.819 -0.5179 -0.0763 -0.2497
 3231TIP3    H131184   5.153   5.738  13.791 -0.7538 -1.6418 -0.5753
 3231TIP3    H231185   5.292   5.710  13.737 -0.2620 -0.1669 -0.0856
 3232TIP3   OH231186   4.505   1.144  16.456 -0.3196  0.3572 -0.2587
 3232TIP3    H131187   4.492   1.056  16.493 -1.8396  0.1222 -1.2992
 3232TIP3    H231188   4.559   1.189  16.520  0.8531 -1.4801  0.1070
 3233TIP3   OH231189   0.678   3.719   1.701 -0.3765  0.2629 -0.2397
 3233TIP3    H131190   0.653   3.771   1.624 -0.6813 -0.1050 -0.3900
 3233TIP3    H231191   0.622   3.642   1.696  0.4251 -0.3152 -0.2971
 3234TIP3   OH231192   0.608   0.291   0.090  0.2360  0.1346  0.0392
 3234TIP3    H131193   0.538   0.270   0.029  0.9109 -1.8513 -0.0825
 3234TIP3    H231194   0.574   0.364   0.142 -0.9810  0.7446 -1.5891
 3235TIP3   OH231195   5.904   5.536  17.087 -0.1008 -0.4419 -0.1043
 3235TIP3    H131196   5.968   5.582  17.141  0.9014 -2.2305  0.2921
 3235TIP3    H231197   5.951   5.519  17.005 -0.3612 -0.9664 -0.1468
 3236TIP3   OH231198   0.619   2.029   2.641  0.1133 -0.0213  0.8816
 3236TIP3    H131199   0.606   2.124   2.647 -1.2376 -0.1228 -0.3875
 3236TIP3    H231200   0.574   2.003   2.561 -0.3796 -1.8846  1.7315
 3237TIP3   OH231201   5.657   6.415   5.648  0.1878  0.3674  0.2047
 3237TIP3    H131202   5.709   6.379   5.720  0.8679  0.6128 -0.1591
 3237TIP3    H231203   5.617   6.494   5.684  1.3158  1.0355  0.0270
 3238TIP3   OH231204   4.692   0.407   3.938 -0.0073  0.4178 -0.1962
 3238TIP3    H131205   4.771   0.458   3.954  0.7955 -1.3240  1.5013
 3238TIP3    H231206   4.722   0.318   3.926 -1.7649 -0.3965  1.2158
 3239TIP3   OH231207   0.106   1.769   0.281 -0.2054 -0.0151  0.0178
 3239TIP3    H131208   0.078   1.742   0.369 -2.7606  1.2844 -0.3554
 3239TIP3    H231209   0.190   1.813   0.296 -0.4890 -0.0092  1.7716
 3240TIP3   OH231210   3.615   5.797  14.645  0.5182  0.0223  0.4340
 3240TIP3    H131211   3.553   5.724  14.643  2.1190 -1.3351 -1.6350
 3240TIP3    H231212   3.579   5.861  14.584  0.2006  0.0460  0.6451
 3241TIP3   OH231213   5.843   2.777  12.539 -0.2838  0.5606  0.4830
 3241TIP3    H131214   5.801   2.854  12.502 -0.3240  1.5348  2.5005
 3241TIP3    H231215   5.935   2.785  12.513 -0.3308  1.2007  0.4946
 3242TIP3   OH231216   4.668   1.535  15.276 -0.2750 -1.0775 -0.0199
 3242TIP3    H131217   4.651   1.565  15.365  1.7128 -1.6384  0.5783
 3242TIP3    H231218   4.640   1.607  15.220  0.2459  0.0719  1.1663
 3243TIP3   OH231219   4.850   6.372   3.308 -0.3334  0.1496 -0.3861
 3243TIP3    H131220   4.858   6.281   3.335  0.8120  0.0625 -1.0007
 3243TIP3    H231221   4.795   6.369   3.229 -2.2150  0.2327  0.8942
 3244TIP3   OH231222   2.888   3.900  12.488  0.3790  0.2589 -0.0480
 3244TIP3    H131223   2.893   3.990  12.455  1.1942 -0.8025 -2.9816
 3244TIP3    H231224   2.968   3.889  12.539  0.5571  1.0281 -0.1537
 3245TIP3   OH231225   0.160   5.074  12.039 -0.2921  0.2382  0.4440
 3245TIP3    H131226   0.126   4.996  11.997  0.1385  0.9677 -1.3156
 3245TIP3    H231227   0.253   5.058  12.049  0.4455  1.9460 -3.2380
 3246TIP3   OH231228   1.189   3.706   0.122  0.6049 -0.7818  0.3575
 3246TIP3    H131229   1.196   3.777   0.058  0.0372 -1.5272 -0.5460
 3246TIP3    H231230   1.189   3.750   0.207  4.4249  0.0774  0.0254
 3247TIP3   OH231231   1.478   4.035  15.606 -0.6635  0.3456  0.2182
 3247TIP3    H131232   1.556   4.026  15.551 -0.0157  2.2406  0.8090
 3247TIP3    H231233   1.480   4.126  15.637 -2.0501 -0.1422  1.8241
 3248TIP3   OH231234   6.728   2.589   0.729  0.6738 -0.4970  0.0426
 3248TIP3    H131235   6.720   2.537   0.649 -1.9207 -0.0411 -0.0428
 3248TIP3    H231236   6.691   2.674   0.706  3.1142  0.8080  0.7423
 3249TIP3   OH231237   3.190   6.658   2.411 -0.1904 -0.0261 -0.0320
 3249TIP3    H131238   3.124   6.726   2.426 -2.4267 -2.0474 -0.2755
 3249TIP3    H231239   3.190   6.644   2.316  0.2351 -0.3679  0.0130
 3250TIP3   OH231240   1.178   1.766  13.461 -0.6854  0.0723 -0.0676
 3250TIP3    H131241   1.092   1.725  13.455 -1.4216  1.6374 -0.6168
 3250TIP3    H231242   1.183   1.797  13.551 -0.9829  0.5394 -0.2043
 3251TIP3   OH231243   1.929   5.585  16.557 -0.4135  0.1066  0.6282
 3251TIP3    H131244   1.892   5.667  16.590 -0.3580 -0.0824  1.1782
 3251TIP3    H231245   1.857   5.544  16.508 -0.4532  0.4597  0.3935
 3252TIP3   OH231246   2.143   4.965   3.770 -0.3093  0.2609 -0.2583
 3252TIP3    H131247   2.069   5.016   3.737 -0.2001  1.8651  1.8642
 3252TIP3    H231248   2.123   4.875   3.745 -3.1235  0.6264  0.5017
 3253TIP3   OH231249   5.979   1.490   1.587 -0.0935 -0.1778  0.0898
 3253TIP3    H131250   6.073   1.484   1.571  0.0533 -0.0943  0.9117
 3253TIP3    H231251   5.945   1.404   1.563  0.2917 -0.4264  0.4273
 3254TIP3   OH231252   5.311   1.247   4.246  0.4252 -0.4341 -0.3663
 3254TIP3    H131253   5.299   1.205   4.331  1.2193  1.0281  0.4969
 3254TIP3    H231254   5.299   1.341   4.264 -2.2100 -0.3082 -2.4026
 3255TIP3   OH231255   1.926   3.966   4.559  0.5087 -0.5009  0.2724
 3255TIP3    H131256   1.887   3.909   4.493  1.9338 -1.5446  0.3158
 3255TIP3    H231257   1.930   4.052   4.517 -0.3601 -0.7326 -0.2934
 3256TIP3   OH231258   4.378   1.871  16.283  0.7699 -0.3344 -0.1450
 3256TIP3    H131259   4.421   1.860  16.368 -1.0894 -1.3554  0.7041
 3256TIP3    H231260   4.323   1.793  16.274  0.1395  0.2823 -1.8049
 3257TIP3   OH231261   0.648   6.333   0.275 -0.0339  0.3234  0.9663
 3257TIP3    H131262   0.608   6.370   0.353 -0.1111 -1.8896  2.0044
 3257TIP3    H231263   0.719   6.279   0.307 -1.2567 -2.1322 -0.3208
 3258TIP3   OH231264   6.362   3.380   0.000  0.1043  0.2695 -0.0103
 3258TIP3    H131265   6.362   3.344   0.089  1.3102 -2.0368 -0.9025
 3258TIP3    H231266   6.372   3.474   0.013 -0.1550  0.0248  2.3092
 3259TIP3   OH231267   6.019   4.945  11.537 -0.2916  0.2558  0.0324
 3259TIP3    H131268   5.936   4.922  11.580 -0.5974 -1.2674 -1.3249
 3259TIP3    H231269   5.998   5.022  11.484 -1.2444 -0.9634 -1.4286
 3260TIP3   OH231270   5.096   3.909   5.744 -0.2898  0.4567 -0.2172
 3260TIP3    H131271   5.145   3.967   5.802  1.1532  0.1249 -1.0625
 3260TIP3    H231272   5.102   3.950   5.658 -1.5682  0.4399 -0.3149
 3261TIP3   OH231273   2.153   2.695  11.894 -0.6803  0.2408  0.4703
 3261TIP3    H131274   2.121   2.768  11.946 -1.1136 -0.9353  1.8838
 3261TIP3    H231275   2.241   2.677  11.928  0.0015  1.0282 -0.8503
 3262TIP3   OH231276   3.194   0.043   0.742  0.3979 -0.3351 -0.2529
 3262TIP3    H131277   3.215  -0.031   0.685  0.5110 -0.8122  0.4048
 3262TIP3    H231278   3.136   0.098   0.689  1.1591 -0.3592 -1.1212
 3263TIP3   OH231279   6.581   2.603  15.347  0.1612  0.0513  0.2733
 3263TIP3    H131280   6.646   2.534  15.359 -0.4945 -0.6961 -0.3658
 3263TIP3    H231281   6.626   2.669  15.293  0.4724 -0.3321  0.0616
 3264TIP3   OH231282   3.287   5.671   5.469 -0.5550 -0.4587  0.2286
 3264TIP3    H131283   3.333   5.646   5.389 -0.2298 -1.0017  0.5824
 3264TIP3    H231284   3.285   5.591   5.522 -1.9252 -0.4591  0.2114
 3265TIP3   OH231285   5.862   6.103  16.512 -0.7679 -0.4452 -0.6389
 3265TIP3    H131286   5.917   6.026  16.523 -0.7697 -0.5158 -1.0967
 3265TIP3    H231287   5.783   6.070  16.467 -1.2987 -0.3915  0.2358
 3266TIP3   OH231288   3.074   4.725   5.335 -0.3845 -0.0954  0.5739
 3266TIP3    H131289   2.981   4.717   5.357 -0.5207  1.9046  0.8053
 3266TIP3    H231290   3.115   4.754   5.416  0.4651 -1.0525  0.4905
 3267TIP3   OH231291   2.902   5.284   2.388  0.1101 -0.5511 -0.1686
 3267TIP3    H131292   2.970   5.303   2.323  0.5265  0.1130  0.4550
 3267TIP3    H231293   2.934   5.323   2.469 -0.0841 -1.9876  0.6199
 3268TIP3   OH231294   6.629   1.938  14.414  0.2358 -0.0870 -0.1158
 3268TIP3    H131295   6.569   1.864  14.418 -0.4165  0.4450  0.0330
 3268TIP3    H231296   6.575   2.014  14.436  0.8947  0.4334 -0.2795
 3269TIP3   OH231297   0.012   0.681   1.129 -0.4037 -0.7444 -0.0285
 3269TIP3    H131298  -0.018   0.764   1.092  0.5831 -0.0031  0.8247
 3269TIP3    H231299  -0.037   0.672   1.211  0.7101 -0.1659  0.7181
 3270TIP3   OH231300   2.639   3.380   2.563 -0.9540 -0.7848  0.4989
 3270TIP3    H131301   2.680   3.337   2.638 -2.2244 -0.4814  1.3844
 3270TIP3    H231302   2.566   3.323   2.540 -0.8767 -0.6119 -0.1981
 3271TIP3   OH231303   6.318   5.186   2.904  0.1057  0.3984  0.1396
 3271TIP3    H131304   6.380   5.128   2.860  1.9404  2.4884 -0.1232
 3271TIP3    H231305   6.373   5.256   2.941 -2.0118  1.8678  0.5929
 3272TIP3   OH231306   5.147   0.727   3.169  0.4151  0.4983  0.3261
 3272TIP3    H131307   5.160   0.709   3.076 -1.0057 -0.2355  0.2639
 3272TIP3    H231308   5.061   0.769   3.174 -0.3774 -1.2108  1.5147
 3273TIP3   OH231309   3.104   1.563   4.864 -0.4147 -0.3153 -0.3825
 3273TIP3    H131310   3.082   1.515   4.784 -2.4896 -0.3823  0.1897
 3273TIP3    H231311   3.197   1.585   4.854 -0.0687 -2.2427 -1.7934
 3274TIP3   OH231312   3.002   1.631   1.016  0.7319 -0.0428 -0.1373
 3274TIP3    H131313   2.972   1.652   0.928  2.1485  1.8567 -0.1925
 3274TIP3    H231314   2.952   1.689   1.073  1.5280  0.4106  0.1016
 3275TIP3   OH231315   5.914   4.394  13.627 -0.4552 -0.2311 -0.2342
 3275TIP3    H131316   5.942   4.392  13.536  1.3240 -1.5196  0.3219
 3275TIP3    H231317   5.829   4.351  13.627 -1.0633  0.9224 -1.4609
 3276TIP3   OH231318   1.936   2.645   5.135  0.1122  0.3431  0.0486
 3276TIP3    H131319   1.904   2.607   5.053  1.8640 -2.5381  0.6572
 3276TIP3    H231320   2.012   2.697   5.109  0.5275 -0.3822 -0.2010
 3277TIP3   OH231321   0.805   5.064   2.504  0.2533 -0.0369  0.1901
 3277TIP3    H131322   0.819   5.111   2.422 -1.7137  0.6725  0.2489
 3277TIP3    H231323   0.875   5.097   2.562  0.4225  0.9399 -0.5590
 3278TIP3   OH231324   4.555   0.433   6.460  0.1425  0.9998 -0.0674
 3278TIP3    H131325   4.615   0.359   6.461  1.3132  1.9428  0.9182
 3278TIP3    H231326   4.469   0.394   6.443  1.3288 -0.1237 -4.0043
 3279TIP3   OH231327   0.647   3.218   2.286 -0.4265 -0.0949  0.0537
 3279TIP3    H131328   0.672   3.309   2.270 -0.9468  0.3317  1.5802
 3279TIP3    H231329   0.562   3.209   2.243  0.7241 -0.5787 -2.1981
 3280TIP3   OH231330   0.721   2.878  14.037  0.0466  0.1345 -0.0216
 3280TIP3    H131331   0.650   2.938  14.060 -0.1021  0.2407 -0.7446
 3280TIP3    H231332   0.720   2.875  13.941  1.2492  0.4234 -0.0529
 3281TIP3   OH231333   5.489   3.661  12.763 -0.3203  0.2044  0.5188
 3281TIP3    H131334   5.519   3.591  12.706 -0.2474  1.9704 -1.7077
 3281TIP3    H231335   5.394   3.651  12.767 -0.5202  1.0901 -1.3870
 3282TIP3   OH231336   2.613   5.354  14.383  0.6656 -0.0639  0.2329
 3282TIP3    H131337   2.704   5.330  14.396  0.1335 -0.3972  3.9078
 3282TIP3    H231338   2.570   5.273  14.357  1.4004  0.1256 -1.6452
 3283TIP3   OH231339   4.070   4.154  13.942  0.6452 -0.5836  0.7323
 3283TIP3    H131340   3.999   4.210  13.975  2.0796  2.0627 -0.4618
 3283TIP3    H231341   4.069   4.168  13.847  1.2370 -2.3856  0.4474
 3284TIP3   OH231342   4.738   2.030  13.978 -0.3886  0.8840  0.1723
 3284TIP3    H131343   4.825   1.989  13.982 -0.2495  0.9801 -1.4677
 3284TIP3    H231344   4.701   2.017  14.065  0.8416 -0.1200  0.5565
 3285TIP3   OH231345   3.240   3.131  15.636 -0.2315  0.2952 -0.2732
 3285TIP3    H131346   3.205   3.052  15.595  0.2964  1.0650 -2.2695
 3285TIP3    H231347   3.331   3.109  15.656  0.5932  1.1077 -2.9172
 3286TIP3   OH231348   0.325   0.750  12.030  0.1609 -0.1133  0.5092
 3286TIP3    H131349   0.377   0.793  11.961  1.8419 -0.4814  1.5271
 3286TIP3    H231350   0.341   0.802  12.108  0.2553 -1.1588  1.1960
 3287TIP3   OH231351   4.326   1.997  16.771  0.0180 -0.2937  0.3416
 3287TIP3    H131352   4.260   2.060  16.799  1.5893  2.9059 -2.7581
 3287TIP3    H231353   4.402   2.015  16.826  1.7011  3.1694 -2.9078
 3288TIP3   OH231354   3.317   0.571   2.245  0.1145  0.0351  0.0996
 3288TIP3    H131355   3.252   0.621   2.195 -0.4323 -1.4972 -0.7421
 3288TIP3    H231356   3.372   0.529   2.179  0.6809 -0.3603  0.8042
 3289TIP3   OH231357   3.973   5.296   1.848  0.6381 -0.1411  0.5898
 3289TIP3    H131358   3.884   5.284   1.881  0.8277 -2.0070  0.4535
 3289TIP3    H231359   3.973   5.384   1.810 -0.8218  0.2995  1.5927
 3290TIP3   OH231360   0.894   4.366  11.275 -0.4164  0.1430 -0.6548
 3290TIP3    H131361   0.937   4.379  11.359 -0.1413  0.6816 -0.8812
 3290TIP3    H231362   0.930   4.284  11.242  0.6015  0.7099 -0.9507
 3291TIP3   OH231363   0.018   0.933   3.795  0.6686 -0.2275 -0.0888
 3291TIP3    H131364   0.099   0.882   3.801  1.5753  0.8620 -2.2379
 3291TIP3    H231365  -0.016   0.937   3.884  3.3776 -0.1034  0.9714
 3292TIP3   OH231366   6.281   3.862  14.343 -0.1775  0.2479  0.0594
 3292TIP3    H131367   6.264   3.799  14.414  0.7350 -0.8131 -0.6546
 3292TIP3    H231368   6.286   3.947  14.387  0.6127 -0.4282  1.2930
 3293TIP3   OH231369   4.898   3.847  16.739  0.0674 -0.1652  0.6239
 3293TIP3    H131370   4.947   3.865  16.658  1.1739  0.2658  1.3720
 3293TIP3    H231371   4.836   3.919  16.746  0.3729  0.1137  0.4655
 3294TIP3   OH231372   0.484   3.747  14.764  0.2817 -0.5035 -0.0276
 3294TIP3    H131373   0.454   3.797  14.687  2.8893 -0.1360 -0.8597
 3294TIP3    H231374   0.419   3.767  14.832 -2.1132 -0.8662 -2.1183
 3295TIP3   OH231375   1.486   6.736   3.015  0.3405 -0.1089  0.0890
 3295TIP3    H131376   1.418   6.782   3.066  0.2841  1.7936 -1.6280
 3295TIP3    H231377   1.438   6.685   2.950  0.5122  1.8794 -1.6615
 3296TIP3   OH231378   4.575   0.831  17.093 -0.2427  0.2151  0.1318
 3296TIP3    H131379   4.481   0.848  17.089 -0.1219  0.7939 -0.3408
 3296TIP3    H231380   4.615   0.917  17.084  0.3364 -0.0704 -0.0487
 3297TIP3   OH231381   1.976   1.234   2.319 -0.0272 -0.0413 -0.0775
 3297TIP3    H131382   1.885   1.263   2.309 -0.0232 -0.0196 -0.0491
 3297TIP3    H231383   2.020   1.307   2.361  0.1882  0.2836 -0.8488
 3298TIP3   OH231384   1.820   2.949  14.397 -0.1589 -0.8266  0.6417
 3298TIP3    H131385   1.870   2.867  14.405  0.4197 -0.4342  1.0517
 3298TIP3    H231386   1.887   3.017  14.392 -0.6605 -0.3081  1.0289
 3299TIP3   OH231387   5.610   2.499   5.000 -0.4528 -0.0868 -0.4352
 3299TIP3    H131388   5.671   2.549   5.054  0.8467 -0.9664 -1.0479
 3299TIP3    H231389   5.536   2.480   5.058  0.5491 -0.3171  0.7914
 3300TIP3   OH231390   1.138   0.223  12.091 -0.5316 -0.1250 -0.0626
 3300TIP3    H131391   1.085   0.163  12.039 -2.5109  2.0128 -0.5931
 3300TIP3    H231392   1.140   0.304  12.040  1.2184  0.6201  1.1261
 3301TIP3   OH231393   0.981   1.210  13.552 -0.2685 -0.0053 -0.0098
 3301TIP3    H131394   0.910   1.272  13.543 -0.0897  0.5355  2.0205
 3301TIP3    H231395   1.045   1.254  13.608  0.5528 -1.3927  0.1888
 3302TIP3   OH231396   2.468   0.622   2.358 -0.0065 -0.6559 -0.1667
 3302TIP3    H131397   2.379   0.593   2.337 -0.7755  0.5709  1.3816
 3302TIP3    H231398   2.500   0.556   2.420 -0.6854  0.1273  1.0465
 3303TIP3   OH231399   6.294   5.626  15.355 -0.1242 -0.8160  0.4679
 3303TIP3    H131400   6.348   5.693  15.314 -0.9970  0.0482  0.7211
 3303TIP3    H231401   6.205   5.645  15.326 -0.4026 -1.7780  0.6572
 3304TIP3   OH231402   4.551   2.062  14.227 -0.2762  0.2437  0.1150
 3304TIP3    H131403   4.510   2.129  14.171  0.9139 -0.3853 -1.5700
 3304TIP3    H231404   4.498   1.984  14.214  0.7868 -0.2782 -1.2384
 3305TIP3   OH231405   2.267   2.956  14.080 -0.3787  0.4980 -0.0307
 3305TIP3    H131406   2.213   2.919  14.150 -0.6755 -0.8171 -0.9441
 3305TIP3    H231407   2.294   2.880  14.028  1.1434  1.2942 -0.4363
 3306TIP3   OH231408   3.723   4.308  16.098 -0.3984 -0.2458  0.5632
 3306TIP3    H131409   3.761   4.307  16.186  0.3752 -1.5143  0.2265
 3306TIP3    H231410   3.629   4.317  16.112 -0.1640  0.9374  1.4744
 3307TIP3   OH231411   5.131   2.541   3.822  0.3302 -0.5974 -0.3045
 3307TIP3    H131412   5.073   2.538   3.898 -0.3681 -0.6244 -0.8336
 3307TIP3    H231413   5.115   2.459   3.777  1.0034 -0.7346 -0.2940
 3308TIP3   OH231414   5.093   4.245  14.328 -0.5061  0.0398 -0.0134
 3308TIP3    H131415   5.169   4.258  14.385 -0.5453 -0.4246  0.1468
 3308TIP3    H231416   5.130   4.214  14.245 -0.4562  0.6308 -0.2123
 3309TIP3   OH231417   4.691   3.369   2.000  0.4333 -0.4311 -0.3270
 3309TIP3    H131418   4.669   3.390   2.090 -1.9919 -0.8800 -0.7899
 3309TIP3    H231419   4.784   3.392   1.992 -0.0543  2.3096  1.4486
 3310TIP3   OH231420   5.618   1.227  17.257 -0.1417 -0.1884 -0.6384
 3310TIP3    H131421   5.674   1.292  17.214 -0.5888  0.8195  0.2652
 3310TIP3    H231422   5.560   1.195  17.188  0.3820  0.0495 -1.1913
 3311TIP3   OH231423   0.418   1.269  13.837  0.4242 -0.7793 -0.2238
 3311TIP3    H131424   0.409   1.342  13.898 -0.2521 -0.4911 -0.6632
 3311TIP3    H231425   0.347   1.281  13.774  1.4526 -0.7506 -1.4056
 3312TIP3   OH231426   3.510   4.677  14.454  0.4952 -0.8702 -0.4070
 3312TIP3    H131427   3.439   4.636  14.504 -0.1740  0.2220 -0.4354
 3312TIP3    H231428   3.523   4.762  14.496  2.1717 -1.2841 -0.0704
 3313TIP3   OH231429   5.806   6.375  15.658 -0.4126  0.1029  0.1487
 3313TIP3    H131430   5.718   6.371  15.622  0.2424 -0.8874 -1.4228
 3313TIP3    H231431   5.849   6.446  15.609 -0.2781  0.4557  0.7730
 3314TIP3   OH231432   3.874   6.655  11.997 -1.2270 -0.6308  0.0607
 3314TIP3    H131433   3.877   6.593  11.923 -0.4245  0.6077 -0.9518
 3314TIP3    H231434   3.787   6.693  11.991  0.0556  2.1041 -2.4710
 3315TIP3   OH231435   6.565   3.252  13.365 -1.1176  0.3672 -0.1323
 3315TIP3    H131436   6.652   3.266  13.327 -0.8184  0.7883  0.6849
 3315TIP3    H231437   6.504   3.269  13.294 -0.5485  0.5215 -0.5885
 3316TIP3   OH231438   0.083   1.500   0.195 -0.3138  0.1759 -0.2512
 3316TIP3    H131439   0.067   1.563   0.125 -2.1244 -1.3688 -1.2433
 3316TIP3    H231440   0.002   1.500   0.246 -0.3402 -1.3726 -0.2804
 3317TIP3   OH231441   4.257   5.251  14.336 -0.0297  0.4549  0.0877
 3317TIP3    H131442   4.256   5.313  14.409  0.1727  2.1334 -1.3051
 3317TIP3    H231443   4.310   5.294  14.269 -3.3415  0.6790 -2.5220
 3318TIP3   OH231444   6.087   3.994  13.953 -0.7290 -0.1644 -0.5569
 3318TIP3    H131445   5.992   4.001  13.965 -0.5426  0.4313  0.7880
 3318TIP3    H231446   6.113   4.080  13.920 -0.7372 -0.5174 -1.4687
 3319TIP3   OH231447   5.846   0.164   1.662  0.5459  0.4922  0.6166
 3319TIP3    H131448   5.895   0.143   1.741  0.5867 -0.2196  0.4054
 3319TIP3    H231449   5.769   0.107   1.665 -0.4413  1.8091  1.0973
 3320TIP3   OH231450   3.766   5.610   2.149 -0.0659 -0.1543  0.8016
 3320TIP3    H131451   3.687   5.582   2.195 -0.2670 -1.1622 -0.1411
 3320TIP3    H231452   3.825   5.535   2.153  1.0272  0.7406  1.8668
 3321TIP3   OH231453   5.560   6.608   1.190 -0.7698 -0.2626 -0.1329
 3321TIP3    H131454   5.473   6.619   1.228 -1.6425 -0.2085 -2.0741
 3321TIP3    H231455   5.547   6.551   1.114  0.3896  2.0286 -2.1257
 3322TIP3   OH231456   3.867   0.752  13.315 -0.0558  0.4267  0.1413
 3322TIP3    H131457   3.872   0.673  13.368  0.8122  0.5131  0.1994
 3322TIP3    H231458   3.780   0.788  13.333  0.1440  0.3312  1.3262
 3323TIP3   OH231459   5.805   1.903  10.758  0.6365 -0.2979 -0.6168
 3323TIP3    H131460   5.846   1.818  10.775  1.7722  0.3902  0.2235
 3323TIP3    H231461   5.744   1.887  10.686 -0.9436 -2.3371  1.1107
 3324TIP3   OH231462   3.780   1.300   0.272  0.2024  0.2480  0.6236
 3324TIP3    H131463   3.819   1.387   0.258  0.4802 -0.3630 -2.9263
 3324TIP3    H231464   3.832   1.242   0.216 -3.5145 -1.2057 -1.4873
 3325TIP3   OH231465   6.642   6.475  10.664  0.7092  0.3780  0.0257
 3325TIP3    H131466   6.601   6.389  10.675  0.2229  0.7821  1.3996
 3325TIP3    H231467   6.571   6.538  10.679  1.2617  1.0395 -0.1247
 3326TIP3   OH231468   3.807   3.746   5.982 -0.2935  0.0743 -0.6430
 3326TIP3    H131469   3.888   3.714   6.023 -1.5191 -1.5650  0.5822
 3326TIP3    H231470   3.784   3.824   6.032 -0.0352 -0.0510 -0.3253
 3327TIP3   OH231471   3.973   1.124   1.447 -0.5421  0.0925  0.3120
 3327TIP3    H131472   4.001   1.156   1.532  0.0886  0.1252  0.0913
 3327TIP3    H231473   3.893   1.074   1.465 -0.9589  0.9250  0.7927
 3328TIP3   OH231474   0.594   3.221  17.144  0.5099  0.3619  0.0742
 3328TIP3    H131475   0.680   3.195  17.177  0.1549  0.9478  1.4918
 3328TIP3    H231476   0.541   3.142  17.151  0.6623  0.2645  0.1441
 3329TIP3   OH231477   4.186   5.703   3.458  0.6201 -0.5304 -0.3562
 3329TIP3    H131478   4.266   5.650   3.456  1.0511  0.1342 -1.2207
 3329TIP3    H231479   4.218   5.794   3.463 -0.0993 -0.3212  0.4444
 3330TIP3   OH231480   3.633   3.437  10.552  0.5086  0.4004  0.0397
 3330TIP3    H131481   3.618   3.343  10.563 -0.5232  0.4936 -0.5407
 3330TIP3    H231482   3.721   3.443  10.516 -0.1018 -0.4510 -1.6698
 3331TIP3   OH231483   4.923   1.906  16.565 -0.4756  0.2013  0.5054
 3331TIP3    H131484   4.853   1.874  16.621 -0.7064  1.1295  0.7453
 3331TIP3    H231485   4.892   1.990  16.533 -0.0231  0.0209 -0.4205
 3332TIP3   OH231486   4.617   0.329  15.378 -0.3127 -0.1822  1.0235
 3332TIP3    H131487   4.682   0.319  15.310 -1.3099 -0.0824  0.0420
 3332TIP3    H231488   4.578   0.415  15.362  0.5308  0.5395  2.6743
 3333TIP3   OH231489   6.365   5.018  11.044  0.3406 -0.2857 -0.0866
 3333TIP3    H131490   6.415   4.986  10.968 -1.5982  0.7646 -1.8749
 3333TIP3    H231491   6.280   5.042  11.007 -0.3599  1.0202  2.3115
 3334TIP3   OH231492   2.998   4.550   6.403 -0.7732 -0.6985  0.1136
 3334TIP3    H131493   2.951   4.632   6.418  2.4154  1.0334  1.0924
 3334TIP3    H231494   3.021   4.553   6.310  0.5703  0.2309  0.4615
 3335TIP3   OH231495   4.064   2.255  15.951 -0.0617 -0.7078  0.0554
 3335TIP3    H131496   4.029   2.166  15.958  1.1597 -1.0999  1.4237
 3335TIP3    H231497   4.009   2.307  16.010 -1.2293 -0.4015 -1.2863
 3336TIP3   OH231498   4.702   3.160  12.599  0.0429 -0.7671 -0.1801
 3336TIP3    H131499   4.680   3.251  12.621 -0.0322 -0.6043 -0.9164
 3336TIP3    H231500   4.755   3.130  12.673 -0.5213 -0.3486  0.4014
 3337TIP3   OH231501   5.497   3.764   1.330 -0.0245  0.0420 -0.0357
 3337TIP3    H131502   5.459   3.747   1.415 -0.4742  1.4259  0.0513
 3337TIP3    H231503   5.546   3.846   1.341  0.6561 -0.2355 -0.8748
 3338TIP3   OH231504   4.217   4.568  12.763 -0.3548 -0.5676 -0.6149
 3338TIP3    H131505   4.207   4.656  12.728  1.8092 -0.3723 -0.7780
 3338TIP3    H231506   4.306   4.542  12.740 -0.7135 -2.5275  0.0497
 3339TIP3   OH231507   2.635   0.090  15.225  0.4136 -0.2341 -0.2590
 3339TIP3    H131508   2.620   0.067  15.317 -0.5728 -1.5211 -0.7235
 3339TIP3    H231509   2.656   0.007  15.182  0.3609  0.2776 -1.3075
 3340TIP3   OH231510   3.108   2.886   4.613 -0.3554 -0.1147 -0.7136
 3340TIP3    H131511   3.085   2.979   4.619  0.4206 -0.0082  0.9542
 3340TIP3    H231512   3.142   2.875   4.524  0.1436  1.3542 -0.7199
 3341TIP3   OH231513   0.189   3.270  11.637 -0.2055 -0.1035 -0.1961
 3341TIP3    H131514   0.153   3.358  11.641 -1.2403 -0.5725  1.0428
 3341TIP3    H231515   0.165   3.237  11.550  0.0095  0.7540 -0.5803
 3342TIP3   OH231516   4.051   4.947  16.068  0.2829 -0.8834  0.1865
 3342TIP3    H131517   4.132   4.981  16.030  0.3671 -0.8250  0.4196
 3342TIP3    H231518   4.034   5.004  16.143  0.3830 -1.3025  0.5291
 3343TIP3   OH231519   6.612   1.000   5.548 -0.2213  0.3500 -0.5604
 3343TIP3    H131520   6.630   0.951   5.629 -2.0116 -0.7556 -0.8147
 3343TIP3    H231521   6.605   0.933   5.480 -1.8417  0.9991 -1.0642
 3344TIP3   OH231522   5.204   6.595  16.336 -0.6740  0.0378 -0.3223
 3344TIP3    H131523   5.288   6.626  16.369  0.0428 -0.7508 -1.3680
 3344TIP3    H231524   5.227   6.538  16.262 -2.0292 -1.8803  0.7083
 3345TIP3   OH231525   2.552   0.164   2.250  0.5045  0.7818 -0.2596
 3345TIP3    H131526   2.460   0.161   2.277  0.3756  1.5356 -0.5834
 3345TIP3    H231527   2.567   0.256   2.229  1.1834  0.5670 -0.7310
 3346TIP3   OH231528   6.659   1.365  15.392  0.9098 -0.3631 -0.2960
 3346TIP3    H131529   6.708   1.285  15.412  3.1051  0.6772 -1.3613
 3346TIP3    H231530   6.661   1.372  15.297 -1.8764 -0.5828 -0.4366
 3347TIP3   OH231531   2.354   3.443   0.501  0.2180  0.0562 -0.0605
 3347TIP3    H131532   2.424   3.378   0.504  0.4488  0.2698 -0.6439
 3347TIP3    H231533   2.319   3.446   0.590  0.3667 -0.6871  0.0234
 3348TIP3   OH231534   0.151   1.380  16.770  0.3379  0.2802  0.0996
 3348TIP3    H131535   0.121   1.365  16.681  0.8003  0.0348 -0.0177
 3348TIP3    H231536   0.244   1.357  16.768 -0.0597 -1.5309  1.0821
 3349TIP3   OH231537   1.792   1.479  12.491 -0.2180  0.2819  0.0454
 3349TIP3    H131538   1.725   1.454  12.554  0.3552  2.0204  1.3762
 3349TIP3    H231539   1.874   1.472  12.539  0.2351  1.5371 -0.5344
 3350TIP3   OH231540   2.684   4.727   4.974  0.1398 -0.0333 -0.1312
 3350TIP3    H131541   2.662   4.812   5.011  1.4083  0.2481  0.0078
 3350TIP3    H231542   2.760   4.744   4.919  0.0588 -0.9822 -0.5483
 3351TIP3   OH231543   4.041   5.222  15.632 -0.1668  0.5295 -0.9961
 3351TIP3    H131544   4.065   5.298  15.580 -1.0611  1.0965 -0.6085
 3351TIP3    H231545   3.971   5.180  15.582 -1.1113  1.1451 -0.2162
 3352TIP3   OH231546   2.667   2.463  16.099  0.4780  0.0339  0.3985
 3352TIP3    H131547   2.627   2.489  16.182  0.5571  0.0707  0.4244
 3352TIP3    H231548   2.633   2.375  16.082 -0.4778  0.4969 -0.1354
 3353TIP3   OH231549   1.546   6.662   1.445 -0.5722 -0.0645 -0.5995
 3353TIP3    H131550   1.495   6.586   1.415 -0.2404 -1.0090  1.1526
 3353TIP3    H231551   1.493   6.699   1.516  1.1237 -1.0766  1.2717
 3354TIP3   OH231552   4.767   1.257  13.199 -0.3023 -0.2129  0.0637
 3354TIP3    H131553   4.856   1.277  13.172 -0.5813 -0.1545 -0.8673
 3354TIP3    H231554   4.712   1.305  13.137 -0.9769 -2.3523 -1.0615
 3355TIP3   OH231555   1.572   0.864  11.161  0.0277 -0.1954  0.6592
 3355TIP3    H131556   1.570   0.956  11.135  1.5152 -0.8331 -1.8809
 3355TIP3    H231557   1.665   0.841  11.159 -0.4303 -2.0590  0.1939
 3356TIP3   OH231558   3.654   2.853  13.410 -0.9425 -0.5195  0.3908
 3356TIP3    H131559   3.714   2.830  13.340  0.0131  1.6044  0.4596
 3356TIP3    H231560   3.568   2.823  13.380 -0.2940 -1.0125 -0.9881
 3357TIP3   OH231561   1.813   4.988  15.423 -0.2812  0.4065  0.2473
 3357TIP3    H131562   1.823   4.960  15.514 -1.9060  0.9556  0.6097
 3357TIP3    H231563   1.850   4.915  15.372  1.9903  0.7395  1.3570
 3358TIP3   OH231564   3.655   3.201  12.973 -0.3712  0.0277  0.3648
 3358TIP3    H131565   3.667   3.180  13.065  0.5925 -0.4016  0.1422
 3358TIP3    H231566   3.563   3.229  12.967 -0.8211 -1.1869  1.2230
 3359TIP3   OH231567   5.002   1.885   3.688  0.1479  0.2858  0.0327
 3359TIP3    H131568   4.959   1.811   3.731 -0.5525  0.6126 -0.0932
 3359TIP3    H231569   4.939   1.956   3.695  0.1936  0.4546 -1.1683
 3360TIP3   OH231570   1.551   2.727  16.186 -0.0286 -0.1643 -0.1133
 3360TIP3    H131571   1.632   2.682  16.208  0.5153  0.6202 -0.5065
 3360TIP3    H231572   1.548   2.726  16.090 -0.5266 -0.2505 -0.1007
 3361TIP3   OH231573   4.288   6.090  13.141  0.5050  0.4564 -0.4098
 3361TIP3    H131574   4.337   6.159  13.095  1.7820 -0.1162  0.0692
 3361TIP3    H231575   4.349   6.057  13.206  0.0225 -1.3745 -0.8535
 3362TIP3   OH231576   1.368   5.210  15.127  0.3576 -0.3366  0.4048
 3362TIP3    H131577   1.355   5.189  15.220 -2.4420  1.5405  0.5209
 3362TIP3    H231578   1.381   5.305  15.127  0.6114 -0.3716 -1.0884
 3363TIP3   OH231579   5.904   3.092   0.709 -0.0285 -0.7206  0.1407
 3363TIP3    H131580   5.862   3.040   0.777  0.7098  0.0094  1.1710
 3363TIP3    H231581   5.901   3.182   0.742  1.8123 -0.5755 -0.0107
 3364TIP3   OH231582   2.991   1.359  13.779  0.1846 -0.9124  0.9661
 3364TIP3    H131583   3.027   1.426  13.837 -1.1030 -0.5219  1.3139
 3364TIP3    H231584   2.906   1.337  13.816  0.3303 -2.3206  0.5232
 3365TIP3   OH231585   1.237   4.401  10.734  0.0525  0.6619  0.4503
 3365TIP3    H131586   1.170   4.403  10.666  0.7045  0.2963 -0.2203
 3365TIP3    H231587   1.216   4.473  10.792 -1.1797  0.2725  0.4974
 3366TIP3   OH231588   0.252   6.594  15.059 -0.1601  0.1908  0.0151
 3366TIP3    H131589   0.188   6.605  14.989 -1.2904 -0.1811  0.9785
 3366TIP3    H231590   0.326   6.550  15.017 -1.5892 -1.7414 -0.5386
 3367TIP3   OH231591   2.765   1.061   5.356 -0.5620 -0.0799  0.1869
 3367TIP3    H131592   2.676   1.025   5.353  0.1513 -1.9527  0.4552
 3367TIP3    H231593   2.780   1.097   5.269 -1.5344  0.1120  0.0966
 3368TIP3   OH231594   6.181   2.527  14.321 -0.5867 -0.2594  0.0152
 3368TIP3    H131595   6.217   2.554  14.406  1.9986 -1.4899 -0.6326
 3368TIP3    H231596   6.160   2.434  14.333  0.6082 -0.6641 -0.9212
 3369TIP3   OH231597   3.937   2.300  15.114 -0.1003 -0.0273 -0.1835
 3369TIP3    H131598   3.988   2.222  15.091  1.2373  0.8318 -0.1580
 3369TIP3    H231599   4.002   2.365  15.141 -1.4384 -0.1149  3.5242
 3370TIP3   OH231600   4.570   1.572   3.217  1.0366 -0.5271 -0.0851
 3370TIP3    H131601   4.532   1.596   3.301  1.8636  3.2318 -0.6748
 3370TIP3    H231602   4.570   1.476   3.216 -2.7475 -0.6486  2.4252
 3371TIP3   OH231603   2.754   6.558  15.498 -0.5336 -0.1641  0.3059
 3371TIP3    H131604   2.811   6.631  15.524 -2.3691  0.7980  1.7438
 3371TIP3    H231605   2.814   6.488  15.474  1.2920  1.8122 -1.1306
 3372TIP3   OH231606   4.689   5.163  14.743 -0.5895  0.5326  0.1285
 3372TIP3    H131607   4.631   5.115  14.684 -0.4958 -1.0612  1.2867
 3372TIP3    H231608   4.776   5.129  14.723 -0.6516 -0.5730  1.6994
 3373TIP3   OH231609   6.423   3.339   1.361 -0.2367  0.5466 -0.0680
 3373TIP3    H131610   6.491   3.274   1.380 -1.5684 -0.1862  2.2625
 3373TIP3    H231611   6.430   3.403   1.432 -1.4024  0.9425 -0.3011
 3374TIP3   OH231612   1.501   4.179   0.644  0.1568  0.0488 -0.4530
 3374TIP3    H131613   1.485   4.129   0.564  1.0913 -0.8784 -0.0684
 3374TIP3    H231614   1.538   4.262   0.614  0.5797 -0.3281 -0.9863
 3375TIP3   OH231615   0.830   5.494  14.115  0.5869  0.0218  0.4430
 3375TIP3    H131616   0.904   5.484  14.175  0.3260 -1.2818  0.5612
 3375TIP3    H231617   0.754   5.466  14.166  0.1445  0.4307  0.0145
 3376TIP3   OH231618   6.042   1.145   2.825 -0.2580  0.1596  0.2855
 3376TIP3    H131619   6.029   1.095   2.744 -0.4789 -1.5142  1.3314
 3376TIP3    H231620   6.131   1.123   2.852 -0.3811  0.2884  0.7893
 3377TIP3   OH231621   0.283   0.767   1.094 -0.3369  0.4807 -0.9101
 3377TIP3    H131622   0.199   0.721   1.099  0.5563 -1.0911  0.0102
 3377TIP3    H231623   0.323   0.754   1.180  0.6741  1.5790 -1.1982
 3378TIP3   OH231624   1.280   0.138   3.617  0.0457 -0.3129  0.0930
 3378TIP3    H131625   1.334   0.185   3.681 -1.0057  1.0353  0.0125
 3378TIP3    H231626   1.213   0.094   3.669 -0.6113  0.5149 -0.0473
 3379TIP3   OH231627   6.403   3.006  10.478 -0.8397 -1.3780 -0.0038
 3379TIP3    H131628   6.444   3.088  10.505 -1.4713 -1.7835  2.3418
 3379TIP3    H231629   6.312   3.029  10.463 -0.8070 -1.4545 -0.3155
 3380TIP3   OH231630   6.134   1.898  16.371 -0.1598 -0.2957  0.2195
 3380TIP3    H131631   6.140   1.856  16.457 -1.5136 -0.6275  0.1545
 3380TIP3    H231632   6.049   1.871  16.337 -0.2395  1.0008 -0.6165
 3381TIP3   OH231633   0.795   4.026   4.802 -0.5467 -0.4865  0.0156
 3381TIP3    H131634   0.860   3.989   4.862 -0.2162  1.4751  0.9120
 3381TIP3    H231635   0.846   4.065   4.732 -0.6564  2.0545  1.2951
 3382TIP3   OH231636   1.706   5.172  13.111 -0.2161 -0.2128  0.0428
 3382TIP3    H131637   1.685   5.160  13.018  1.8071  0.4754 -0.5252
 3382TIP3    H231638   1.768   5.101  13.131  0.1140  0.2268  0.5974
 3383TIP3   OH231639   1.890   5.931   2.285 -0.7773 -0.0937 -0.4633
 3383TIP3    H131640   1.957   5.974   2.338 -0.0373  1.0489 -2.2599
 3383TIP3    H231641   1.895   5.839   2.309  1.1757  0.0366 -0.2783
 3384TIP3   OH231642   6.484   0.902  12.026  0.0427 -0.3185  0.2585
 3384TIP3    H131643   6.560   0.909  11.967  1.0109 -0.3212  1.4846
 3384TIP3    H231644   6.441   0.987  12.021  0.2996 -0.2141 -0.2146
 3385TIP3   OH231645   1.513   0.483   2.400 -0.0621  0.7330  0.0322
 3385TIP3    H131646   1.463   0.406   2.374  0.2050  0.0852  1.3947
 3385TIP3    H231647   1.544   0.463   2.488  1.3172  1.7597 -0.2016
 3386TIP3   OH231648   3.096   1.037   2.788  0.0900  0.0420 -0.2268
 3386TIP3    H131649   3.123   1.129   2.795 -0.7512  0.1180  2.9650
 3386TIP3    H231650   3.171   0.988   2.821  0.4652 -0.4260 -1.7486
 3387TIP3   OH231651   1.215   0.337  15.261  0.2222  0.1799  0.0533
 3387TIP3    H131652   1.162   0.268  15.220 -1.1984  1.6359 -0.6210
 3387TIP3    H231653   1.288   0.350  15.200 -0.5152  0.5555 -0.7701
 3388TIP3   OH231654   5.306   1.512  11.356  0.2857 -0.0284  0.0747
 3388TIP3    H131655   5.399   1.509  11.335  0.5042  0.0699  1.0156
 3388TIP3    H231656   5.263   1.472  11.280  0.8800  2.4300 -1.6150
 3389TIP3   OH231657   2.021   0.168   0.344 -0.5254  0.4850  0.2995
 3389TIP3    H131658   2.002   0.226   0.271 -0.1432  0.9459  0.5677
 3389TIP3    H231659   1.937   0.155   0.387 -0.4418  1.6604  0.8443
 3390TIP3   OH231660   5.822   5.337   1.608  0.2421  0.4764 -0.2755
 3390TIP3    H131661   5.814   5.399   1.535  0.3372 -0.3532 -1.0045
 3390TIP3    H231662   5.846   5.254   1.566 -0.4172 -0.1832  0.6362
 3391TIP3   OH231663   3.881   2.063   3.926 -0.3874 -0.3524 -0.2056
 3391TIP3    H131664   3.943   2.079   3.856 -1.5222  1.4661 -0.8427
 3391TIP3    H231665   3.896   2.135   3.988 -1.5745 -0.1147 -0.1824
 3392TIP3   OH231666   0.272   4.148  17.248  0.1183  0.1305  0.2522
 3392TIP3    H131667   0.207   4.131  17.180 -0.2212 -0.4842  0.7185
 3392TIP3    H231668   0.355   4.154  17.202 -0.3701  1.7378 -0.4561
 3393TIP3   OH231669   6.276   6.427  14.814 -0.1741  0.0893 -0.0125
 3393TIP3    H131670   6.351   6.370  14.801 -0.3924  0.3678 -2.8096
 3393TIP3    H231671   6.304   6.513  14.782 -1.2217  0.5478  0.2397
 3394TIP3   OH231672   3.821   1.674   5.603 -0.2488 -0.5052 -0.6305
 3394TIP3    H131673   3.778   1.756   5.580  1.6926  0.9736  0.7971
 3394TIP3    H231674   3.806   1.664   5.697  1.1509 -0.7801 -0.4248
 3395TIP3   OH231675   2.644   5.610  17.280  0.2316 -0.6575  0.3023
 3395TIP3    H131676   2.703   5.620  17.206  0.2367 -0.8293  0.2842
 3395TIP3    H231677   2.564   5.574  17.243 -0.3196  0.6804  0.1366
 3396TIP3   OH231678   0.954   1.845  15.559  0.8414  0.1630 -0.9289
 3396TIP3    H131679   0.966   1.778  15.626  0.7931  1.1242  0.0428
 3396TIP3    H231680   1.036   1.845  15.510  1.6316  0.8105  0.3586
 3397TIP3   OH231681   3.909   4.833   6.496 -0.3683 -0.4721  0.2292
 3397TIP3    H131682   3.887   4.847   6.588  0.6108 -0.7451  0.5175
 3397TIP3    H231683   3.943   4.743   6.493  2.2962  0.4755  0.1531
 3398TIP3   OH231684   1.541   0.242  14.140  0.2979  0.1422  0.0807
 3398TIP3    H131685   1.626   0.199  14.145  1.2478  1.6105 -2.1649
 3398TIP3    H231686   1.493   0.213  14.217  3.1773  0.0082  1.8683
 3399TIP3   OH231687   0.391   3.367   3.587 -0.1348 -0.0982  0.6808
 3399TIP3    H131688   0.329   3.439   3.607  0.4013  0.8735 -1.0793
 3399TIP3    H231689   0.370   3.342   3.498  1.3624 -0.4416  0.4183
 3400TIP3   OH231690   4.195   4.306  12.980 -0.0802 -0.5548  0.1960
 3400TIP3    H131691   4.254   4.305  12.905  0.6476  1.6436  0.7004
 3400TIP3    H231692   4.235   4.248  13.044  0.5927 -0.4801 -0.1576
 3401TIP3   OH231693   4.816   1.408  13.591 -0.2734 -0.1076  0.1012
 3401TIP3    H131694   4.857   1.452  13.666 -0.0180  0.4571 -0.3664
 3401TIP3    H231695   4.858   1.447  13.515 -0.4573 -0.7572 -0.3381
 3402TIP3   OH231696   5.301   4.479  14.417 -0.0085  0.7136  0.2153
 3402TIP3    H131697   5.319   4.568  14.386  0.2521  0.3947 -0.5508
 3402TIP3    H231698   5.323   4.422  14.343  0.5591 -0.0501  0.9571
 3403TIP3   OH231699   1.788   2.902  14.068  0.4657 -0.2875  0.8957
 3403TIP3    H131700   1.752   2.959  14.000 -1.9162 -0.7757  1.7009
 3403TIP3    H231701   1.799   2.960  14.143 -1.4936 -0.7349  1.5614
 3404TIP3   OH231702   6.493   2.051   0.916 -0.1080  0.1226 -0.3952
 3404TIP3    H131703   6.402   2.058   0.888 -0.0550 -0.7373 -0.8022
 3404TIP3    H231704   6.497   2.103   0.997 -0.7492  0.8796 -0.8363
 3405TIP3   OH231705   1.594   4.077  10.587  0.8151  0.3494  0.2565
 3405TIP3    H131706   1.677   4.110  10.622  0.7513  1.8995 -1.0016
 3405TIP3    H231707   1.548   4.155  10.556 -0.4959 -0.6550 -0.3830
 3406TIP3   OH231708   4.373   1.586  16.573  0.3927 -0.4559  0.4496
 3406TIP3    H131709   4.462   1.556  16.556  1.0388  1.2113  0.7670
 3406TIP3    H231710   4.320   1.548  16.503  1.7395  0.3773 -1.0392
 3407TIP3   OH231711   5.996   3.362  14.810  0.1089  0.2034 -0.4992
 3407TIP3    H131712   5.937   3.353  14.885 -0.4305  1.5144 -0.7493
 3407TIP3    H231713   6.060   3.427  14.838 -0.4085  1.1022 -1.3557
 3408TIP3   OH231714   5.426   2.394   5.459 -0.6554 -0.4227  0.4410
 3408TIP3    H131715   5.469   2.359   5.537  0.5484 -1.3919 -0.6377
 3408TIP3    H231716   5.333   2.387   5.479 -0.3651  1.6716  2.7995
 3409TIP3   OH231717   6.749   2.628  17.072  0.2143  0.0955  0.0972
 3409TIP3    H131718   6.841   2.654  17.066  0.6652 -1.5175 -0.3092
 3409TIP3    H231719   6.751   2.533  17.061 -1.5691  0.1263 -0.5668
 3410TIP3   OH231720   0.170   4.925   3.504  0.1917  0.0620 -0.6171
 3410TIP3    H131721   0.075   4.932   3.494  0.0076 -1.9163 -0.3268
 3410TIP3    H231722   0.188   4.832   3.502  2.1765  0.4317 -0.9058
 3411TIP3   OH231723   5.735   0.727   2.479 -0.0553 -0.3634 -0.0174
 3411TIP3    H131724   5.706   0.635   2.475 -1.5088  0.1033 -0.6150
 3411TIP3    H231725   5.822   0.726   2.440  0.1225 -1.5588  0.3695
 3412TIP3   OH231726   3.537   2.689   6.241 -0.3883 -0.2321 -0.0854
 3412TIP3    H131727   3.528   2.608   6.290  0.7760 -0.0742  0.4023
 3412TIP3    H231728   3.627   2.717   6.256 -0.5905  0.8306 -0.7477
 3413TIP3   OH231729   5.468   6.662  13.760  0.5090  0.1678 -0.5069
 3413TIP3    H131730   5.481   6.709  13.842 -1.1958 -1.0605  0.4727
 3413TIP3    H231731   5.549   6.678  13.710  1.0971  1.7995  0.9515
 3414TIP3   OH231732   5.928   1.423   2.774  0.3571 -0.1229 -0.3660
 3414TIP3    H131733   6.006   1.477   2.786  0.8173 -0.7179 -0.6012
 3414TIP3    H231734   5.959   1.334   2.793 -0.4581 -0.2668  0.3158
 3415TIP3   OH231735   0.850   1.256  15.957  0.2836 -0.4155 -0.0346
 3415TIP3    H131736   0.913   1.269  16.028  0.0655  0.2456  0.0404
 3415TIP3    H231737   0.791   1.330  15.963 -0.1143 -0.6874 -0.5193
 3416TIP3   OH231738   1.301   0.202   3.353 -0.5140 -0.8800  0.4256
 3416TIP3    H131739   1.254   0.285   3.347 -0.5299 -0.9395 -0.3817
 3416TIP3    H231740   1.298   0.178   3.446 -0.6667 -0.0732  0.6280
 3417TIP3   OH231741   5.844   3.321  12.493  0.0977  0.7154  0.3033
 3417TIP3    H131742   5.788   3.368  12.554  2.4779  1.1675  2.2287
 3417TIP3    H231743   5.925   3.372  12.490  1.8398 -1.9105  0.5750
 3418TIP3   OH231744   1.759   4.166   0.850  0.3724  0.2542 -0.6382
 3418TIP3    H131745   1.736   4.148   0.759 -1.8441 -0.2041 -0.0012
 3418TIP3    H231746   1.686   4.218   0.884  2.1432  2.2068  0.3145
 3419TIP3   OH231747   3.661   1.512  16.498  0.5662  0.4997  0.3944
 3419TIP3    H131748   3.659   1.531  16.592  0.4959 -0.1260  0.5221
 3419TIP3    H231749   3.689   1.421  16.492 -0.2547  0.2757 -0.1608
 3420TIP3   OH231750   5.303   2.794  13.607 -0.2065 -0.1270 -0.3435
 3420TIP3    H131751   5.213   2.824  13.595 -0.0168  0.8940  0.7053
 3420TIP3    H231752   5.301   2.748  13.691  0.9088  2.5790  1.2019
 3421TIP3   OH231753   0.141   4.941   4.946  0.2234  1.0561  0.2313
 3421TIP3    H131754   0.072   4.998   4.913  1.8665  2.7827 -0.3428
 3421TIP3    H231755   0.149   4.964   5.038 -1.6085 -0.8904  0.9041
 3422TIP3   OH231756   1.275   3.558   2.684  0.7290 -0.1778  0.1190
 3422TIP3    H131757   1.304   3.603   2.763  0.2697 -0.5143  0.4838
 3422TIP3    H231758   1.181   3.549   2.695  0.7731 -0.9370 -0.0969
 3423TIP3   OH231759   0.551   1.103   4.732 -0.2702 -0.0640 -0.0424
 3423TIP3    H131760   0.636   1.128   4.696 -0.7682 -0.5363 -1.5965
 3423TIP3    H231761   0.547   1.146   4.818  1.2636  0.4617 -0.2240
 3424TIP3   OH231762   2.235   2.073   3.118  0.2836  0.0643 -0.3955
 3424TIP3    H131763   2.326   2.090   3.097 -0.0594 -0.4449 -2.3532
 3424TIP3    H231764   2.187   2.091   3.037 -1.1979 -0.9246  0.2317
 3425TIP3   OH231765   1.610   4.242  13.125 -0.0502  0.7701 -0.1888
 3425TIP3    H131766   1.570   4.175  13.180 -1.3388  2.5935  1.1477
 3425TIP3    H231767   1.637   4.195  13.046  0.1174 -1.5227  1.1818
 3426TIP3   OH231768   0.818   0.551  14.714 -0.1889 -0.2333  0.0395
 3426TIP3    H131769   0.759   0.599  14.772  0.7804  0.5196  0.3914
 3426TIP3    H231770   0.812   0.460  14.744 -2.3053 -0.4382 -0.8632
 3427TIP3   OH231771   4.666   6.564   1.157  0.4007  0.2885  0.2840
 3427TIP3    H131772   4.747   6.540   1.202  1.0946 -0.2560 -1.2400
 3427TIP3    H231773   4.694   6.601   1.074 -0.8787  1.3174  0.2725
 3428TIP3   OH231774   3.048   4.366   3.512 -0.4172 -0.0661 -0.3302
 3428TIP3    H131775   3.106   4.437   3.486 -1.1427  0.4079 -0.6633
 3428TIP3    H231776   2.963   4.407   3.526 -0.8659 -0.8733 -0.6167
 3429TIP3   OH231777   0.543   2.056  17.192  1.1019  0.4403  0.4389
 3429TIP3    H131778   0.548   2.138  17.143 -0.0792  1.2014  1.5932
 3429TIP3    H231779   0.628   2.014  17.177  1.1844  1.1949 -1.3190
 3430TIP3   OH231780   4.646   4.371   4.201 -0.5198  0.5804 -0.5274
 3430TIP3    H131781   4.634   4.387   4.295  3.0354 -0.4395  0.1793
 3430TIP3    H231782   4.651   4.459   4.162  0.9609  1.0344  0.6702
 3431TIP3   OH231783   0.668   4.166  14.314  0.0974  0.7677 -0.0408
 3431TIP3    H131784   0.610   4.228  14.269 -1.2164 -0.6571 -0.3665
 3431TIP3    H231785   0.679   4.204  14.401  1.2188  2.6479 -0.9574
 3432TIP3   OH231786   1.633   6.077  15.749  0.1347 -0.9540 -0.3133
 3432TIP3    H131787   1.575   6.019  15.700  0.8565 -0.7151 -1.4802
 3432TIP3    H231788   1.679   6.019  15.809 -0.3115 -1.3512 -0.3493
 3433TIP3   OH231789   3.906   5.364   5.164  0.5550  0.7097  0.5473
 3433TIP3    H131790   3.818   5.379   5.199  0.0699  0.8294 -0.7084
 3433TIP3    H231791   3.893   5.357   5.069  1.7927 -0.0666  0.4286
 3434TIP3   OH231792   3.005   6.015   0.850 -0.4684 -0.0110  0.1878
 3434TIP3    H131793   2.956   5.934   0.834  0.3306 -0.7454  1.3588
 3434TIP3    H231794   2.942   6.073   0.891  0.1859 -1.7601  3.8260
 3435TIP3   OH231795   0.006   3.391   3.176 -0.3123 -0.6449 -0.6547
 3435TIP3    H131796  -0.061   3.456   3.199 -0.2868  0.4622 -3.4679
 3435TIP3    H231797   0.089   3.433   3.198 -0.4361 -1.0064  0.5004
 3436TIP3   OH231798   0.951   1.534   4.556  0.0712 -0.1256  0.1464
 3436TIP3    H131799   0.895   1.597   4.601 -0.5733 -1.1769  0.8366
 3436TIP3    H231800   1.019   1.587   4.515 -1.6571  1.2107 -1.0441
 3437TIP3   OH231801   3.045   6.653  16.784 -0.2377  1.0215  0.0439
 3437TIP3    H131802   3.093   6.570  16.775  1.0072  1.9240 -2.1008
 3437TIP3    H231803   3.047   6.672  16.877  0.5351 -0.7514  0.4190
 3438TIP3   OH231804   2.966   3.924   2.969  0.2601  0.2816 -0.3722
 3438TIP3    H131805   2.875   3.898   2.979  0.6624 -0.8428  0.4363
 3438TIP3    H231806   2.964   4.020   2.965 -0.7027  0.4104  2.4012
 3439TIP3   OH231807   3.852   1.116  12.334 -0.1197  0.0400 -0.0293
 3439TIP3    H131808   3.826   1.078  12.250  0.5489  1.4873 -0.9343
 3439TIP3    H231809   3.943   1.089  12.345  0.1529  0.7743 -0.3601
 3440TIP3   OH231810   0.727   5.923  14.448 -0.0213  0.6130 -0.2212
 3440TIP3    H131811   0.651   5.963  14.404  0.0316  1.0218  0.0648
 3440TIP3    H231812   0.692   5.889  14.530 -0.2102 -0.5232 -0.7458
 3441TIP3   OH231813   5.816   2.285   0.227  0.0226 -0.0542 -0.8315
 3441TIP3    H131814   5.736   2.276   0.279  0.4383 -1.2736 -0.3922
 3441TIP3    H231815   5.887   2.279   0.290  0.5087 -0.6943 -1.4362
 3442TIP3   OH231816   2.057   1.510   1.692  0.6515  0.2517  0.6044
 3442TIP3    H131817   2.098   1.435   1.650 -0.3576 -0.4117  0.7617
 3442TIP3    H231818   2.119   1.582   1.681  1.7684 -0.6831  0.7270
 3443TIP3   OH231819   0.706   1.330   0.764 -0.2158 -0.0912  0.1351
 3443TIP3    H131820   0.685   1.416   0.727  1.8251  0.3550 -0.0617
 3443TIP3    H231821   0.687   1.340   0.857  0.6340  0.8048  0.2283
 3444TIP3   OH231822   1.339   5.045   3.281 -0.1703 -0.7634  0.1258
 3444TIP3    H131823   1.256   4.998   3.277  0.2440 -1.5090  0.2872
 3444TIP3    H231824   1.403   4.984   3.246  0.4535 -0.5027  0.8005
 3445TIP3   OH231825   3.799   4.808   3.669  0.1198  0.1345 -0.2937
 3445TIP3    H131826   3.712   4.839   3.645  0.1409  1.5236  1.3777
 3445TIP3    H231827   3.821   4.746   3.599 -0.5698  2.6326 -2.8447
 3446TIP3   OH231828   2.130   5.613  17.199  0.6791  0.4012  0.1393
 3446TIP3    H131829   2.076   5.571  17.131  1.0251 -0.0723  0.1568
 3446TIP3    H231830   2.067   5.659  17.255  0.3484  0.3650 -0.2023
 3447TIP3   OH231831   1.106   4.351  16.312  0.2013  1.1119 -0.1277
 3447TIP3    H131832   1.131   4.414  16.244  1.6501  0.7844  0.0910
 3447TIP3    H231833   1.118   4.265  16.271 -0.5884  0.9486 -0.0212
 3448TIP3   OH231834   0.490   4.271  10.353  0.1289  0.4469 -0.5042
 3448TIP3    H131835   0.399   4.248  10.368 -0.6200  2.5262 -1.7397
 3448TIP3    H231836   0.518   4.214  10.282  0.0442 -0.7556  0.4151
 3449TIP3   OH231837   1.121   0.297  13.751 -0.2217  0.8620  0.4949
 3449TIP3    H131838   1.192   0.338  13.800  0.5276  0.7157 -0.4607
 3449TIP3    H231839   1.164   0.247  13.683 -1.1670 -0.9622  1.2090
 3450TIP3   OH231840   3.109   5.100   0.721 -0.7819 -0.2027 -0.1692
 3450TIP3    H131841   3.122   5.179   0.774  1.2195  0.5034 -1.6390
 3450TIP3    H231842   3.038   5.122   0.661 -0.8244  0.1596  0.0127
 3451TIP3   OH231843   1.820   0.502  14.174  0.1224  0.2379 -0.0448
 3451TIP3    H131844   1.812   0.407  14.175  0.7746  0.1841  0.0334
 3451TIP3    H231845   1.910   0.519  14.144  0.9849  0.7622  2.7251
 3452TIP3   OH231846   0.380   1.234  12.391 -0.4340 -0.0925  0.2206
 3452TIP3    H131847   0.289   1.219  12.417 -0.9496  0.4951 -1.1946
 3452TIP3    H231848   0.392   1.329  12.403 -0.0187 -0.1659  0.3785
 3453TIP3   OH231849   6.388   1.385  14.311  0.0077  0.1134 -0.4959
 3453TIP3    H131850   6.315   1.395  14.251 -0.5885 -0.7854  0.0519
 3453TIP3    H231851   6.463   1.361  14.256 -0.5679 -0.8452 -0.8678
 3454TIP3   OH231852   5.650   1.681   3.238 -0.1785  0.0345  0.1911
 3454TIP3    H131853   5.683   1.594   3.215  1.0344  0.2290  1.1187
 3454TIP3    H231854   5.630   1.722   3.154  0.1256 -0.8050 -0.3020
 3455TIP3   OH231855   2.528   1.270   1.165  0.0153 -0.4808 -0.5611
 3455TIP3    H131856   2.585   1.210   1.117 -0.7917 -1.0789 -0.7787
 3455TIP3    H231857   2.498   1.334   1.100 -0.1138 -0.5728 -0.5912
 3456TIP3   OH231858   3.604   5.050   2.032 -0.3982 -0.1055 -0.0369
 3456TIP3    H131859   3.584   4.991   2.105  0.5279 -0.3856  0.0011
 3456TIP3    H231860   3.593   4.995   1.954 -0.2017 -0.1404 -0.0401
 3457TIP3   OH231861   4.997   5.441   4.837  0.4050 -0.1024  0.4291
 3457TIP3    H131862   5.015   5.503   4.907 -2.7330 -0.5114  1.6810
 3457TIP3    H231863   4.912   5.467   4.802  0.0291 -2.3644 -0.4832
 3458TIP3   OH231864   1.150   5.396   1.351 -0.0375  0.3079 -0.6514
 3458TIP3    H131865   1.197   5.369   1.430  0.7855  0.7566 -0.9799
 3458TIP3    H231866   1.170   5.328   1.287  1.0775  1.0660 -1.1249
 3459TIP3   OH231867   4.681   1.317  12.196 -0.6704 -0.3679 -0.2966
 3459TIP3    H131868   4.688   1.307  12.291 -1.1857  0.5267 -0.1661
 3459TIP3    H231869   4.760   1.275  12.162  0.2210  0.5780  0.6031
 3460TIP3   OH231870   0.053   6.233   2.484  0.2565  0.0938 -0.0731
 3460TIP3    H131871   0.047   6.267   2.395  2.2782  1.2867  0.2218
 3460TIP3    H231872   0.073   6.310   2.538 -0.2964 -0.7220  1.3216
 3461TIP3   OH231873   3.383   2.035   0.464  0.1431 -0.0497 -0.9666
 3461TIP3    H131874   3.456   1.983   0.431  1.1392  0.0901  0.9388
 3461TIP3    H231875   3.371   2.103   0.398  0.9992 -0.7281 -1.8440
 3462TIP3   OH231876   2.467   6.815   4.160 -0.6562 -0.3185 -0.0542
 3462TIP3    H131877   2.446   6.888   4.102  0.4085  0.6280  0.7184
 3462TIP3    H231878   2.540   6.847   4.213 -2.3065 -0.7512  2.5817
 3463TIP3   OH231879   4.916   3.373   4.750 -0.1363  0.2274 -0.2542
 3463TIP3    H131880   4.842   3.392   4.808  1.3099 -1.5687  2.2531
 3463TIP3    H231881   4.960   3.457   4.740 -0.7760  0.6952  0.7041
 3464TIP3   OH231882   2.712   1.810  13.255 -0.6533  0.2469  0.0573
 3464TIP3    H131883   2.651   1.759  13.308  0.0294 -1.0803 -0.4089
 3464TIP3    H231884   2.734   1.886  13.309 -1.2516 -0.2419  0.9849
 3465TIP3   OH231885   4.963   5.103  16.652  0.3270  0.1771 -0.2691
 3465TIP3    H131886   4.974   5.027  16.708  2.4074  1.1372  0.6876
 3465TIP3    H231887   4.888   5.082  16.596  1.3510 -2.8910 -0.5594
 3466TIP3   OH231888   0.899   2.317  11.631  0.2711 -0.2944  0.0344
 3466TIP3    H131889   0.848   2.238  11.614  0.1635 -0.2839  0.3055
 3466TIP3    H231890   0.851   2.362  11.701  0.6095 -0.2416  0.2320
 3467TIP3   OH231891   1.847   3.439  17.190 -0.2090 -0.5736  0.0438
 3467TIP3    H131892   1.906   3.468  17.120 -0.6036  1.1182  0.3765
 3467TIP3    H231893   1.777   3.393  17.145 -0.3909  0.3854 -0.6753
 3468TIP3   OH231894   3.051   5.837   6.157 -0.2334  0.1621 -0.0810
 3468TIP3    H131895   3.005   5.857   6.238  0.5209  3.3817 -0.4004
 3468TIP3    H231896   2.981   5.824   6.093 -0.7887 -0.3015  0.6126
 3469TIP3   OH231897   4.792   4.396  13.932 -0.2694 -0.8799  0.1637
 3469TIP3    H131898   4.754   4.318  13.893 -0.1429 -0.9432  0.1679
 3469TIP3    H231899   4.718   4.457  13.941 -0.6936 -1.5752  1.6410
 3470TIP3   OH231900   6.260   1.175  11.217 -0.6535 -0.1318  0.2316
 3470TIP3    H131901   6.327   1.109  11.234 -0.8622 -0.2480  0.5849
 3470TIP3    H231902   6.187   1.126  11.181 -0.4009  0.0460 -0.5465
 3471TIP3   OH231903   6.092   3.939   3.728 -0.1893 -0.0343 -0.1578
 3471TIP3    H131904   6.177   3.959   3.768  0.2866 -1.0433 -0.6280
 3471TIP3    H231905   6.044   3.892   3.796  1.2587 -3.2823 -1.2359
 3472TIP3   OH231906   4.999   3.574  12.974 -0.0466 -0.2360 -0.0840
 3472TIP3    H131907   4.929   3.624  13.017 -0.7534 -1.5284  0.3217
 3472TIP3    H231908   4.974   3.482  12.988 -0.4005 -0.7162 -3.3977
 3473TIP3   OH231909   3.572   0.237   4.872  0.1463 -0.5463 -0.3947
 3473TIP3    H131910   3.645   0.216   4.814  1.4144 -2.1362  1.7143
 3473TIP3    H231911   3.517   0.159   4.871  1.0434 -1.2433  1.7933
 3474TIP3   OH231912   1.380   5.292   2.210  0.6156 -0.0799 -0.4303
 3474TIP3    H131913   1.451   5.356   2.198  1.0453 -0.4350  0.1537
 3474TIP3    H231914   1.382   5.239   2.131  0.6522  0.2489 -0.6520
 3475TIP3   OH231915   5.498   1.757  14.612  0.0406  0.1360 -0.0224
 3475TIP3    H131916   5.513   1.677  14.560 -3.1253  0.7204 -1.9971
 3475TIP3    H231917   5.432   1.731  14.677  1.1691  0.3981  1.2323
 3476TIP3   OH231918   3.325   5.282  13.516 -0.0721  0.0570 -0.2573
 3476TIP3    H131919   3.302   5.270  13.608  1.3140 -2.4386 -0.1752
 3476TIP3    H231920   3.346   5.375  13.507 -1.2709  0.5313  1.6742
 3477TIP3   OH231921   4.899   0.594   3.014 -0.0171 -0.3164 -0.2729
 3477TIP3    H131922   4.850   0.594   2.932 -0.0515 -0.5541 -0.2517
 3477TIP3    H231923   4.839   0.634   3.078 -0.2074 -0.6658 -0.2320
 3478TIP3   OH231924   3.559   0.552   5.869  0.2726 -0.6231 -0.5330
 3478TIP3    H131925   3.593   0.635   5.835 -0.9757 -0.7075 -2.0379
 3478TIP3    H231926   3.484   0.532   5.813 -1.3607 -1.1648  1.8187
 3479TIP3   OH231927   5.191   6.711   2.837 -0.5208  0.4344  0.5311
 3479TIP3    H131928   5.133   6.703   2.761 -0.1097 -0.2358  0.2825
 3479TIP3    H231929   5.214   6.621   2.858  0.1148  0.6795  0.8749
 3480TIP3   OH231930   4.814   2.414   4.567 -0.1061 -0.0503 -0.6344
 3480TIP3    H131931   4.906   2.392   4.552 -0.2415 -0.3569 -1.0577
 3480TIP3    H231932   4.802   2.407   4.661  0.9833  2.7420 -0.2443
 3481TIP3   OH231933   1.792   3.222  15.717  0.1982  0.2596 -0.4786
 3481TIP3    H131934   1.828   3.230  15.629  0.3652  1.0301 -0.3384
 3481TIP3    H231935   1.787   3.311  15.750 -0.3539  0.0194  0.1027
 3482TIP3   OH231936   6.198   4.115  13.307 -0.0611  0.7793  0.3318
 3482TIP3    H131937   6.160   4.124  13.394 -1.6103 -1.3998 -0.0734
 3482TIP3    H231938   6.280   4.068  13.321 -0.7289 -0.3284  0.5200
 3483TIP3   OH231939   1.433   3.994  10.952  0.1943 -0.7630 -0.2361
 3483TIP3    H131940   1.355   4.049  10.958  1.4116  0.9533 -0.0304
 3483TIP3    H231941   1.442   3.977  10.858  0.0820 -0.2236 -0.3469
 3484TIP3   OH231942   3.239   3.571  13.676  0.0608 -0.1847 -0.3685
 3484TIP3    H131943   3.282   3.657  13.673  1.6111 -0.8389  1.7860
 3484TIP3    H231944   3.148   3.590  13.699 -0.0573  0.9958 -1.7309
 3485TIP3   OH231945   6.032   3.500   4.729  0.1945  0.2024 -0.9561
 3485TIP3    H131946   6.016   3.414   4.767 -1.6266  0.5413 -0.9238
 3485TIP3    H231947   5.946   3.529   4.699  0.6397  2.3930 -0.1769
 3486TIP3   OH231948   5.887   4.983  11.232  0.1188  0.3823 -0.2732
 3486TIP3    H131949   5.838   5.045  11.287  0.7933  0.1205  0.6332
 3486TIP3    H231950   5.960   5.035  11.198 -0.0073  0.4071 -0.5092
 3487TIP3   OH231951   5.531   4.461  15.970 -0.0380 -0.4548  0.4517
 3487TIP3    H131952   5.525   4.557  15.968 -1.4122 -0.5191  1.1347
 3487TIP3    H231953   5.624   4.444  15.989  0.1153  0.7507  0.8557
 3488TIP3   OH231954   1.116   1.163  13.313 -0.2447  0.4933  0.2818
 3488TIP3    H131955   1.064   1.085  13.295  0.7819 -0.5230  1.5547
 3488TIP3    H231956   1.125   1.163  13.409 -0.0760  2.0631  0.2642
 3489TIP3   OH231957   4.211   4.806  15.329  0.1491  0.4451  0.0856
 3489TIP3    H131958   4.296   4.845  15.310  0.1857  1.2388  1.7436
 3489TIP3    H231959   4.154   4.880  15.350 -0.5740 -0.1756  0.3606
 3490TIP3   OH231960   0.378   2.112   2.111  0.0591  0.1735  0.2459
 3490TIP3    H131961   0.358   2.193   2.157  1.3501  0.1887  0.7931
 3490TIP3    H231962   0.406   2.139   2.024  1.5146  0.3835  0.7725
 3491TIP3   OH231963   1.219   4.030  14.477 -0.4238 -0.4766  0.3520
 3491TIP3    H131964   1.216   4.124  14.493 -1.1665 -0.0662 -2.0316
 3491TIP3    H231965   1.303   4.015  14.434 -2.4061 -0.0735 -3.8876
 3492TIP3   OH231966   0.118   0.693  16.706 -0.5198  0.0373  0.1855
 3492TIP3    H131967   0.109   0.655  16.794  0.7152  0.6783  0.5904
 3492TIP3    H231968   0.151   0.622  16.652 -0.3140 -0.0717  0.4559
 3493TIP3   OH231969   2.839   0.450  13.271  0.2149 -0.1559  0.0886
 3493TIP3    H131970   2.780   0.403  13.329 -0.8701  0.2158 -0.7072
 3493TIP3    H231971   2.899   0.497  13.330 -1.3027  0.7702  0.9300
 3494TIP3   OH231972   3.059   4.764  16.636 -0.1904 -0.3822  0.7093
 3494TIP3    H131973   3.043   4.671  16.650 -0.8680 -0.2773  0.6477
 3494TIP3    H231974   3.056   4.775  16.541  0.2636 -0.3616  0.6949
 3495TIP3   OH231975   3.563   1.006   3.583  0.0601 -0.3259 -0.0271
 3495TIP3    H131976   3.628   0.982   3.517  1.9668  0.9393  1.3082
 3495TIP3    H231977   3.575   0.942   3.653 -0.0490 -0.0091  0.2815
 3496TIP3   OH231978   3.107   1.156   4.474  0.4732 -0.1298 -0.8103
 3496TIP3    H131979   3.017   1.170   4.503  0.0405 -0.1752 -2.1052
 3496TIP3    H231980   3.113   1.200   4.389  2.4879  2.3262  0.5178
 3497TIP3   OH231981   2.606   2.179   6.088  0.2922  0.5857  0.2986
 3497TIP3    H131982   2.650   2.180   6.173  1.3066 -1.8404 -0.1586
 3497TIP3    H231983   2.538   2.113   6.097 -0.1240  0.8999 -0.5121
 3498TIP3   OH231984   1.099   6.257  15.838 -0.4566  0.6089 -0.1903
 3498TIP3    H131985   1.113   6.168  15.806 -0.5678 -0.5125  2.8032
 3498TIP3    H231986   1.005   6.272  15.828 -0.5254  0.2047 -0.1501
 3499TIP3   OH231987   1.227   5.752   5.919 -0.4928  0.1366  0.4445
 3499TIP3    H131988   1.275   5.752   6.002 -2.2100  0.6213  1.4519
 3499TIP3    H231989   1.260   5.675   5.872  1.8120  0.8664  0.7816
 3500TIP3   OH231990   0.335   5.989  10.875 -0.0771  0.4280 -0.6429
 3500TIP3    H131991   0.350   6.078  10.843  0.0771  0.6748  0.1125
 3500TIP3    H231992   0.254   5.995  10.926  1.8624  0.9458  2.5026
 3501TIP3   OH231993   0.229   6.553   1.287 -0.0938 -0.5873  0.3842
 3501TIP3    H131994   0.262   6.465   1.303 -0.9913 -1.3029 -1.5253
 3501TIP3    H231995   0.135   6.541   1.275 -0.3984  0.8088  1.2698
 3502TIP3   OH231996   4.639   5.530   5.980  0.1098 -0.2804  0.3209
 3502TIP3    H131997   4.703   5.540   5.910  0.3655 -0.0119  0.5919
 3502TIP3    H231998   4.675   5.461   6.036  0.7143  0.6412  1.0822
 3503TIP3   OH231999   0.131   2.709   0.521  0.1428 -0.0258 -0.9333
 3503TIP3    H132000   0.089   2.640   0.470 -0.6600  0.9212 -1.5505
 3503TIP3    H232001   0.063   2.740   0.581  0.9677 -0.8703  0.4792
 3504TIP3   OH232002   3.749   6.024  16.885  0.5626  0.4190  0.4428
 3504TIP3    H132003   3.829   6.028  16.833  0.0621  0.4197 -0.3489
 3504TIP3    H232004   3.774   5.980  16.966  1.2033 -0.2448 -0.1087
 3505TIP3   OH232005   6.416   5.120   0.888 -0.0743 -0.9317 -0.2122
 3505TIP3    H132006   6.469   5.103   0.966 -0.2906 -0.5763  0.0126
 3505TIP3    H232007   6.460   5.193   0.844 -0.5669 -0.4131  0.1530
 3506TIP3   OH232008   2.748   1.573  11.788  0.1275  0.5967  0.3420
 3506TIP3    H132009   2.831   1.582  11.834  0.8536  0.5215 -0.9334
 3506TIP3    H232010   2.729   1.661  11.755 -0.0934  0.5304  0.2856
 3507TIP3   OH232011   0.745   6.732  13.917  0.9421 -0.1575  0.1264
 3507TIP3    H132012   0.680   6.756  13.852  1.7901 -0.2937 -0.7842
 3507TIP3    H232013   0.829   6.739  13.871  1.6335  0.7194  1.4827
 3508TIP3   OH232014   6.401   2.219   2.548  0.7973  0.3653 -0.4194
 3508TIP3    H132015   6.379   2.237   2.639  3.2924  0.1907  0.2447
 3508TIP3    H232016   6.443   2.299   2.517  2.8309 -0.6776 -0.4416
 3509TIP3   OH232017   1.855   1.263  13.504  0.4334  0.7029  0.5491
 3509TIP3    H132018   1.816   1.281  13.419  0.7090  0.9818  0.4819
 3509TIP3    H232019   1.790   1.211  13.550  0.7433 -0.4032 -0.2473
 3510TIP3   OH232020   4.390   1.461   5.709  0.3123  0.5743  0.3622
 3510TIP3    H132021   4.396   1.554   5.689  0.4913  0.6109  0.5852
 3510TIP3    H232022   4.462   1.445   5.771  1.5495 -0.1214 -1.2157
 3511TIP3   OH232023   3.988   3.676  11.426 -0.5669  0.1133 -0.0266
 3511TIP3    H132024   3.946   3.755  11.392  1.3213  0.7215 -0.9797
 3511TIP3    H232025   4.032   3.637  11.350  1.0665 -0.1993  1.0602
 3512TIP3   OH232026   1.295   6.202  13.722  0.0928 -0.8060 -0.2728
 3512TIP3    H132027   1.332   6.196  13.634  1.3238  1.1592  0.0821
 3512TIP3    H232028   1.353   6.262  13.768 -1.5221 -0.4756  1.3809
 3513TIP3   OH232029   1.087   2.858   2.273 -0.6205 -0.0701  0.3733
 3513TIP3    H132030   1.064   2.946   2.243 -1.4208 -0.1105  0.8609
 3513TIP3    H232031   1.169   2.870   2.322  0.0758  0.1690 -0.8234
 3514TIP3   OH232032   6.541   4.884   6.286 -0.0521  0.5778  0.6063
 3514TIP3    H132033   6.611   4.820   6.303  0.0370  0.4666 -0.1901
 3514TIP3    H232034   6.509   4.907   6.374  0.8981  0.5359  0.9738
 3515TIP3   OH232035   5.657   5.674   1.416 -0.3108 -0.1890  0.0681
 3515TIP3    H132036   5.632   5.606   1.354  2.0377 -1.6570  0.6783
 3515TIP3    H232037   5.700   5.741   1.362 -0.6774 -0.1993 -0.2393
 3516TIP3   OH232038   5.893   1.394  11.409  0.0157  0.4731  0.4201
 3516TIP3    H132039   5.957   1.406  11.480 -0.1638  3.1199  0.1701
 3516TIP3    H232040   5.946   1.393  11.329 -0.2322  2.9124  0.1937
 3517TIP3   OH232041   3.474   0.743   5.196 -0.0384  0.2483 -0.2912
 3517TIP3    H132042   3.560   0.754   5.156 -0.0289 -0.8808 -0.6181
 3517TIP3    H232043   3.492   0.720   5.287  0.0176 -0.0856 -0.3845
 3518TIP3   OH232044   6.001   0.407   0.704  0.4415 -0.2486 -0.5679
 3518TIP3    H132045   5.934   0.355   0.660  0.8631 -1.0736 -0.2560
 3518TIP3    H232046   6.084   0.375   0.667  0.6221  1.5388 -1.7712
 3519TIP3   OH232047   2.018   5.186  16.873  0.5550 -0.1440 -0.2815
 3519TIP3    H132048   1.967   5.245  16.817 -0.3200 -2.4625 -2.0084
 3519TIP3    H232049   1.959   5.164  16.945  0.3394 -0.0870 -0.4379
 3520TIP3   OH232050   0.822   5.825  12.298  0.1227 -0.1205  0.2086
 3520TIP3    H132051   0.818   5.912  12.257  0.7253 -0.6535 -0.9945
 3520TIP3    H232052   0.734   5.810  12.330 -0.0489  0.8417  0.2133
 3521TIP3   OH232053   3.770   2.263  14.778  0.0006 -0.0386 -0.3602
 3521TIP3    H132054   3.758   2.334  14.715  0.2161  1.1633  0.9331
 3521TIP3    H232055   3.852   2.284  14.823 -1.5292  0.6629  2.2356
 3522TIP3   OH232056   6.232   5.621   3.339  0.7721 -0.1054 -0.1912
 3522TIP3    H132057   6.230   5.716   3.334  0.0031 -0.0475  0.9897
 3522TIP3    H232058   6.320   5.600   3.371  0.9180  0.2162 -0.3882
 3523TIP3   OH232059   3.386   5.796  12.496 -0.2269 -1.0770  1.0519
 3523TIP3    H132060   3.334   5.857  12.444  0.8220  0.2379  1.5417
 3523TIP3    H232061   3.338   5.789  12.579  1.1942  1.3605  2.1028
 3524TIP3   OH232062   2.725   5.964   0.523  0.4409 -0.9793  0.7511
 3524TIP3    H132063   2.766   6.050   0.513  0.4500 -1.0959 -0.2702
 3524TIP3    H232064   2.643   5.971   0.474  1.2603 -2.0964 -0.8268
 3525TIP3   OH232065   5.373   5.536   2.650  0.8993  0.1822 -0.6559
 3525TIP3    H132066   5.362   5.474   2.723  1.7716  0.8224  0.0256
 3525TIP3    H232067   5.463   5.566   2.658  1.0553  0.1110 -2.1263
 3526TIP3   OH232068   3.033   2.920  16.441  0.1245 -0.0363 -0.0381
 3526TIP3    H132069   3.115   2.908  16.392 -0.1445 -1.1654 -0.2106
 3526TIP3    H232070   3.039   2.856  16.512 -0.0797  0.6986  0.6446
 3527TIP3   OH232071   1.943   2.634  17.284 -0.2781 -0.0168 -0.3848
 3527TIP3    H132072   1.996   2.677  17.217 -0.5382  0.2668 -0.4110
 3527TIP3    H232073   1.954   2.540  17.267 -1.4336  0.0718 -1.6821
 3528TIP3   OH232074   0.868   5.592   0.460 -0.0434 -0.2204 -0.4065
 3528TIP3    H132075   0.911   5.643   0.529 -0.4521 -2.4345  1.5531
 3528TIP3    H232076   0.935   5.530   0.432 -0.2567 -0.0978 -1.1951
 3529TIP3   OH232077   4.743   5.424  14.907 -0.0095 -0.4059 -0.4988
 3529TIP3    H132078   4.813   5.479  14.874 -1.0491  1.1496 -0.1404
 3529TIP3    H232079   4.715   5.373  14.831 -0.3134  0.9209 -1.2956
 3530TIP3   OH232080   1.164   2.940   3.571 -0.0635 -0.7142  0.2569
 3530TIP3    H132081   1.226   2.951   3.643 -0.4135  1.2509  0.2773
 3530TIP3    H232082   1.212   2.891   3.504  1.2338  0.0610  0.6115
 3531TIP3   OH232083   3.369   5.717   1.568  0.3127  0.0607 -0.9914
 3531TIP3    H132084   3.362   5.755   1.655 -1.3169 -0.6142 -0.8121
 3531TIP3    H232085   3.374   5.623   1.583  0.1730 -0.0484 -1.6095
 3532TIP3   OH232086   6.816   5.925  16.881 -0.0529 -0.5599  0.7076
 3532TIP3    H132087   6.889   5.901  16.825  0.9305 -0.1745  1.8038
 3532TIP3    H232088   6.856   5.967  16.957 -1.3376 -1.4552  1.9108
 3533TIP3   OH232089   2.391   5.284  15.676 -0.2088  0.2588 -0.0624
 3533TIP3    H132090   2.370   5.289  15.770 -0.6348 -1.1094 -0.0641
 3533TIP3    H232091   2.445   5.205  15.669  0.6737  0.9228 -0.8314
 3534TIP3   OH232092   0.435   5.392  10.964  0.0614  0.2573  0.1343
 3534TIP3    H132093   0.361   5.353  11.011  1.3340 -0.1722  1.7856
 3534TIP3    H232094   0.501   5.324  10.960  0.5339  0.7564 -1.0467
 3535TIP3   OH232095   4.888   3.488   5.040 -0.0517 -0.0924  0.4025
 3535TIP3    H132096   4.936   3.521   4.964 -0.2331 -1.4150 -0.3130
 3535TIP3    H232097   4.844   3.565   5.076 -0.4491  0.4617 -1.2030
 3536TIP3   OH232098   3.008   1.255  12.643  0.3944 -0.3778  0.5772
 3536TIP3    H132099   3.042   1.344  12.632 -0.9677  0.0192 -0.5965
 3536TIP3    H232100   3.029   1.232  12.734  1.9089  0.6367  0.4996
 3537TIP3   OH232101   2.395   1.367   0.172  0.5881  0.0971  0.0304
 3537TIP3    H132102   2.342   1.355   0.094 -0.7496  1.5397  0.6920
 3537TIP3    H232103   2.401   1.280   0.211 -0.2314 -0.3021 -0.7232
 3538TIP3   OH232104   6.782   5.294   5.372  0.3071 -0.8110 -0.5072
 3538TIP3    H132105   6.778   5.388   5.390  0.9734 -0.4073 -2.4454
 3538TIP3    H232106   6.690   5.267   5.363  0.1158 -0.3646  0.0911
 3539TIP3   OH232107   4.776   6.115  17.019 -0.1338  0.2734  0.2184
 3539TIP3    H132108   4.710   6.056  16.981  1.2161 -0.6453 -0.7439
 3539TIP3    H232109   4.742   6.203  17.002 -0.7549 -0.1726 -0.9378
 3540TIP3   OH232110   4.380   1.268   5.321  0.4971 -0.3533 -0.2587
 3540TIP3    H132111   4.380   1.364   5.316  1.7960 -0.2945  0.5279
 3540TIP3    H232112   4.462   1.247   5.366  0.0036 -1.8142 -0.0256
 3541TIP3   OH232113   0.824   2.453  16.744  0.0861  0.3176 -0.0098
 3541TIP3    H132114   0.811   2.540  16.783  1.5878  0.1912  0.8353
 3541TIP3    H232115   0.851   2.399  16.818 -0.7347 -0.8476 -0.5589
 3542TIP3   OH232116   0.950   6.460   3.881 -0.4726 -0.6837 -0.2049
 3542TIP3    H132117   0.976   6.495   3.796 -0.1485 -1.5491 -0.4632
 3542TIP3    H232118   0.890   6.525   3.916 -0.4984 -0.2558 -1.0360
 3543TIP3   OH232119   3.862   6.572  14.533 -0.0875  0.3211  0.7107
 3543TIP3    H132120   3.890   6.480  14.524 -0.7024  0.2667 -0.8203
 3543TIP3    H232121   3.767   6.568  14.537 -0.3597  1.1065 -3.0510
 3544TIP3   OH232122   3.239   4.515   5.046 -0.2826  0.0231  0.4551
 3544TIP3    H132123   3.239   4.534   5.140  1.5068  1.2784  0.2387
 3544TIP3    H232124   3.328   4.484   5.028 -0.6491 -0.3417 -0.8136
 3545TIP3   OH232125   1.649   5.749   2.061  0.2314  0.8444  0.1399
 3545TIP3    H132126   1.713   5.734   2.130 -0.0641  0.1676  0.2809
 3545TIP3    H232127   1.629   5.842   2.066  1.8178  1.2179 -0.4599
 3546TIP3   OH232128   3.213   2.604   4.579  0.5715  0.1640 -0.3263
 3546TIP3    H132129   3.133   2.566   4.616  0.7647  0.0324 -0.0449
 3546TIP3    H232130   3.200   2.698   4.585  0.4370  0.1426 -0.2830
 3547TIP3   OH232131   3.022   2.742   0.964 -0.4963  0.2840 -0.0354
 3547TIP3    H132132   3.037   2.833   0.991 -1.9214 -0.0468  1.9924
 3547TIP3    H232133   2.956   2.709   1.025 -2.8955 -0.9733 -3.1358
 3548TIP3   OH232134   5.216   0.127   2.245  0.2974  0.1218 -0.2163
 3548TIP3    H132135   5.194   0.040   2.278  1.5428  0.3591  1.2802
 3548TIP3    H232136   5.227   0.180   2.323  1.2597  1.2075 -1.0692
 3549TIP3   OH232137   5.072   4.074  16.852 -0.2508  0.1073 -0.0602
 3549TIP3    H132138   5.010   4.147  16.857 -1.8919 -1.3076  0.6211
 3549TIP3    H232139   5.046   4.026  16.773  0.7840  0.2048 -0.4674
 3550TIP3   OH232140   1.648   3.620   1.651 -0.1623  0.1734 -0.8882
 3550TIP3    H132141   1.691   3.594   1.570 -0.8130 -0.1501 -1.1320
 3550TIP3    H232142   1.555   3.621   1.630 -0.6258 -3.0220  0.6607
 3551TIP3   OH232143   6.615   5.739   5.743 -0.1001 -0.0639  0.2381
 3551TIP3    H132144   6.686   5.784   5.790 -2.2238  0.0560  3.5069
 3551TIP3    H232145   6.559   5.810   5.711  0.2159 -0.2030 -0.6186
 3552TIP3   OH232146   0.242   4.861  15.743  0.6661 -0.0214 -0.2095
 3552TIP3    H132147   0.211   4.949  15.763 -2.7947 -1.8766  3.1669
 3552TIP3    H232148   0.171   4.820  15.695  1.2682 -1.7444  0.3318
 3553TIP3   OH232149   6.528   4.765  16.279 -0.0547  0.3773 -0.4806
 3553TIP3    H132150   6.506   4.696  16.342 -2.1625  1.7425  0.3400
 3553TIP3    H232151   6.562   4.837  16.333  0.2344  0.7289 -1.1190
 3554TIP3   OH232152   3.809   3.110   5.128  0.0901 -0.3577 -0.6443
 3554TIP3    H132153   3.728   3.062   5.111 -0.9406  0.9772  0.4582
 3554TIP3    H232154   3.815   3.116   5.223  1.2837 -0.0996 -0.7232
 3555TIP3   OH232155   0.989   4.804   5.666  0.2754 -0.3850 -0.1297
 3555TIP3    H132156   0.926   4.780   5.599  0.6495  0.9082 -0.9689
 3555TIP3    H232157   1.064   4.838   5.618  0.9618 -0.3775  0.9107
 3556TIP3   OH232158   4.451   0.246   4.220  0.2701  0.0960  0.1397
 3556TIP3    H132159   4.478   0.158   4.195 -0.9722 -0.3811  0.4941
 3556TIP3    H232160   4.439   0.243   4.315  0.7893  0.8023  0.2366
 3557TIP3   OH232161   0.220   1.292   4.055 -0.2260 -0.2814 -0.0005
 3557TIP3    H132162   0.134   1.307   4.017 -0.2860 -2.0127 -0.5744
 3557TIP3    H232163   0.209   1.312   4.148 -0.6508  1.7188 -0.4674
 3558TIP3   OH232164   5.253   0.614   2.653 -0.1911 -0.4063 -0.0945
 3558TIP3    H132165   5.185   0.681   2.643  0.8207  0.7995  0.9741
 3558TIP3    H232166   5.311   0.628   2.578 -0.1663 -0.3100 -0.0576
 3559TIP3   OH232167   3.648   3.207   4.296  0.5873 -0.0119 -0.4332
 3559TIP3    H132168   3.585   3.155   4.345  2.5450 -0.6457  1.5130
 3559TIP3    H232169   3.608   3.294   4.289 -0.8801 -0.6471 -0.0665
 3560TIP3   OH232170   6.306   1.796   1.330  0.4229  0.4495  0.4899
 3560TIP3    H132171   6.269   1.830   1.411 -1.0538 -1.9917  0.8908
 3560TIP3    H232172   6.399   1.783   1.350  0.3297  1.1005  1.3708
 3561TIP3   OH232173   3.624   0.739  12.234 -0.1938 -0.4799 -0.3515
 3561TIP3    H132174   3.543   0.748  12.285  1.6493 -2.0469  2.9865
 3561TIP3    H232175   3.595   0.697  12.152 -2.8945 -0.1822  0.3901
 3562TIP3   OH232176   1.309   1.733   1.836 -0.3957 -0.1269  0.7867
 3562TIP3    H132177   1.307   1.802   1.770  2.2971  0.9755  1.8233
 3562TIP3    H232178   1.388   1.683   1.817 -1.3479 -1.8238  1.1833
 3563TIP3   OH232179   2.623   0.786  11.186  0.4082  0.1344 -0.0975
 3563TIP3    H132180   2.542   0.804  11.234 -0.0977  0.0324 -0.9001
 3563TIP3    H232181   2.637   0.692  11.197  0.8361  0.2836  0.6787
 3564TIP3   OH232182   2.792   3.759  15.162  0.3818 -0.8561  0.2227
 3564TIP3    H132183   2.870   3.729  15.115  0.5784 -1.7411  1.0905
 3564TIP3    H232184   2.788   3.703  15.239  0.4845  1.0453  1.6505
 3565TIP3   OH232185   4.796   5.268   2.980 -0.1511 -0.0042 -0.1761
 3565TIP3    H132186   4.834   5.228   2.902 -0.8724  0.2375 -0.6565
 3565TIP3    H232187   4.748   5.197   3.022 -0.1493 -0.0192 -0.1980
 3566TIP3   OH232188   1.179   0.217  16.855  0.2541 -0.4717 -0.2558
 3566TIP3    H132189   1.266   0.182  16.834 -0.3592 -1.3605 -1.3662
 3566TIP3    H232190   1.118   0.157  16.811 -0.8867  0.6589 -0.2236
 3567TIP3   OH232191   3.315   4.013   3.161  0.1132 -0.2648  0.2465
 3567TIP3    H132192   3.253   4.086   3.169  0.3386 -0.1426  0.9004
 3567TIP3    H232193   3.264   3.936   3.186  0.2036 -0.1727  0.7224
 3568TIP3   OH232194   5.007   6.406  12.173  0.4105  0.0922  0.1003
 3568TIP3    H132195   5.088   6.454  12.187  0.6135 -0.1972 -0.0641
 3568TIP3    H232196   5.005   6.341  12.243 -0.1141  0.6675  0.6231
 3569TIP3   OH232197   0.402   3.266   2.140 -0.3981  0.2280 -0.3228
 3569TIP3    H132198   0.443   3.315   2.068 -1.4852  0.0822 -1.0468
 3569TIP3    H232199   0.332   3.323   2.171 -1.2700 -0.5907 -0.7583
 3570TIP3   OH232200   0.764   6.428   5.916  0.0497 -0.3020  0.4014
 3570TIP3    H132201   0.856   6.400   5.921  0.0938 -0.3089 -0.4024
 3570TIP3    H232202   0.713   6.348   5.929  0.1575 -0.2098  1.3773
 3571TIP3   OH232203   1.995   1.246  11.512 -0.3297  0.2838 -0.4508
 3571TIP3    H132204   2.018   1.230  11.604  1.0462  3.0922 -0.2318
 3571TIP3    H232205   1.900   1.251  11.511 -0.3089  1.5819  1.1296
 3572TIP3   OH232206   3.402   4.041   5.308  1.0129  0.3678 -0.3805
 3572TIP3    H132207   3.406   3.946   5.303  2.9496  0.4172 -0.1827
 3572TIP3    H232208   3.406   4.061   5.402 -0.8264  0.6164 -0.3309
 3573TIP3   OH232209   1.235   0.200   2.045 -0.2499  0.1414  0.1926
 3573TIP3    H132210   1.271   0.265   1.985  0.1689 -0.6474 -0.4145
 3573TIP3    H232211   1.308   0.179   2.104  0.0070 -0.7672 -0.4506
 3574TIP3   OH232212   1.134   3.921  15.745  0.1591  0.1566 -0.3998
 3574TIP3    H132213   1.124   3.830  15.717 -1.2958 -0.1107  0.9351
 3574TIP3    H232214   1.221   3.924  15.786  0.5976 -0.3992 -1.2886
 3575TIP3   OH232215   2.618   2.213  11.058 -0.0059  0.1825  0.0477
 3575TIP3    H132216   2.639   2.273  11.129 -0.6873  0.5675 -0.0568
 3575TIP3    H232217   2.671   2.244  10.984  0.5822 -0.1203  0.3464
 3576TIP3   OH232218   6.817   2.820  16.859 -0.4690  0.6838  0.3989
 3576TIP3    H132219   6.843   2.802  16.769 -1.0655  1.1209  0.1400
 3576TIP3    H232220   6.742   2.762  16.875  0.0198  0.1648  0.8151
 3577TIP3   OH232221   3.028   5.330  13.310  0.1319 -0.0477 -0.0664
 3577TIP3    H132222   2.935   5.314  13.326  0.5723 -1.5452  1.1835
 3577TIP3    H232223   3.072   5.292  13.386  1.7097  1.5851 -0.1359
 3578TIP3   OH232224   6.540   3.210   2.268 -0.0730  0.0033  0.1631
 3578TIP3    H132225   6.463   3.258   2.298  0.6991  1.3304  0.0688
 3578TIP3    H232226   6.579   3.173   2.347 -1.1028 -1.1293  0.1476
 3579TIP3   OH232227   6.309   0.013   2.526  0.0325  0.2412  0.3719
 3579TIP3    H132228   6.357  -0.010   2.605 -0.9599 -1.3123  0.5429
 3579TIP3    H232229   6.324   0.107   2.516  2.5577 -0.0860  0.7517
 3580TIP3   OH232230   1.419   2.406  14.688 -0.5262  0.6343  0.3499
 3580TIP3    H132231   1.460   2.320  14.691 -4.0852 -1.1270  0.5706
 3580TIP3    H232232   1.430   2.442  14.776 -1.4638 -0.8065  1.0716
 3581TIP3   OH232233   3.803   6.481   2.702 -0.5514  0.5864 -0.5511
 3581TIP3    H132234   3.834   6.463   2.614 -0.2106 -0.5764 -0.2072
 3581TIP3    H232235   3.727   6.539   2.690 -0.2722  0.7463 -1.5701
 3582TIP3   OH232236   0.286   0.333   4.602 -0.4763  0.2128  0.3267
 3582TIP3    H132237   0.329   0.379   4.674 -1.4795  0.0158  1.0715
 3582TIP3    H232238   0.323   0.245   4.602  1.8433  1.1277 -1.4415
 3583TIP3   OH232239   4.152   2.950  13.951  0.3063 -0.2208 -0.1628
 3583TIP3    H132240   4.193   2.872  13.990 -1.6472  0.4467  3.4343
 3583TIP3    H232241   4.158   3.017  14.019 -1.5116  1.6047 -1.7483
 3584TIP3   OH232242   0.604   3.126  14.135  0.1958  0.3143 -0.1815
 3584TIP3    H132243   0.528   3.179  14.159  0.6521  1.6697 -1.6541
 3584TIP3    H232244   0.623   3.151  14.045 -0.5233 -3.4932 -1.4712
 3585TIP3   OH232245   3.512   4.460  11.324 -0.2923  0.4433 -0.0692
 3585TIP3    H132246   3.428   4.439  11.282 -0.3099  1.2284 -0.4206
 3585TIP3    H232247   3.497   4.544  11.368 -0.0135  0.0552  0.7826
 3586TIP3   OH232248   4.733   3.943   0.466  0.3322 -0.4479  0.1913
 3586TIP3    H132249   4.710   4.023   0.420 -0.0102 -0.4072  0.4333
 3586TIP3    H232250   4.654   3.918   0.514  0.9215 -0.0563  1.3872
 3587TIP3   OH232251   2.753   0.470   0.945 -0.1910  0.0966 -0.0384
 3587TIP3    H132252   2.723   0.417   1.019 -0.3544  0.2820  0.0292
 3587TIP3    H232253   2.769   0.556   0.982 -1.0459  0.4021 -0.3721
 3588TIP3   OH232254   1.603   1.294  12.844  0.3246  0.8669 -0.1168
 3588TIP3    H132255   1.543   1.223  12.820  1.2102  0.0860 -0.0289
 3588TIP3    H232256   1.579   1.366  12.786 -1.4060  0.9154  0.6339
 3589TIP3   OH232257   3.996   2.027  15.028  0.0491  0.6921 -0.1759
 3589TIP3    H132258   3.937   1.956  15.003 -1.2781  1.3337  1.0574
 3589TIP3    H232259   4.078   2.007  14.983 -0.0274 -2.0911  0.7932
 3590TIP3   OH232260   1.251   1.293   2.389 -0.3737  0.4061  0.0552
 3590TIP3    H132261   1.314   1.359   2.419 -0.6069  1.4859 -1.7522
 3590TIP3    H232262   1.305   1.230   2.341 -0.1291 -0.8512  1.9050
 3591TIP3   OH232263   6.397   2.783   0.994  0.3725  0.2519 -0.2310
 3591TIP3    H132264   6.459   2.717   0.962 -0.5392 -0.6954 -0.0891
 3591TIP3    H232265   6.391   2.765   1.088 -0.0268  0.4211 -0.2256
 3592TIP3   OH232266   4.491   1.507   2.448  0.2022  0.0533  0.2899
 3592TIP3    H132267   4.423   1.566   2.416  1.7292  1.5604 -0.2214
 3592TIP3    H232268   4.559   1.509   2.381  1.1630 -0.7448  1.2140
 3593TIP3   OH232269   2.957   6.074  11.301 -0.0207  0.1384  0.2048
 3593TIP3    H132270   2.919   6.023  11.229  0.4481  0.1856 -0.0731
 3593TIP3    H232271   2.947   6.018  11.378  0.0474 -0.1716 -0.0103
 3594TIP3   OH232272   6.205   3.112   1.290 -0.1681 -0.0593 -0.0463
 3594TIP3    H132273   6.231   3.021   1.276  1.0029  0.2217  0.2352
 3594TIP3    H232274   6.286   3.156   1.316 -0.4600  1.3360 -1.4537
 3595TIP3   OH232275   2.650   5.104  15.154  0.0114  0.5006  0.4202
 3595TIP3    H132276   2.731   5.135  15.195 -0.2845  1.3683  0.3463
 3595TIP3    H232277   2.647   5.011  15.176  0.8396  0.5408  0.7396
 3596TIP3   OH232278   2.337   5.644  13.343  0.0368 -0.4610 -0.3787
 3596TIP3    H132279   2.385   5.573  13.385  0.9510 -0.5790 -1.5770
 3596TIP3    H232280   2.245   5.619  13.350  0.3791 -2.0265 -1.2456
 3597TIP3   OH232281   6.085   4.472  13.072 -0.2394  0.5709  0.0376
 3597TIP3    H132282   6.111   4.526  12.997  1.0123 -2.4754 -1.7822
 3597TIP3    H232283   6.167   4.451  13.116 -0.5317 -1.2543 -0.2728
 3598TIP3   OH232284   6.170   0.488  12.403 -0.8536 -0.6189  0.0644
 3598TIP3    H132285   6.177   0.577  12.369 -0.8500 -0.5056  0.3592
 3598TIP3    H232286   6.166   0.499  12.498  1.2224 -1.0621  0.2273
 3599TIP3   OH232287   1.525   5.229   3.675  0.0505  0.1693 -0.4929
 3599TIP3    H132288   1.561   5.250   3.589  0.4957 -0.9155 -0.5696
 3599TIP3    H232289   1.473   5.150   3.661  0.1845 -0.0492  0.2544
 3600TIP3   OH232290   4.231   3.292   3.029 -0.2932 -0.3706 -0.4579
 3600TIP3    H132291   4.174   3.361   2.997 -1.2573 -0.7398  0.4508
 3600TIP3    H232292   4.231   3.226   2.959 -0.3077  0.0074 -0.8120
 3601TIP3   OH232293   5.795   0.345   4.518 -0.4769 -0.0911  0.2926
 3601TIP3    H132294   5.872   0.302   4.556 -0.3722  0.2914  0.5092
 3601TIP3    H232295   5.721   0.292   4.549 -0.3618 -0.0008  0.7224
 3602TIP3   OH232296   1.273   4.869   2.996  0.3731 -0.4055 -0.6926
 3602TIP3    H132297   1.177   4.863   2.994  0.4235 -0.9307 -2.5296
 3602TIP3    H232298   1.303   4.778   3.004  0.7019 -0.2102  0.2491
 3603TIP3   OH232299   5.751   5.867  16.778  0.5671 -0.2894 -0.2742
 3603TIP3    H132300   5.688   5.807  16.739  0.8066  0.0505 -1.2054
 3603TIP3    H232301   5.706   5.903  16.854 -0.0559 -0.6612 -0.4641
 3604TIP3   OH232302   2.541   3.847  13.136 -0.0567 -0.4521 -0.0355
 3604TIP3    H132303   2.572   3.866  13.224 -0.0876 -0.2128 -0.0755
 3604TIP3    H232304   2.593   3.903  13.079  0.9091 -1.5775 -0.2989
 3605TIP3   OH232305   2.811   5.452  12.452 -0.0228  0.3381 -0.3047
 3605TIP3    H132306   2.781   5.535  12.490 -0.0715 -0.1669  0.7789
 3605TIP3    H232307   2.733   5.414  12.412 -0.3083  0.1367  0.4482
 3606TIP3   OH232308   4.386   5.588  16.093  0.0277  0.5051  0.4474
 3606TIP3    H132309   4.365   5.659  16.031  1.1023  0.4039 -0.0408
 3606TIP3    H232310   4.481   5.585  16.094 -0.0093 -1.1736  0.1928
 3607TIP3   OH232311   2.714   1.612   1.185  0.2343 -0.0860 -0.1094
 3607TIP3    H132312   2.743   1.689   1.135 -1.2953  0.2340 -0.5137
 3607TIP3    H232313   2.674   1.555   1.120 -2.7740  0.8142  0.8639
 3608TIP3   OH232314   5.601   1.094  12.403 -0.1597 -0.1426  1.0062
 3608TIP3    H132315   5.591   1.149  12.325  0.4867 -0.3937  0.7456
 3608TIP3    H232316   5.574   1.151  12.475 -1.0045  0.0122  0.5793
 3609TIP3   OH232317   3.567   3.115   2.582 -0.2863  0.0978  0.5781
 3609TIP3    H132318   3.623   3.043   2.552 -0.7478  0.5077 -1.3168
 3609TIP3    H232319   3.484   3.101   2.537 -1.4275  0.0680  2.6070
 3610TIP3   OH232320   1.766   6.663  12.889 -0.1959 -0.1340  0.3824
 3610TIP3    H132321   1.691   6.605  12.903  0.9958 -1.8748 -0.4197
 3610TIP3    H232322   1.730   6.736  12.837 -1.3149 -0.9870 -0.0568
 3611TIP3   OH232323   5.420   1.875  11.642  0.5177  0.2585 -0.3613
 3611TIP3    H132324   5.428   1.791  11.688  1.1356  0.7471  0.4409
 3611TIP3    H232325   5.392   1.937  11.710 -0.8101  0.5237 -1.1413
 3612TIP3   OH232326   5.576   5.975  15.415  0.6905 -0.2104  0.0359
 3612TIP3    H132327   5.542   6.058  15.382 -0.7085 -1.1975 -1.0797
 3612TIP3    H232328   5.636   6.000  15.485  0.3174  1.7415 -0.3068
 3613TIP3   OH232329   1.143   5.764  13.846 -0.7550 -0.1349 -0.2103
 3613TIP3    H132330   1.108   5.851  13.866 -1.6147 -0.8061  1.3509
 3613TIP3    H232331   1.164   5.727  13.932 -0.9236 -1.6724 -0.8149
 3614TIP3   OH232332   4.842   3.978  10.869 -0.3369 -1.2161 -0.0397
 3614TIP3    H132333   4.820   3.963  10.777  0.9818  0.9292 -0.7535
 3614TIP3    H232334   4.788   4.054  10.894 -0.7512 -1.8390  0.9977
 3615TIP3   OH232335   1.254   6.137   2.789  0.2439 -0.3645 -0.3025
 3615TIP3    H132336   1.211   6.108   2.708 -1.5458 -0.6832  0.7484
 3615TIP3    H232337   1.187   6.189   2.834  2.3065  2.6992 -0.5996
 3616TIP3   OH232338   5.731   5.406   0.470 -0.2126 -0.5565 -0.2420
 3616TIP3    H132339   5.716   5.344   0.541 -1.7268 -2.0371 -1.7848
 3616TIP3    H232340   5.662   5.472   0.480  2.7611  2.3069  2.7714
 3617TIP3   OH232341   3.863   0.416  14.094 -0.3601 -0.0148 -0.0232
 3617TIP3    H132342   3.941   0.445  14.141 -0.1299  1.9411 -1.5597
 3617TIP3    H232343   3.790   0.437  14.152  0.0434  0.7968  0.1848
 3618TIP3   OH232344   6.808   5.541  14.010  0.5412  0.2882 -0.0774
 3618TIP3    H132345   6.831   5.630  13.983 -0.9656  1.2738  1.7730
 3618TIP3    H232346   6.743   5.512  13.946  1.1020  0.4618 -0.7352
 3619TIP3   OH232347   5.426   4.928  17.285  0.1417 -0.2256 -0.1362
 3619TIP3    H132348   5.487   5.002  17.290 -1.4842  1.1257  0.4247
 3619TIP3    H232349   5.384   4.926  17.371 -1.6499 -0.1585 -0.9835
 3620TIP3   OH232350   4.032   1.812  12.335  0.1810  0.1844 -0.9401
 3620TIP3    H132351   4.056   1.828  12.426  0.0701  0.6940 -1.0025
 3620TIP3    H232352   3.954   1.756  12.341  1.8461 -2.1567 -0.7566
 3621TIP3   OH232353   1.550   3.464  14.180  0.4140 -0.2656  0.7070
 3621TIP3    H132354   1.552   3.429  14.270  0.3740 -0.5222  0.6073
 3621TIP3    H232355   1.458   3.487  14.166  0.7288  1.5897  1.4249
 3622TIP3   OH232356   2.899   0.691  17.000  0.1748 -0.4946 -0.2440
 3622TIP3    H132357   2.838   0.701  17.074 -0.1759  0.2323 -0.6286
 3622TIP3    H232358   2.986   0.696  17.040 -0.0055  1.1342 -0.0277
 3623TIP3   OH232359   3.614   1.571  14.914  0.7199  0.3079 -0.0354
 3623TIP3    H132360   3.539   1.537  14.865  1.6336 -0.0102 -1.2341
 3623TIP3    H232361   3.590   1.662  14.933 -0.6082 -0.2175  0.9095
 3624TIP3   OH232362   3.889   3.214  12.567 -0.0217  0.0579  0.1107
 3624TIP3    H132363   3.805   3.234  12.526  0.7495  0.0194 -1.5051
 3624TIP3    H232364   3.954   3.225  12.498  1.1579 -1.3413  0.9511
 3625TIP3   OH232365   2.668   6.479  14.076 -0.4953  0.3590 -0.4942
 3625TIP3    H132366   2.653   6.492  14.170 -0.8263  1.4751 -0.6897
 3625TIP3    H232367   2.587   6.510  14.035  0.3042  1.4911 -1.2506
 3626TIP3   OH232368   6.179   3.940   0.941 -0.1347 -0.3597 -0.0849
 3626TIP3    H132369   6.130   3.902   1.015 -3.4971  2.4263 -0.7467
 3626TIP3    H232370   6.147   3.892   0.865  0.9151 -1.0186 -0.1138
 3627TIP3   OH232371   0.063   4.772   1.319  0.2037  0.1808 -0.0446
 3627TIP3    H132372   0.073   4.865   1.342 -1.7620  0.2575  0.5810
 3627TIP3    H232373   0.009   4.773   1.240  0.5399 -0.4341 -0.2860
 3628TIP3   OH232374   0.566   6.661   6.358  0.1448 -0.5896 -0.5251
 3628TIP3    H132375   0.507   6.633   6.428 -0.4356  0.9668 -0.3707
 3628TIP3    H232376   0.510   6.710   6.298  1.1405  0.2685 -0.7676
 3629TIP3   OH232377   1.531   3.351   2.002 -0.8247  0.3173 -0.3434
 3629TIP3    H132378   1.623   3.368   1.985 -0.5932 -0.6394 -0.0759
 3629TIP3    H232379   1.486   3.381   1.924 -0.2848  0.7829 -0.4757
 3630TIP3   OH232380   4.920   5.867  12.892  0.3731  0.0871  0.4269
 3630TIP3    H132381   4.861   5.925  12.843  0.2605 -0.1963  0.2269
 3630TIP3    H232382   4.930   5.790  12.836  1.4141  0.3866  0.1944
 3631TIP3   OH232383   4.195   3.183  15.493 -0.7903 -0.6160  0.2091
 3631TIP3    H132384   4.221   3.246  15.427 -0.5057 -1.0293 -0.0786
 3631TIP3    H232385   4.179   3.235  15.572  1.6557 -0.4177  0.6083
 3632TIP3   OH232386   2.777   6.524   5.604 -0.0863  0.0980 -0.2854
 3632TIP3    H132387   2.824   6.490   5.528  2.1690 -0.1274  1.1417
 3632TIP3    H232388   2.761   6.446   5.658  0.7086  0.6104  0.7023
 3633TIP3   OH232389   3.208   0.340   4.888  0.2323 -0.0661  0.0303
 3633TIP3    H132390   3.232   0.414   4.943  0.0550 -0.5546  0.7836
 3633TIP3    H232391   3.129   0.367   4.843  0.2427  0.2557  0.2078
 3634TIP3   OH232392   0.633   4.619   5.874 -0.5358 -0.0646 -0.4682
 3634TIP3    H132393   0.705   4.642   5.933  0.5640  0.4943 -2.0070
 3634TIP3    H232394   0.559   4.601   5.933  0.5619  0.3815  1.0826
 3635TIP3   OH232395   2.073   0.232   2.466  0.3716  0.1826  0.3541
 3635TIP3    H132396   2.031   0.287   2.531 -2.4750  0.4144 -1.5866
 3635TIP3    H232397   2.051   0.143   2.491  0.1052  0.2274  0.2835
 3636TIP3   OH232398   0.350   2.187   6.089  0.2268 -0.4251  0.1073
 3636TIP3    H132399   0.292   2.135   6.144  0.0795 -1.6629 -1.1760
 3636TIP3    H232400   0.430   2.198   6.140 -0.6941  0.2939  1.4164
 3637TIP3   OH232401   4.483   5.693   4.844  0.3291 -0.4201  0.3326
 3637TIP3    H132402   4.395   5.673   4.811 -0.8600  1.6915  2.0869
 3637TIP3    H232403   4.474   5.690   4.939  2.1280 -0.0136  0.5331
 3638TIP3   OH232404   0.180   2.242   4.219  0.3457  0.2948  0.3187
 3638TIP3    H132405   0.139   2.314   4.268  1.9608  0.4916  1.4274
 3638TIP3    H232406   0.178   2.168   4.279  1.3851  0.2380  0.2882
 3639TIP3   OH232407   1.686   1.649  11.943 -0.5286  0.3050 -0.1158
 3639TIP3    H132408   1.679   1.677  11.852 -0.6811 -2.3496 -0.9580
 3639TIP3    H232409   1.599   1.616  11.965 -0.2749  0.1755  0.7327
 3640TIP3   OH232410   2.121   5.728  12.108 -0.2065  0.2139 -0.0260
 3640TIP3    H132411   2.077   5.652  12.069  0.8351 -0.9501  1.0025
 3640TIP3    H232412   2.140   5.785  12.034 -0.5292 -0.7754 -0.8861
 3641TIP3   OH232413   3.922   2.004   0.274  0.6166  0.1479 -0.1368
 3641TIP3    H132414   3.989   2.072   0.275 -0.5258  1.2929  0.7140
 3641TIP3    H232415   3.948   1.945   0.204  2.0347  1.0534 -0.3817
 3642TIP3   OH232416   3.820   0.716  14.387 -0.7438  0.5076  0.3571
 3642TIP3    H132417   3.800   0.792  14.442  2.0995  1.6515 -0.1178
 3642TIP3    H232418   3.847   0.753  14.303  1.8344 -0.9500  0.5026
 3643TIP3   OH232419   2.372   5.526  13.065  0.7696  0.1204 -0.1209
 3643TIP3    H132420   2.404   5.510  13.154  0.6075 -0.9296 -0.2504
 3643TIP3    H232421   2.279   5.504  13.069  0.7455  0.1499 -0.5295
 3644TIP3   OH232422   3.378   4.774  13.681 -0.5959 -0.3525  0.0727
 3644TIP3    H132423   3.324   4.797  13.757 -0.2892 -0.9399  0.4751
 3644TIP3    H232424   3.440   4.846  13.674 -1.0614  0.0385 -0.0333
 3645TIP3   OH232425   6.008   0.387   0.976  0.2985  0.3617  0.0234
 3645TIP3    H132426   6.029   0.375   0.883  1.2054  0.2269  0.2419
 3645TIP3    H232427   5.915   0.409   0.977  0.7499  2.3617 -1.0519
 3646TIP3   OH232428   2.012   5.311  12.521  0.4134 -0.3679 -0.3054
 3646TIP3    H132429   1.984   5.221  12.539  0.7557 -0.5218 -0.5223
 3646TIP3    H232430   1.933   5.356  12.492 -0.5514  0.3776  3.2677
 3647TIP3   OH232431   6.370   3.176  14.209 -0.8210 -0.1228  0.1964
 3647TIP3    H132432   6.334   3.234  14.143 -1.6148 -1.3251 -0.4461
 3647TIP3    H232433   6.417   3.109  14.160  0.6308  0.3131  0.9560
 3648TIP3   OH232434   6.468   2.237  15.218  0.0717  0.4400 -0.5163
 3648TIP3    H132435   6.384   2.273  15.245 -0.5687 -1.6054  0.3158
 3648TIP3    H232436   6.445   2.162  15.164  1.3232 -1.1104  1.0468
 3649TIP3   OH232437   4.757   3.466   5.736  0.5053  0.4130  0.1542
 3649TIP3    H132438   4.819   3.457   5.664  1.3271  1.0019  0.7835
 3649TIP3    H232439   4.812   3.464   5.815 -0.2297  1.4343  0.6929
 3650TIP3   OH232440   1.093   4.107  14.939  0.3857 -0.2371 -1.0026
 3650TIP3    H132441   1.160   4.039  14.950  1.4772  0.8069 -1.1158
 3650TIP3    H232442   1.142   4.185  14.913 -0.8177  0.7014 -0.4855
 3651TIP3   OH232443   0.392   4.625  15.044 -0.5825  0.0577 -0.1454
 3651TIP3    H132444   0.446   4.671  15.109 -1.4354 -2.3506  2.3819
 3651TIP3    H232445   0.307   4.671  15.048 -0.4185  0.3590 -0.0678
 3652TIP3   OH232446   6.793   1.097   5.093 -0.0177  0.1412  0.8554
 3652TIP3    H132447   6.861   1.029   5.097 -0.2532 -0.1918 -0.5746
 3652TIP3    H232448   6.775   1.117   5.185  0.2556 -1.5375  1.3090
 3653TIP3   OH232449   6.209   3.814   5.189 -0.0039 -0.1870 -0.0869
 3653TIP3    H132450   6.198   3.725   5.223 -0.5073 -0.7884 -1.7431
 3653TIP3    H232451   6.226   3.801   5.095 -0.0044  1.4688 -0.3282
 3654TIP3   OH232452   2.830   6.678   4.240  0.7513  0.3105  0.3313
 3654TIP3    H132453   2.924   6.696   4.251  0.4598  1.4068  1.0879
 3654TIP3    H232454   2.786   6.746   4.292 -0.5089  0.9367 -1.4954
 3655TIP3   OH232455   5.385   1.745  16.063  0.0560 -0.6859 -0.4911
 3655TIP3    H132456   5.340   1.826  16.039  0.2005 -0.7945 -1.1256
 3655TIP3    H232457   5.359   1.682  15.995 -1.0226 -1.5183  0.6535
 3656TIP3   OH232458   5.059   2.017  15.436 -0.4632 -0.4209  0.5762
 3656TIP3    H132459   4.995   2.066  15.385  0.8387 -0.8964 -1.5831
 3656TIP3    H232460   5.135   2.075  15.441 -0.4685 -0.5159  1.6940
 3657TIP3   OH232461   5.958   4.678  15.766 -0.1215  0.5953 -0.7526
 3657TIP3    H132462   6.054   4.673  15.759  0.1138  0.4847  1.9603
 3657TIP3    H232463   5.926   4.633  15.688  2.0531 -2.4737  0.0477
 3658TIP3   OH232464   2.280   2.910  11.556  0.3688 -0.1403 -0.1783
 3658TIP3    H132465   2.231   2.926  11.475  0.8216 -2.0594 -0.8711
 3658TIP3    H232466   2.224   2.944  11.625 -0.2631  1.0489 -1.2597
 3659TIP3   OH232467   0.097   3.493  15.742 -0.4991  0.4248  0.1267
 3659TIP3    H132468   0.163   3.553  15.776  0.3108 -1.3350  1.7256
 3659TIP3    H232469   0.133   3.461  15.660  0.7392 -0.6936  1.0984
 3660TIP3   OH232470   2.447   0.445   5.484  0.3287  0.7049  0.3784
 3660TIP3    H132471   2.508   0.497   5.536  1.3602 -1.3645  1.3134
 3660TIP3    H232472   2.500   0.373   5.450 -1.2143 -0.1492 -0.2690
 3661TIP3   OH232473   0.262   0.783  13.776  0.2991 -0.5815  0.3921
 3661TIP3    H132474   0.230   0.851  13.836 -0.4642  1.0505 -1.8357
 3661TIP3    H232475   0.355   0.774  13.798  0.3219  0.9298  0.9361
 3662TIP3   OH232476   0.669   5.583   5.945 -0.0125 -0.3825  0.2609
 3662TIP3    H132477   0.676   5.507   5.887 -1.2086  1.1442 -1.9277
 3662TIP3    H232478   0.591   5.566   5.997 -0.7730 -0.2518 -0.8315
 3663TIP3   OH232479   0.828   4.688   6.077 -0.1415  0.0437 -0.3994
 3663TIP3    H132480   0.749   4.741   6.085 -0.8088 -1.0866  0.5393
 3663TIP3    H232481   0.873   4.697   6.161  1.0143  1.0980 -1.1025
 3664TIP3   OH232482   0.260   3.971   0.503  0.0897  0.2116 -0.1517
 3664TIP3    H132483   0.334   3.925   0.463  0.5622  0.7890  0.0376
 3664TIP3    H232484   0.231   4.032   0.435 -0.0702  0.1402 -0.1472
 3665TIP3   OH232485   2.352   2.311  11.648  0.2641 -0.0367 -0.4771
 3665TIP3    H132486   2.289   2.383  11.657 -0.6768 -0.8489 -0.3917
 3665TIP3    H232487   2.373   2.310  11.554  1.3756  1.2338 -0.2597
 3666TIP3   OH232488   5.700   6.407   0.989  0.2717  0.2040 -0.0593
 3666TIP3    H132489   5.777   6.365   0.950 -0.5633  0.5659 -2.1323
 3666TIP3    H232490   5.684   6.357   1.069  1.9404 -0.6242 -0.2186
 3667TIP3   OH232491   5.441   0.687   4.149  0.2060 -0.0502 -0.4049
 3667TIP3    H132492   5.419   0.778   4.169  0.7195  0.0640 -0.3700
 3667TIP3    H232493   5.356   0.646   4.131 -0.2551 -0.0404  1.5346
 3668TIP3   OH232494   0.369   0.759   2.121  0.3020  0.0195 -0.4249
 3668TIP3    H132495   0.396   0.682   2.071 -0.8939 -0.2488 -0.6719
 3668TIP3    H232496   0.357   0.727   2.210  1.1332  0.2121 -0.2436
 3669TIP3   OH232497   1.782   4.106  11.864 -0.7275  0.1055  0.2203
 3669TIP3    H132498   1.704   4.072  11.908 -0.2934 -1.8763 -0.4671
 3669TIP3    H232499   1.802   4.040  11.797  3.1321 -0.8668  2.1758
 3670TIP3   OH232500   5.129   0.465  10.801 -0.1417  0.2341 -0.2499
 3670TIP3    H132501   5.161   0.401  10.738 -1.7496  0.2857 -1.1657
 3670TIP3    H232502   5.040   0.435  10.822 -0.8034  1.9955 -0.4631
 3671TIP3   OH232503   1.964   1.779  13.981 -0.4419  0.2799 -0.0299
 3671TIP3    H132504   1.879   1.757  13.944  1.8649 -3.8497 -3.2563
 3671TIP3    H232505   1.979   1.712  14.048  0.7227  0.2591 -0.2958
 3672TIP3   OH232506   1.008   4.074  12.536  0.2141  0.8901  0.1697
 3672TIP3    H132507   1.036   3.983  12.551 -1.5734  0.3353  0.2137
 3672TIP3    H232508   1.001   4.112  12.624  1.0495  1.1123  0.1464
 3673TIP3   OH232509   4.802   1.814   6.611 -0.0209  0.3964  0.0813
 3673TIP3    H132510   4.797   1.896   6.561  2.1339  2.5188  3.1504
 3673TIP3    H232511   4.894   1.808   6.637 -0.7461 -1.5299  2.3001
 3674TIP3   OH232512   0.149   1.132  14.780 -0.0920 -0.3890 -0.4271
 3674TIP3    H132513   0.153   1.191  14.705  0.6314  0.5218  0.3211
 3674TIP3    H232514   0.055   1.117  14.793 -0.2906  0.6792 -0.5573
 3675TIP3   OH232515   4.941   5.504  13.342  0.4892  0.4635 -0.1177
 3675TIP3    H132516   4.884   5.565  13.389 -1.0045 -0.7871 -0.2531
 3675TIP3    H232517   4.947   5.428  13.400  0.7255 -0.0564 -0.8230
 3676TIP3   OH232518   3.240   0.810   2.651  0.1780  0.2387  0.0916
 3676TIP3    H132519   3.205   0.731   2.610  0.5065 -0.0169  0.3004
 3676TIP3    H232520   3.302   0.845   2.587 -0.4321  0.6756 -0.2658
 3677TIP3   OH232521   0.731   2.835   1.516  0.0830 -0.0553 -0.1742
 3677TIP3    H132522   0.730   2.758   1.572 -0.0389  0.5206  0.6248
 3677TIP3    H232523   0.676   2.899   1.562 -1.4311 -0.1557 -1.7687
 3678TIP3   OH232524   6.507   0.361  14.220  0.2534  1.0904  0.1568
 3678TIP3    H132525   6.513   0.439  14.276  1.7681  0.0186  1.5260
 3678TIP3    H232526   6.419   0.326  14.237 -0.6990  2.8388 -0.9701
 3679TIP3   OH232527   4.311   1.102   3.415  0.1761  0.2423  0.2166
 3679TIP3    H132528   4.293   1.110   3.508 -2.8410 -3.3923  0.0484
 3679TIP3    H232529   4.229   1.072   3.377  1.4671  1.1779 -3.5923
 3680TIP3   OH232530   4.660   3.910   3.420 -0.2854  0.5372 -0.4015
 3680TIP3    H132531   4.570   3.909   3.453 -0.4689  1.8953 -0.7951
 3680TIP3    H232532   4.693   3.996   3.446 -0.3331  1.5307 -3.4533
 3681TIP3   OH232533   0.051   5.474  12.649 -0.1605 -0.1694 -0.4290
 3681TIP3    H132534   0.086   5.488  12.561  0.0362 -1.2690 -0.5351
 3681TIP3    H232535   0.002   5.392  12.643  1.5075 -1.3055  0.9645
 3682TIP3   OH232536   5.394   5.927  16.769  0.3525  0.8410  0.0516
 3682TIP3    H132537   5.444   5.854  16.733  0.0133  0.4135  0.4476
 3682TIP3    H232538   5.309   5.922  16.724 -0.7978 -0.8936  2.3147
 3683TIP3   OH232539   3.651   2.932  17.188  0.3578  0.0941 -0.0888
 3683TIP3    H132540   3.656   2.844  17.152  2.3299 -0.2787  1.0476
 3683TIP3    H232541   3.624   2.920  17.279  1.9040  0.5341  0.4509
 3684TIP3   OH232542   2.031   2.174   2.935 -0.0576 -0.4336 -0.3224
 3684TIP3    H132543   1.988   2.147   2.853  1.5337 -1.4268 -0.8385
 3684TIP3    H232544   1.959   2.181   2.998 -1.2748  0.0558 -1.7142
 3685TIP3   OH232545   1.745   1.600   2.936 -0.3119 -0.3828  0.1714
 3685TIP3    H132546   1.732   1.516   2.981  3.8064 -0.4324  1.4820
 3685TIP3    H232547   1.819   1.584   2.878 -0.4414  1.9731 -0.6843
 3686TIP3   OH232548   6.366   5.879  14.051 -0.2312  0.1648 -0.3146
 3686TIP3    H132549   6.426   5.920  13.989  1.2656 -0.5105  0.6796
 3686TIP3    H232550   6.348   5.793  14.014  2.7607 -1.2836  1.4780
 3687TIP3   OH232551   3.098   1.187  12.908 -0.3531  0.0334  0.3294
 3687TIP3    H132552   3.085   1.111  12.965 -2.8203  1.4916  1.7997
 3687TIP3    H232553   3.180   1.226  12.938  1.2472 -2.3313 -0.8196
 3688TIP3   OH232554   4.285   3.836   3.721  0.1233 -0.2603  0.3153
 3688TIP3    H132555   4.192   3.818   3.713  0.1428 -0.0564 -0.4371
 3688TIP3    H232556   4.317   3.838   3.630  1.3052 -2.6352  0.6430
 3689TIP3   OH232557   0.565   6.411  15.794 -0.0707  0.3460  0.1083
 3689TIP3    H132558   0.506   6.411  15.718  1.5216  1.7068 -1.1750
 3689TIP3    H232559   0.516   6.455  15.863  0.0585  3.0714 -1.4647
 3690TIP3   OH232560   2.630   3.229  13.719  0.2226  0.8789  0.1157
 3690TIP3    H132561   2.647   3.284  13.642 -2.5604  0.4957 -0.8075
 3690TIP3    H232562   2.593   3.149  13.683 -0.3491  0.3703  1.8184
 3691TIP3   OH232563   1.353   6.186   4.411 -0.1611  0.1736  0.0215
 3691TIP3    H132564   1.348   6.099   4.449  2.3786  0.6260  1.4666
 3691TIP3    H232565   1.384   6.172   4.321  0.1947 -0.3893  0.2356
 3692TIP3   OH232566   4.566   5.561  15.792  0.1300 -0.3175 -0.4158
 3692TIP3    H132567   4.617   5.485  15.821  2.1429  0.2064 -2.4215
 3692TIP3    H232568   4.592   5.632  15.851 -0.3561 -0.7303  0.2946
 3693TIP3   OH232569   4.156   4.107  13.400 -0.0556 -0.3116  0.4182
 3693TIP3    H132570   4.218   4.167  13.441  1.5115 -2.1804  0.8713
 3693TIP3    H232571   4.097   4.080  13.471 -0.9668  0.9038  0.1429
 3694TIP3   OH232572   4.610   3.642  13.716  0.9312  0.3107  0.2488
 3694TIP3    H132573   4.539   3.606  13.663  1.8408  0.8282 -1.3541
 3694TIP3    H232574   4.590   3.735  13.723  0.7408  0.2217  0.9587
 3695TIP3   OH232575   2.490   4.351  10.759 -0.2329 -0.1394  0.3052
 3695TIP3    H132576   2.441   4.321  10.683  0.0037  0.4793 -0.0962
 3695TIP3    H232577   2.423   4.374  10.824 -0.5226  1.7833 -0.6443
 3696TIP3   OH232578   5.790   0.950   5.621 -0.3012 -0.0491 -0.1176
 3696TIP3    H132579   5.786   1.035   5.579  0.6088 -0.0405 -0.1802
 3696TIP3    H232580   5.739   0.892   5.563  1.0538 -0.0687 -1.3034
 3697TIP3   OH232581   3.648   1.227  13.105  0.3673  0.2972 -0.3059
 3697TIP3    H132582   3.572   1.180  13.072  0.7629  0.0950 -0.9543
 3697TIP3    H232583   3.694   1.257  13.025  1.7447 -0.8445  0.0403
 3698TIP3   OH232584   4.382   3.457   2.187  0.1203  0.3444 -0.0006
 3698TIP3    H132585   4.468   3.434   2.221 -0.2076  0.1604  0.7180
 3698TIP3    H232586   4.321   3.427   2.254 -0.4653  1.0540 -0.2097
 3699TIP3   OH232587   0.132   2.668  14.281  0.7688  1.0467 -0.6040
 3699TIP3    H132588   0.045   2.667  14.321  0.6312  0.5105 -0.9188
 3699TIP3    H232589   0.141   2.757  14.247  0.4236  1.1626 -0.4004
 3700TIP3   OH232590   4.561   4.540   3.568  0.0554 -0.0754 -0.1119
 3700TIP3    H132591   4.474   4.578   3.557  0.8036  2.3129  1.8282
 3700TIP3    H232592   4.550   4.469   3.631 -0.3246  0.9124  0.9442
 3701TIP3   OH232593   0.047   4.809   6.493  0.5571 -0.2414 -0.3705
 3701TIP3    H132594   0.135   4.840   6.514  0.1416 -0.2842  1.4992
 3701TIP3    H232595  -0.009   4.843   6.563 -0.4500 -2.5121 -0.0013
 3702TIP3   OH232596   1.589   2.088   3.177  0.4432  0.2451  0.0109
 3702TIP3    H132597   1.657   2.024   3.156  1.7407  1.0928  1.5654
 3702TIP3    H232598   1.603   2.160   3.115  1.5981  0.8522  0.9545
 3703TIP3   OH232599   3.445   4.144  14.822  0.4990 -0.0792  0.5111
 3703TIP3    H132600   3.423   4.137  14.729 -1.4958  1.7745  0.7766
 3703TIP3    H232601   3.540   4.154  14.824  0.4577  1.0490 -1.4414
 3704TIP3   OH232602   1.945   1.503   4.743  0.1703  0.0419  0.7441
 3704TIP3    H132603   1.918   1.433   4.802  0.7624  1.3874  2.6595
 3704TIP3    H232604   2.038   1.487   4.727  0.3077  0.3889  1.1888
 3705TIP3   OH232605   6.777   0.311  14.295 -0.3502 -0.3784  0.3922
 3705TIP3    H132606   6.689   0.326  14.260 -0.2774 -0.4445  0.1818
 3705TIP3    H232607   6.804   0.397  14.328  1.5310  0.8977 -4.0707
 3706TIP3   OH232608   4.373   3.053   0.597  0.1136  0.0909  0.2269
 3706TIP3    H132609   4.318   3.065   0.519  0.9557 -0.7214 -0.5001
 3706TIP3    H232610   4.387   2.958   0.602  2.3280  0.3744 -0.2001
 3707TIP3   OH232611   5.521   5.728   4.673  0.1381 -0.2650  0.5064
 3707TIP3    H132612   5.436   5.689   4.652  0.4836 -0.7779  0.0447
 3707TIP3    H232613   5.503   5.822   4.680 -0.5054 -0.3903  0.6259
 3708TIP3   OH232614   1.718   0.019   0.767  0.3782 -0.5465  0.3374
 3708TIP3    H132615   1.808   0.022   0.801  0.2546  1.0136  0.5450
 3708TIP3    H232616   1.678   0.100   0.797 -0.4942 -0.2899 -1.4862
 3709TIP3   OH232617   1.426   0.184   1.713  0.1566  0.3940 -0.0876
 3709TIP3    H132618   1.473   0.266   1.724  0.0083  0.3280  1.0303
 3709TIP3    H232619   1.342   0.197   1.757  0.2810 -0.4853  0.4235
 3710TIP3   OH232620   3.879   0.418  13.165 -0.7159  0.1644  0.5845
 3710TIP3    H132621   3.958   0.442  13.214 -0.3850 -1.0988  0.6917
 3710TIP3    H232622   3.887   0.324  13.152 -1.9463  0.1169  0.1154
 3711TIP3   OH232623   3.148   6.816  12.065  0.0165 -0.4376 -0.5329
 3711TIP3    H132624   3.085   6.747  12.044  1.0304 -1.4065 -0.4141
 3711TIP3    H232625   3.108   6.863  12.138 -0.5218 -1.1303 -0.3771
 3712TIP3   OH232626   1.778   2.428   3.570 -0.2374  0.0932 -0.3935
 3712TIP3    H132627   1.723   2.477   3.631  0.0890 -0.5542  0.4368
 3712TIP3    H232628   1.812   2.354   3.622  0.4456 -0.1865 -1.2185
 3713TIP3   OH232629   4.557   3.032  14.909 -0.0693  0.4749 -0.2719
 3713TIP3    H132630   4.520   3.094  14.973  1.2538  1.4264 -0.3988
 3713TIP3    H232631   4.588   3.088  14.838  1.3537 -0.3048 -0.2830
 3714TIP3   OH232632   4.016   1.130  16.978 -0.0452  0.5039 -0.4502
 3714TIP3    H132633   3.965   1.152  17.056  0.3277 -0.2111  0.0019
 3714TIP3    H232634   3.973   1.177  16.907 -0.3296  1.2444  0.2045
 3715TIP3   OH232635   3.076   0.605   0.807 -0.3075 -0.0109 -0.2550
 3715TIP3    H132636   3.153   0.660   0.815 -0.0861 -0.1467 -1.2848
 3715TIP3    H232637   3.013   0.641   0.870  0.8176 -0.2961  1.0366
 3716TIP3   OH232638   3.889   6.537  10.954 -0.4988  0.2552 -0.1051
 3716TIP3    H132639   3.922   6.627  10.956 -1.7112  0.6990  0.5081
 3716TIP3    H232640   3.876   6.519  10.861  2.6958 -0.4152 -0.4855
 3717TIP3   OH232641   6.391   4.871   5.245 -0.0233  0.2542 -0.1635
 3717TIP3    H132642   6.485   4.872   5.267  0.1397  1.1470 -0.8419
 3717TIP3    H232643   6.382   4.941   5.181 -1.0470 -0.2569 -0.5792
 3718TIP3   OH232644   6.264   1.115   2.141 -0.8773  0.3094  0.5041
 3718TIP3    H132645   6.246   1.021   2.140 -0.0245  0.1358  0.2995
 3718TIP3    H232646   6.200   1.152   2.080 -2.2798  0.0753  1.8186
 3719TIP3   OH232647   6.276   2.304  12.463 -0.7384 -0.2265  0.1829
 3719TIP3    H132648   6.320   2.311  12.548 -1.8439  1.1355  0.6543
 3719TIP3    H232649   6.331   2.244  12.412  0.7014  0.0863  1.3575
 3720TIP3   OH232650   5.329   3.770  16.239  0.2198  0.3161 -0.4577
 3720TIP3    H132651   5.420   3.752  16.218  0.2767  1.5943 -1.3258
 3720TIP3    H232652   5.329   3.785  16.334  1.1532  1.7294 -0.6739
 3721TIP3   OH232653   4.535   2.221   6.176  0.2352  0.0018  0.2038
 3721TIP3    H132654   4.524   2.304   6.222 -1.1796 -0.2640  0.3682
 3721TIP3    H232655   4.624   2.193   6.198  0.2618  0.8281  1.1929
 3722TIP3   OH232656   5.435   6.750   1.919  0.0963 -0.1408  0.1326
 3722TIP3    H132657   5.414   6.721   1.830  0.6294  0.8938 -0.3316
 3722TIP3    H232658   5.402   6.839   1.924 -0.6149 -0.4507  1.2344
 3723TIP3   OH232659   1.731   6.607   5.292  0.2566  0.1691 -0.0678
 3723TIP3    H132660   1.755   6.516   5.277 -0.8763 -0.6131  2.5976
 3723TIP3    H232661   1.815   6.653   5.303  0.7909 -0.8661  0.2516
 3724TIP3   OH232662   5.415   4.919  16.054  0.0519  0.7454  0.6713
 3724TIP3    H132663   5.411   4.861  15.978 -0.1674  1.1104  0.4062
 3724TIP3    H232664   5.428   5.006  16.017  0.5287  0.8489  1.0792
 3725TIP3   OH232665   0.991   3.086   0.333  0.2394  0.3832  0.0153
 3725TIP3    H132666   1.084   3.086   0.314  0.2962  0.0994  0.2926
 3725TIP3    H232667   0.969   2.994   0.350 -0.0321  0.4839  0.2244
 3726TIP3   OH232668   0.531   1.710  13.286  0.1964 -0.1744  0.1105
 3726TIP3    H132669   0.497   1.777  13.226  1.5945  1.2733  0.9074
 3726TIP3    H232670   0.585   1.759  13.348  0.5029 -1.9410  1.2540
 3727TIP3   OH232671   3.741   6.022  13.633  0.4812  0.2735  0.2353
 3727TIP3    H132672   3.691   5.982  13.562 -0.1993  0.6900  0.4775
 3727TIP3    H232673   3.831   6.028  13.598 -0.3857  3.1477 -1.7504
 3728TIP3   OH232674   1.204   6.178   4.980  0.0012  0.2682  0.4243
 3728TIP3    H132675   1.183   6.090   5.011 -2.6856  0.5656 -0.3915
 3728TIP3    H232676   1.229   6.165   4.888  1.2151  0.1804  0.7616
 3729TIP3   OH232677   0.476   5.717   0.365 -0.7421 -0.1606  0.2047
 3729TIP3    H132678   0.389   5.724   0.325 -0.4226  0.2393 -0.4157
 3729TIP3    H232679   0.496   5.623   0.360 -0.0798  0.0735 -1.9042
 3730TIP3   OH232680   2.453   0.787   5.737 -0.0461  0.0857 -0.0338
 3730TIP3    H132681   2.360   0.798   5.718 -0.4656 -2.1908  0.4821
 3730TIP3    H232682   2.459   0.794   5.832  0.1503 -0.6153  0.0129
 3731TIP3   OH232683   2.589   4.626  16.695 -0.5827  0.6857 -0.4491
 3731TIP3    H132684   2.503   4.619  16.654 -0.6199  1.1226 -0.4405
 3731TIP3    H232685   2.574   4.677  16.775 -0.5489 -0.3342  0.2193
 3732TIP3   OH232686   2.880   2.640  14.267 -0.0377  0.0624 -0.9519
 3732TIP3    H132687   2.904   2.628  14.359 -0.4174  2.2267 -0.5486
 3732TIP3    H232688   2.937   2.580  14.219 -0.1188 -1.4013  0.7093
 3733TIP3   OH232689   5.832   4.320   3.012  0.1216 -0.4597 -0.2655
 3733TIP3    H132690   5.893   4.278   3.073  1.4729 -0.0142 -1.2882
 3733TIP3    H232691   5.836   4.413   3.034 -1.4415 -0.6130  0.7435
 3734TIP3   OH232692   3.482   2.326   2.888 -0.4114  0.0292 -0.3446
 3734TIP3    H132693   3.389   2.313   2.908  0.0751  0.1446  2.1499
 3734TIP3    H232694   3.523   2.241   2.909  0.2466  0.3768 -0.2038
 3735TIP3   OH232695   0.661   3.544  13.621  0.3960  0.4355 -0.0309
 3735TIP3    H132696   0.593   3.479  13.604 -0.2716  1.0253  0.3568
 3735TIP3    H232697   0.684   3.579  13.535  1.0136 -0.5649 -0.2761
 3736TIP3   OH232698   1.005   6.534  10.453 -0.2472 -0.1220  0.3541
 3736TIP3    H132699   1.000   6.624  10.422  0.7957  0.2592  1.2925
 3736TIP3    H232700   1.008   6.541  10.548  0.8417 -1.0967  0.4031
 3737TIP3   OH232701   5.420   6.560  16.666  0.1310  0.1933 -0.3373
 3737TIP3    H132702   5.366   6.561  16.745 -0.6760  0.2258 -0.8878
 3737TIP3    H232703   5.506   6.590  16.695 -0.1724  0.2279  0.5238
 3738TIP3   OH232704   0.768   0.015  13.055  0.3130  0.1709 -0.6500
 3738TIP3    H132705   0.683   0.050  13.084  0.5071 -0.4405  0.7238
 3738TIP3    H232706   0.799   0.078  12.990 -1.3424  0.2295 -1.4261
 3739TIP3   OH232707   5.763   2.606   2.070 -0.9100 -0.0165  0.7164
 3739TIP3    H132708   5.755   2.532   2.010 -2.3721  0.7380 -0.0526
 3739TIP3    H232709   5.770   2.565   2.157 -0.8878 -1.0684  0.2318
 3740TIP3   OH232710   4.365   3.521  12.001 -0.3204  0.3067  0.3111
 3740TIP3    H132711   4.378   3.615  12.005  1.1485  0.1296 -0.1777
 3740TIP3    H232712   4.362   3.493  12.093  0.4254  0.6604  0.4403
 3741TIP3   OH232713   6.783   4.658  14.974  0.2408 -0.3152 -0.0505
 3741TIP3    H132714   6.817   4.746  14.955  0.2262 -0.0264  1.2459
 3741TIP3    H232715   6.850   4.617  15.029 -0.0959 -0.8508 -0.0329
 3742TIP3   OH232716   0.521   3.774   4.307  0.8800 -0.5683  0.3777
 3742TIP3    H132717   0.582   3.707   4.277  2.2464  0.6200  0.4464
 3742TIP3    H232718   0.500   3.824   4.228 -0.2892 -1.1921  0.2885
 3743TIP3   OH232719   4.972   5.293  17.067 -0.2077 -0.0273  0.1242
 3743TIP3    H132720   5.065   5.297  17.089 -0.0935 -1.0691 -0.1445
 3743TIP3    H232721   4.928   5.340  17.138  0.6427  1.8305 -0.5490
 3744TIP3   OH232722   2.198   5.070  15.335  0.0571 -0.4258 -0.1962
 3744TIP3    H132723   2.149   5.051  15.255 -0.6243 -0.5406  0.2504
 3744TIP3    H232724   2.143   5.133  15.382  0.5699 -0.1785  0.0732
 3745TIP3   OH232725   0.014   0.387  11.850 -0.0459 -0.1948  1.0628
 3745TIP3    H132726   0.042   0.464  11.899  0.8938  0.0411  0.1560
 3745TIP3    H232727   0.003   0.418  11.761  0.4417 -1.1374  0.6703
 3746TIP3   OH232728   3.448   0.879  14.410  0.5496 -0.3484 -0.0542
 3746TIP3    H132729   3.470   0.798  14.363 -0.3048  0.0014 -1.0801
 3746TIP3    H232730   3.531   0.908  14.447  1.2450 -0.6588 -1.3387
 3747TIP3   OH232731   1.975   6.160   1.619  0.1690  0.7601  0.2510
 3747TIP3    H132732   1.898   6.159   1.562 -0.9885  0.2822  1.7757
 3747TIP3    H232733   2.005   6.069   1.621 -0.0709  0.6858  0.7330
 3748TIP3   OH232734   1.758   2.849  12.251 -0.5520 -0.1982 -0.1147
 3748TIP3    H132735   1.822   2.824  12.317  0.9772 -0.1956 -1.5692
 3748TIP3    H232736   1.679   2.871  12.301  0.1027 -1.6476  1.5927
 3749TIP3   OH232737   1.369   2.919   0.956 -0.5388 -0.1697 -0.4087
 3749TIP3    H132738   1.395   2.896   0.866 -1.3186 -1.9246 -0.2122
 3749TIP3    H232739   1.380   2.837   1.005  0.7853  1.0014  1.3224
 3750TIP3   OH232740   4.746   0.587   2.560 -0.0975 -0.7036  0.0411
 3750TIP3    H132741   4.740   0.584   2.465 -1.2248 -2.1958  0.1303
 3750TIP3    H232742   4.818   0.529   2.582  0.4913  0.0372  0.0753
 3751TIP3   OH232743   4.913   1.738  10.467 -0.2016  0.0820 -0.1679
 3751TIP3    H132744   4.894   1.800  10.397 -0.3037 -0.8352 -0.9546
 3751TIP3    H232745   4.832   1.735  10.519 -0.4108  0.1271 -0.4905
 3752TIP3   OH232746   5.479   2.309  15.822  0.1899 -0.0782  0.2308
 3752TIP3    H132747   5.553   2.338  15.769 -0.5913  1.2825 -0.1440
 3752TIP3    H232748   5.489   2.356  15.905 -0.2286  0.1106  0.1796
 3753TIP3   OH232749   3.838   1.191  12.658  0.0289  0.2107 -0.1526
 3753TIP3    H132750   3.797   1.120  12.609  0.1513  0.4840 -0.6559
 3753TIP3    H232751   3.845   1.158  12.747  1.6427 -1.0610 -0.7249
 3754TIP3   OH232752   3.782   5.897   2.750  0.4484  0.3599 -1.0732
 3754TIP3    H132753   3.844   5.963   2.781 -0.1173  0.2939  0.1895
 3754TIP3    H232754   3.710   5.947   2.712 -0.6791  0.5187  1.2081
 3755TIP3   OH232755   5.656   0.715  11.706  0.7008  0.2896 -0.4301
 3755TIP3    H132756   5.746   0.717  11.674  0.7631  0.1809 -0.2615
 3755TIP3    H232757   5.631   0.807  11.713  1.2449  0.3562  0.7666
 3756TIP3   OH232758   2.564   1.661  14.912  0.0174 -0.6714 -0.4275
 3756TIP3    H132759   2.506   1.602  14.863  0.7556 -0.9013 -1.0301
 3756TIP3    H232760   2.511   1.740  14.927 -0.9281 -1.4256  0.2640
 3757TIP3   OH232761   1.662   2.800  12.727  0.2949 -0.2883  0.5874
 3757TIP3    H132762   1.728   2.745  12.769 -0.0416 -0.0478  1.4333
 3757TIP3    H232763   1.711   2.850  12.661  0.9858 -0.0106  1.3024
 3758TIP3   OH232764   5.088   6.146  15.406  0.3793  0.1055  0.5096
 3758TIP3    H132765   5.052   6.097  15.333 -2.6091 -1.0813  2.6552
 3758TIP3    H232766   5.090   6.237  15.376 -0.3734 -0.4222 -1.1821
 3759TIP3   OH232767   5.607   1.588   0.717  0.9353 -0.4819 -0.4231
 3759TIP3    H132768   5.627   1.681   0.710 -0.9942 -0.0919 -0.9638
 3759TIP3    H232769   5.584   1.561   0.629 -0.8073 -0.9108  0.1450
 3760TIP3   OH232770   1.824   0.874   6.549  0.0016 -0.4727  0.4806
 3760TIP3    H132771   1.753   0.923   6.508  0.9153  0.6893  0.2374
 3760TIP3    H232772   1.792   0.785   6.556 -1.4449  0.0283  0.3031
 3761TIP3   OH232773   2.642   5.944  13.421 -0.3660  0.3564 -0.5986
 3761TIP3    H132774   2.610   6.034  13.431  1.5907  1.0255 -0.2153
 3761TIP3    H232775   2.575   5.901  13.367 -1.2786  2.0625 -0.8605
 3762TIP3   OH232776   2.150   4.961  14.121  0.4107 -0.1859  0.3192
 3762TIP3    H132777   2.196   5.036  14.083 -1.6172  1.0092  0.1354
 3762TIP3    H232778   2.108   4.996  14.200 -0.2155 -1.2353  0.4586
 3763TIP3   OH232779   5.425   5.697  14.109 -0.1296 -0.2554  0.8959
 3763TIP3    H132780   5.489   5.702  14.180 -0.7594 -0.3605  1.4803
 3763TIP3    H232781   5.473   5.662  14.034  0.8318  0.9584  0.9361
 3764TIP3   OH232782   3.650   0.253  14.712 -0.5409 -0.0712 -0.0443
 3764TIP3    H132783   3.655   0.311  14.788  1.8895 -0.1647 -0.1019
 3764TIP3    H232784   3.657   0.165  14.749 -0.8899 -0.1790 -0.2398
 3765TIP3   OH232785   3.221   2.762  14.134 -0.4137  0.0153 -0.4049
 3765TIP3    H132786   3.222   2.804  14.049 -1.7048  0.8551 -0.0204
 3765TIP3    H232787   3.181   2.827  14.193 -1.5418 -1.3691  0.3860
 3766TIP3   OH232788   0.915   5.206  12.970  0.0703  0.5032  0.6338
 3766TIP3    H132789   0.958   5.285  12.936  2.0588 -0.6482  0.4033
 3766TIP3    H232790   0.841   5.192  12.910 -0.3721  2.2289  0.7387
 3767TIP3   OH232791   6.022   3.177  14.610 -0.0699  0.4591  0.3156
 3767TIP3    H132792   6.007   3.253  14.666 -0.0840  1.2435 -0.7227
 3767TIP3    H232793   6.095   3.204  14.553  0.4864 -0.6243  0.5130
 3768TIP3   OH232794   6.536   1.313  16.522 -0.1880  0.0163 -0.4915
 3768TIP3    H132795   6.579   1.230  16.538 -2.1247 -1.1308 -1.0772
 3768TIP3    H232796   6.507   1.308  16.431  1.8069  2.3404 -1.3120
 3769TIP3   OH232797   0.705   6.199   5.161 -0.0782  0.1994 -0.2325
 3769TIP3    H132798   0.680   6.244   5.242 -1.1468  1.8336 -1.4472
 3769TIP3    H232799   0.693   6.265   5.092 -0.2292 -1.5007 -1.8676
 3770TIP3   OH232800   1.761   5.740  15.468  0.2118 -0.4808  0.6296
 3770TIP3    H132801   1.774   5.806  15.400  1.4199  0.2689  1.5636
 3770TIP3    H232802   1.697   5.779  15.527  2.0972  0.5690  2.0399
 3771TIP3   OH232803   5.425   2.256  10.778  0.7773  0.6514 -0.3802
 3771TIP3    H132804   5.479   2.193  10.825 -0.7440 -1.0391 -0.8433
 3771TIP3    H232805   5.383   2.307  10.847 -2.5638 -2.7492  0.2864
 3772TIP3   OH232806   1.156   0.985  16.917  0.3092  0.0026 -0.2970
 3772TIP3    H132807   1.191   1.042  16.985 -1.8573 -1.8274  2.4884
 3772TIP3    H232808   1.225   0.919  16.903 -0.1116 -0.9251  1.8237
 3773TIP3   OH232809   0.024   3.105   3.222  0.1647  0.5494  0.4751
 3773TIP3    H132810  -0.052   3.101   3.164  0.8845 -0.4292 -0.4322
 3773TIP3    H232811   0.072   3.183   3.193 -0.6801  1.3717  1.2894
 3774TIP3   OH232812   3.872   3.622  12.296  0.3225  0.0860  0.0877
 3774TIP3    H132813   3.959   3.582  12.301  0.6815  0.9593  0.8821
 3774TIP3    H232814   3.843   3.628  12.386 -0.9895 -1.0888 -0.2391
 3775TIP3   OH232815   0.054   1.379  15.831 -0.8082  0.4520  0.0350
 3775TIP3    H132816   0.025   1.430  15.756  0.5256 -0.2706 -0.9957
 3775TIP3    H232817   0.148   1.368  15.818 -0.6892 -0.3474  1.4073
 3776TIP3   OH232818   3.126   0.740  12.215 -0.0919  0.3454 -0.0100
 3776TIP3    H132819   3.184   0.808  12.181 -0.6465  1.3420  0.9770
 3776TIP3    H232820   3.047   0.747  12.162  0.6601 -0.9803 -1.3237
 3777TIP3   OH232821   1.109   5.783   4.141  0.1252 -0.2036 -0.1236
 3777TIP3    H132822   1.064   5.782   4.057  1.0400  1.3798 -0.6334
 3777TIP3    H232823   1.039   5.769   4.205 -0.6530 -0.8395 -1.0979
 3778TIP3   OH232824   4.539   5.027  14.572  0.1286 -0.2896 -0.3376
 3778TIP3    H132825   4.566   4.998  14.485  0.3319  0.9554 -0.7021
 3778TIP3    H232826   4.446   5.047  14.563  0.1545 -0.1396 -0.2752
 3779TIP3   OH232827   3.119   3.533   3.616 -0.5257 -0.1619  0.1692
 3779TIP3    H132828   3.062   3.469   3.574 -0.4313 -0.9752  1.2820
 3779TIP3    H232829   3.151   3.587   3.544  0.3092 -2.0735 -0.9333
 3780TIP3   OH232830   3.948   4.020  15.243  0.0547 -0.6872 -0.2174
 3780TIP3    H132831   3.967   3.926  15.251  0.0251 -0.5334  2.3076
 3780TIP3    H232832   3.978   4.057  15.326 -0.0684  1.5290 -1.1325
 3781TIP3   OH232833   1.797   6.792  15.131  0.8434 -0.2159 -0.0219
 3781TIP3    H132834   1.836   6.807  15.217  0.7118 -0.2435  0.0431
 3781TIP3    H232835   1.733   6.863  15.122  0.6840 -0.3566  0.0063
 3782TIP3   OH232836   3.847   4.165   4.686  0.4981 -0.4286 -0.0213
 3782TIP3    H132837   3.843   4.083   4.638  0.2952 -0.3763 -0.0967
 3782TIP3    H232838   3.927   4.160   4.738  0.4150 -0.7280  0.0752
 3783TIP3   OH232839   0.416   1.474  16.255  0.3509 -0.4080  0.0599
 3783TIP3    H132840   0.443   1.539  16.190 -0.9619  1.0798  0.9743
 3783TIP3    H232841   0.398   1.525  16.334 -0.2766 -1.9280  0.9105
 3784TIP3   OH232842   0.994   5.762   5.727 -0.3441 -0.5237  0.3854
 3784TIP3    H132843   1.073   5.775   5.780 -0.2526 -1.0623  0.3785
 3784TIP3    H232844   0.991   5.840   5.671  0.8518 -1.0579 -0.4534
 3785TIP3   OH232845   0.745   3.428   5.177 -0.0424  0.3327 -0.0920
 3785TIP3    H132846   0.764   3.366   5.108  0.5959 -0.7706  1.0535
 3785TIP3    H232847   0.830   3.457   5.209 -0.3137  0.3185  0.6780
 3786TIP3   OH232848   3.992   6.209   5.765  0.4919 -0.0973  0.3029
 3786TIP3    H132849   3.927   6.179   5.701  1.0146  1.9481 -1.2214
 3786TIP3    H232850   3.943   6.265   5.825  0.1765 -1.3313  1.2218
 3787TIP3   OH232851   4.883   4.092   4.170 -0.0823 -0.0865 -0.2156
 3787TIP3    H132852   4.809   4.110   4.228  0.9299  0.7454  0.8660
 3787TIP3    H232853   4.924   4.014   4.208  0.5676  0.4438  0.1789
 3788TIP3   OH232854   5.176   1.078   2.307 -0.1596  0.1674  0.4342
 3788TIP3    H132855   5.121   1.001   2.293  0.5872 -0.3951  0.5932
 3788TIP3    H232856   5.116   1.152   2.297 -0.7425 -0.4089 -0.3627
 3789TIP3   OH232857   0.358   6.560  16.609  0.3385  0.0146 -0.0714
 3789TIP3    H132858   0.384   6.593  16.523  0.7871 -0.7902 -0.2519
 3789TIP3    H232859   0.316   6.476  16.591 -0.5511  0.3505  0.4030
 3790TIP3   OH232860   0.548   2.477  12.094  0.6411  0.3417  0.1033
 3790TIP3    H132861   0.484   2.439  12.033  1.0058  1.4265 -0.9744
 3790TIP3    H232862   0.536   2.572  12.085  1.0266  0.5251  1.3810
 3791TIP3   OH232863   4.668   2.387   1.840 -0.4178 -0.3943  0.3385
 3791TIP3    H132864   4.683   2.479   1.862 -2.1949 -0.2228  0.8700
 3791TIP3    H232865   4.666   2.342   1.924 -0.1760 -0.8342  0.1111
 3792TIP3   OH232866   2.035   3.364  16.116  0.3983  0.4645  0.5974
 3792TIP3    H132867   2.096   3.363  16.042  0.1228  1.0185  0.3682
 3792TIP3    H232868   2.011   3.272  16.127 -0.2516  0.4849 -0.5713
 3793TIP3   OH232869   4.477   5.282   2.559 -0.3898 -0.5731  0.2663
 3793TIP3    H132870   4.520   5.252   2.639  1.1033 -0.1819 -0.3821
 3793TIP3    H232871   4.516   5.368   2.541 -0.6324 -0.7032 -0.9467
 3794TIP3   OH232872   0.463   3.576  12.019  0.0329 -0.7895 -0.0899
 3794TIP3    H132873   0.522   3.587  12.094 -0.7135  1.2561  0.2398
 3794TIP3    H232874   0.517   3.535  11.952  1.1401 -1.2585  1.0576
 3795TIP3   OH232875   3.472   5.067   5.157  0.0310  0.5559  1.2232
 3795TIP3    H132876   3.383   5.072   5.122  1.9801  0.9434 -4.1528
 3795TIP3    H232877   3.497   4.975   5.148  1.2394  1.0156 -0.3347
 3796TIP3   OH232878   1.992   6.820   3.355  0.5103  0.8896 -0.8507
 3796TIP3    H132879   1.944   6.902   3.367 -0.3529  0.7428 -3.0162
 3796TIP3    H232880   2.026   6.825   3.265  0.7215 -0.9872 -0.8967
 3797TIP3   OH232881   2.801   5.569  13.778  0.4711 -0.5331  0.0406
 3797TIP3    H132882   2.781   5.637  13.713 -1.2878 -0.9704  0.1110
 3797TIP3    H232883   2.764   5.603  13.860  1.8897 -0.3978  0.6363
 3798TIP3   OH232884   1.399   4.273  10.472  0.2283 -0.3751 -0.2377
 3798TIP3    H132885   1.377   4.300  10.561  0.1003  0.4863 -0.5266
 3798TIP3    H232886   1.316   4.241  10.435  0.1021  0.0320 -0.3148
 3799TIP3   OH232887   1.188   5.253   0.557  0.5307  0.3179 -0.0532
 3799TIP3    H132888   1.171   5.185   0.623  0.3490  1.2143  0.8306
 3799TIP3    H232889   1.240   5.208   0.490  0.6311 -0.6353  0.6486
 3800TIP3   OH232890   5.651   4.878   5.258 -0.4394 -0.2092 -0.1551
 3800TIP3    H132891   5.610   4.830   5.186  0.8988 -0.9268 -0.4449
 3800TIP3    H232892   5.682   4.960   5.218  0.8847 -0.8898 -0.5604
 3801TIP3   OH232893   0.110   3.283   3.674 -0.1773 -0.4153  0.1589
 3801TIP3    H132894   0.051   3.308   3.746  0.4772 -0.7097  0.8101
 3801TIP3    H232895   0.197   3.302   3.708  0.1823 -1.2890 -0.2786
 3802TIP3   OH232896   1.621   0.427   1.551  0.5426 -0.5977  0.3302
 3802TIP3    H132897   1.552   0.492   1.557  0.2554 -0.9874  1.4545
 3802TIP3    H232898   1.702   0.478   1.544  0.1004 -0.1420 -1.7990
 3803TIP3   OH232899   0.392   4.945   2.664  0.2947  0.0681 -0.3486
 3803TIP3    H132900   0.373   4.995   2.744 -0.9417  0.1122 -0.6586
 3803TIP3    H232901   0.407   4.856   2.695  2.4742  0.5755  0.2041
 3804TIP3   OH232902   6.002   4.496  12.042  0.4361 -0.6172  0.6233
 3804TIP3    H132903   5.976   4.542  12.123 -0.5534 -1.4302  0.7734
 3804TIP3    H232904   6.083   4.451  12.065  0.8269  0.1678  0.7985
 3805TIP3   OH232905   1.431   2.494   4.945 -0.0404 -0.4010  0.1324
 3805TIP3    H132906   1.410   2.417   4.999  0.5213 -1.4677 -1.1250
 3805TIP3    H232907   1.469   2.457   4.866 -1.7444  1.0877 -1.4254
 3806TIP3   OH232908   3.948   5.102  13.140  0.3500  0.4556 -0.3170
 3806TIP3    H132909   4.041   5.103  13.163 -0.3996  2.1116  2.9387
 3806TIP3    H232910   3.902   5.103  13.224 -2.6356 -0.4142 -1.8504
 3807TIP3   OH232911   1.427   3.292  16.381 -0.5801 -0.0257 -0.1367
 3807TIP3    H132912   1.366   3.347  16.431 -0.9779 -0.1237 -0.5047
 3807TIP3    H232913   1.513   3.311  16.418 -0.8364  0.1143  0.3893
 3808TIP3   OH232914   0.139   5.300  10.999 -0.3179 -0.2762  0.0629
 3808TIP3    H132915   0.187   5.272  10.921  2.0006  0.6506  1.1425
 3808TIP3    H232916   0.196   5.279  11.072 -0.6726  2.6086  1.2465
 3809TIP3   OH232917   3.228   4.825  11.489  0.1369 -0.3491  0.0412
 3809TIP3    H132918   3.174   4.767  11.435 -0.2805 -0.2314  0.3251
 3809TIP3    H232919   3.318   4.802  11.467 -0.0189  0.1446 -1.1789
 3810TIP3   OH232920   2.871   1.331  15.881 -0.6768  0.3465 -0.8107
 3810TIP3    H132921   2.910   1.245  15.868  0.0942  0.4409  0.7410
 3810TIP3    H232922   2.911   1.387  15.815 -1.7013 -0.6311 -2.2889
 3811TIP3   OH232923   5.926   0.406  17.175  0.1280 -0.7808  0.0107
 3811TIP3    H132924   6.016   0.437  17.187 -0.1766 -0.2497  0.9631
 3811TIP3    H232925   5.878   0.443  17.249 -0.6587 -1.9249  0.0827
 3812TIP3   OH232926   1.734   0.619   4.540 -0.0172  0.0286 -0.1268
 3812TIP3    H132927   1.717   0.585   4.628  1.4433 -0.6407 -0.0835
 3812TIP3    H232928   1.706   0.710   4.545 -0.5666 -0.1754  0.8368
 3813TIP3   OH232929   2.784   1.096  12.098  0.1658  0.3554  0.1526
 3813TIP3    H132930   2.853   1.038  12.129  1.2446  0.2803 -2.2120
 3813TIP3    H232931   2.714   1.037  12.070  0.2928  0.2961 -0.0421
 3814TIP3   OH232932   0.836   5.056   1.499 -0.6146  0.0834 -0.8609
 3814TIP3    H132933   0.821   5.059   1.593  0.6393 -1.0394 -0.6183
 3814TIP3    H232934   0.858   5.146   1.475  0.8271  0.0219  0.2115
 3815TIP3   OH232935   4.279   0.831   0.338  0.0455 -0.3296 -0.0692
 3815TIP3    H132936   4.239   0.762   0.391  0.7942 -0.8593 -0.1830
 3815TIP3    H232937   4.221   0.906   0.348 -1.3310 -1.2771 -0.7392
 3816TIP3   OH232938   2.578   3.118   5.089 -0.2608  0.3234  0.1156
 3816TIP3    H132939   2.529   3.037   5.106 -0.7854  0.6649  0.2356
 3816TIP3    H232940   2.582   3.162   5.174 -0.1519  0.5246  0.0078
 3817TIP3   OH232941   4.427   1.207  16.852 -0.1951 -0.4807 -0.0040
 3817TIP3    H132942   4.381   1.200  16.768 -1.5664  0.6702  0.6425
 3817TIP3    H232943   4.379   1.149  16.911  0.3005 -0.6917  0.1946
 3818TIP3   OH232944   0.541   1.472   5.364 -0.4241  0.1962  0.4153
 3818TIP3    H132945   0.626   1.442   5.331 -0.7167 -0.1740 -0.0014
 3818TIP3    H232946   0.563   1.528   5.439  0.2626  1.2438 -0.5490
 3819TIP3   OH232947   2.965   3.679   2.758 -0.4307 -0.1185 -0.3477
 3819TIP3    H132948   3.018   3.678   2.678  0.3361  2.7943  0.0716
 3819TIP3    H232949   2.893   3.619   2.739  1.3407 -1.7930 -2.0795
 3820TIP3   OH232950   6.001   5.794  13.392 -0.0301  0.2601  0.2159
 3820TIP3    H132951   6.070   5.771  13.329 -1.6212 -0.0482 -1.4509
 3820TIP3    H232952   5.943   5.853  13.343 -3.9383 -3.6965 -0.2106
 3821TIP3   OH232953   3.649   1.472   3.577 -0.3689 -0.3774  0.4191
 3821TIP3    H132954   3.661   1.433   3.491 -1.2098  0.4463 -0.0807
 3821TIP3    H232955   3.627   1.563   3.559 -0.3951 -0.1630  1.5134
 3822TIP3   OH232956   0.176   3.893  16.904 -0.2176 -0.1982 -0.5207
 3822TIP3    H132957   0.119   3.887  16.981 -0.3551  0.3311 -0.5779
 3822TIP3    H232958   0.233   3.967  16.922 -0.6988  0.3561 -1.2230
 3823TIP3   OH232959   5.144   6.073   6.117 -0.2930 -0.1952 -1.0338
 3823TIP3    H132960   5.100   6.142   6.068 -0.1089  1.1785  0.7303
 3823TIP3    H232961   5.077   6.039   6.176  0.1680 -0.1748 -0.4976
 3824TIP3   OH232962   4.508   3.124   2.847 -0.7000  0.7851  0.5416
 3824TIP3    H132963   4.418   3.108   2.873 -1.1152  1.4757 -0.4408
 3824TIP3    H232964   4.507   3.120   2.751  0.4957 -0.1529  0.5504
 3825TIP3   OH232965   5.401   4.807   2.844  0.3353  0.5797 -0.7176
 3825TIP3    H132966   5.454   4.804   2.924 -2.2366 -1.4766  0.9777
 3825TIP3    H232967   5.352   4.725   2.845 -0.8015  1.1785 -3.6882
 3826TIP3   OH232968   1.262   3.134  13.034 -0.5633  0.0641 -0.1634
 3826TIP3    H132969   1.242   3.228  13.033 -0.9171 -0.0041  0.2695
 3826TIP3    H232970   1.183   3.093  12.999 -0.4354 -0.0803 -0.2836
 3827TIP3   OH232971   3.135   2.378  13.579  0.9580 -0.4244  0.4225
 3827TIP3    H132972   3.223   2.356  13.549  0.8194 -1.9827  1.0734
 3827TIP3    H232973   3.085   2.394  13.499  1.1475 -2.2780 -0.0914
 3828TIP3   OH232974   1.191   5.307   1.634  0.2112  0.1171  0.1645
 3828TIP3    H132975   1.117   5.366   1.647  0.9372  1.2980 -0.8790
 3828TIP3    H232976   1.264   5.352   1.676  0.7755 -0.0108 -0.6644
 3829TIP3   OH232977   0.629   1.205  14.101 -0.1826  0.0446  0.0926
 3829TIP3    H132978   0.541   1.240  14.114  0.0768  0.6586  0.2281
 3829TIP3    H232979   0.684   1.282  14.088  0.5487 -0.2583  1.2724
 3830TIP3   OH232980   2.979   4.211   6.133 -0.4368 -0.2082  0.3072
 3830TIP3    H132981   2.951   4.302   6.129 -0.7401 -0.3487 -0.8472
 3830TIP3    H232982   2.972   4.188   6.226 -0.8393  0.7868  0.5266
 3831TIP3   OH232983   4.682   4.167  13.477 -0.0930  0.6782  0.0378
 3831TIP3    H132984   4.647   4.222  13.407  0.4946  0.8096 -0.1594
 3831TIP3    H232985   4.623   4.092  13.480  0.3887  0.2373 -1.2083
 3832TIP3   OH232986   3.901   1.948  15.680 -0.6037  0.1645  0.8548
 3832TIP3    H132987   3.928   2.028  15.725  0.5623 -0.5814  1.5043
 3832TIP3    H232988   3.805   1.947  15.688 -0.5477  0.9677  1.7254
 3833TIP3   OH232989   3.387   0.956   1.440  0.2274  0.3225  0.1766
 3833TIP3    H132990   3.435   1.032   1.473  0.3512 -0.1209  1.0221
 3833TIP3    H232991   3.409   0.885   1.500 -1.3180  0.0574  0.4505
 3834TIP3   OH232992   2.113   3.593   3.647 -0.1051  0.0500 -0.5632
 3834TIP3    H132993   2.137   3.543   3.725 -2.8646 -0.4196  0.0349
 3834TIP3    H232994   2.140   3.683   3.666 -2.4578  0.3214  1.7775
 3835TIP3   OH232995   1.234   1.757   2.157 -0.0352  0.5696  0.3069
 3835TIP3    H132996   1.211   1.669   2.127 -2.8172  1.7084 -1.0888
 3835TIP3    H232997   1.316   1.777   2.113 -0.5327 -0.4706 -1.1281
 3836TIP3   OH232998   6.700   0.752   5.125 -0.5865 -0.2869 -0.3342
 3836TIP3    H132999   6.635   0.777   5.191 -1.0998  0.8951 -1.2826
 3836TIP3    H233000   6.651   0.748   5.043  0.2565 -0.8067 -0.8204
 3837TIP3   OH233001   5.764   4.984  12.373  0.4186 -0.0927 -0.1690
 3837TIP3    H133002   5.787   5.076  12.386 -0.1289  0.1553 -0.9387
 3837TIP3    H233003   5.679   4.974  12.416  0.3429 -0.1755 -0.3412
 3838TIP3   OH233004   3.012   6.769  15.031  0.5626  0.1935  0.4587
 3838TIP3    H133005   3.097   6.783  15.072  0.7934 -2.7529  1.1408
 3838TIP3    H233006   2.952   6.757  15.104 -0.5702  2.6955 -0.0157
 3839TIP3   OH233007   6.791   6.665  15.695 -0.7039 -0.2894  0.1350
 3839TIP3    H133008   6.805   6.730  15.626  0.5530 -2.7112 -2.0033
 3839TIP3    H233009   6.706   6.626  15.675 -0.8464 -0.2253  0.6121
 3840TIP3   OH233010   1.331   2.270   1.428  0.2995  0.0687 -0.1566
 3840TIP3    H133011   1.285   2.254   1.510  0.3583  0.1762 -0.1025
 3840TIP3    H233012   1.364   2.359   1.436 -0.1889  0.2878 -0.5358
 3841TIP3   OH233013   5.792   3.770  10.433  0.0110  0.2586 -0.4617
 3841TIP3    H133014   5.702   3.787  10.462 -0.8398  0.5508 -3.1334
 3841TIP3    H233015   5.821   3.696  10.487 -1.9053  0.0497  0.3183
 3842TIP3   OH233016   0.261   0.244  11.489 -0.4411  0.5382  0.3435
 3842TIP3    H133017   0.241   0.314  11.427 -1.5061 -0.3768 -0.3496
 3842TIP3    H233018   0.342   0.273  11.532 -0.9993  2.2932  0.2270
 3843TIP3   OH233019   6.523   5.098  16.215  0.2220  0.6154  0.5619
 3843TIP3    H133020   6.593   5.033  16.219  0.9213  1.1293 -2.5162
 3843TIP3    H233021   6.458   5.066  16.278  2.3678 -0.8341  2.1326
 3844TIP3   OH233022   0.251   3.814  15.099  0.3767 -0.2233 -0.5799
 3844TIP3    H133023   0.231   3.781  15.011  0.6070 -1.2508 -0.2623
 3844TIP3    H233024   0.306   3.890  15.085  1.1211 -0.8871 -1.3136
 3845TIP3   OH233025   2.295   4.601  17.019  0.3353 -0.1158  0.5030
 3845TIP3    H133026   2.274   4.518  16.976 -0.7161 -0.0714  0.9142
 3845TIP3    H233027   2.294   4.579  17.113 -0.2253  0.4176  0.6244
 3846TIP3   OH233028   2.854   5.890  11.839 -0.0287 -0.2709 -0.0116
 3846TIP3    H133029   2.917   5.873  11.909 -0.5442 -1.7793  0.0974
 3846TIP3    H233030   2.769   5.893  11.882 -0.0252  2.1998 -0.0931
 3847TIP3   OH233031   0.242   3.481   2.967  0.3779 -0.2474  0.6931
 3847TIP3    H133032   0.216   3.523   2.885  1.1768  1.5425  1.3308
 3847TIP3    H233033   0.165   3.432   2.994  0.2871 -1.3193 -1.4071
 3848TIP3   OH233034   5.472   6.767  12.431 -0.2594  0.2340  0.2709
 3848TIP3    H133035   5.549   6.788  12.485 -0.5125 -2.0678  1.5649
 3848TIP3    H233036   5.487   6.814  12.349  2.4742 -0.0477  0.5664
 3849TIP3   OH233037   4.986   1.919  13.959 -0.0390  0.0443  0.0478
 3849TIP3    H133038   5.016   1.853  13.897 -0.3660 -0.6890  0.6669
 3849TIP3    H233039   5.051   1.918  14.030 -0.1708  0.2250  0.1730
 3850TIP3   OH233040   6.464   5.516   0.264  0.1500 -0.1083 -0.8595
 3850TIP3    H133041   6.429   5.587   0.318  1.1020  0.1356 -0.5545
 3850TIP3    H233042   6.416   5.522   0.182 -0.0445  0.6506 -0.6942
 3851TIP3   OH233043   0.724   0.241  13.607 -0.2019 -0.9191 -0.0297
 3851TIP3    H133044   0.802   0.296  13.613  0.8373 -2.3401 -0.1896
 3851TIP3    H233045   0.692   0.236  13.698  0.0045 -0.4966  0.0683
 3852TIP3   OH233046   5.163   3.307  12.466  0.1443  0.1845  0.1422
 3852TIP3    H133047   5.119   3.255  12.399 -0.7292  1.3328 -0.1937
 3852TIP3    H233048   5.095   3.331  12.528  0.4782  1.1602  0.1432
 3853TIP3   OH233049   0.043   2.906  12.831  0.4243 -0.2601  0.1995
 3853TIP3    H133050  -0.033   2.949  12.791  1.2473  0.3579 -0.7047
 3853TIP3    H233051   0.114   2.969  12.822  1.0194 -0.7755  1.1859
 3854TIP3   OH233052   4.524   4.636   3.070 -0.1203  0.0105  0.1968
 3854TIP3    H133053   4.521   4.593   2.985  0.8582  1.0227 -0.3669
 3854TIP3    H233054   4.452   4.699   3.068 -0.7793 -0.7122  0.5528
 3855TIP3   OH233055   4.031   5.466  16.580  0.6292 -0.8950  0.2804
 3855TIP3    H133056   4.048   5.408  16.505 -0.2557 -2.6958  1.4233
 3855TIP3    H233057   3.938   5.487  16.574  1.1296  1.1727 -0.6234
 3856TIP3   OH233058   1.763   6.574   2.575  0.0448  0.2875  0.1924
 3856TIP3    H133059   1.802   6.494   2.608 -0.2021  0.5670  1.1639
 3856TIP3    H233060   1.804   6.587   2.489 -0.1107 -1.0102 -0.0881
 3857TIP3   OH233061   5.345   0.914  16.179 -0.1992  0.1933 -0.2414
 3857TIP3    H133062   5.314   0.990  16.228  1.0855  0.3214  0.3830
 3857TIP3    H233063   5.405   0.951  16.114  1.4635 -0.4038  0.9271
 3858TIP3   OH233064   2.787   1.231   3.550  1.0644 -0.3979  0.2330
 3858TIP3    H133065   2.865   1.260   3.504 -0.6116  0.4114 -2.2001
 3858TIP3    H233066   2.746   1.312   3.581 -0.9914 -0.4801 -2.1826
 3859TIP3   OH233067   0.888   5.204   3.114  0.3389 -0.2646  0.1869
 3859TIP3    H133068   0.871   5.285   3.162  0.5123  0.2750 -0.6344
 3859TIP3    H233069   0.948   5.155   3.169 -0.5751 -0.2912  1.1654
 3860TIP3   OH233070   0.904   0.563   2.289 -0.0154  0.0939  0.3247
 3860TIP3    H133071   0.978   0.507   2.266  0.7982  0.8573  1.0162
 3860TIP3    H233072   0.860   0.516   2.360  1.5103  0.9683  1.9049
 3861TIP3   OH233073   3.703   4.689  10.533 -0.1067  0.2505 -0.1735
 3861TIP3    H133074   3.674   4.778  10.518 -0.5070 -0.3054 -2.9987
 3861TIP3    H233075   3.623   4.639  10.548 -0.1498 -0.1693 -1.7246
 3862TIP3   OH233076   3.509   0.431   3.424 -0.0108 -0.0989  0.1786
 3862TIP3    H133077   3.569   0.434   3.498 -1.2063 -0.4774  1.1796
 3862TIP3    H233078   3.449   0.359   3.444 -1.0437  0.5102 -0.6101
 3863TIP3   OH233079   6.757   3.104  16.805  0.0910 -0.3910 -0.5811
 3863TIP3    H133080   6.663   3.110  16.826 -0.6279 -1.3233 -3.3489
 3863TIP3    H233081   6.779   3.012  16.820  0.6613 -0.1037  0.3819
 3864TIP3   OH233082   1.119   5.999  15.168 -0.9007 -0.3216 -0.0976
 3864TIP3    H133083   1.117   5.950  15.086  0.8918 -1.9875  0.8224
 3864TIP3    H233084   1.100   6.089  15.143 -2.2899 -1.1291 -2.0773
 3865TIP3   OH233085   3.838   6.301  11.141 -0.0261 -0.5839 -0.3423
 3865TIP3    H133086   3.849   6.376  11.083  1.6463  0.5076  1.3188
 3865TIP3    H233087   3.885   6.230  11.098 -0.0240 -0.1813 -1.0112
 3866TIP3   OH233088   0.128   4.106  16.387 -0.2091  0.6185  0.0181
 3866TIP3    H133089   0.079   4.028  16.411  1.6515 -1.7726 -3.3568
 3866TIP3    H233090   0.176   4.130  16.466 -0.5017 -1.9366  1.0144
 3867TIP3   OH233091   1.199   4.422   4.147  0.5774 -0.0714  0.6056
 3867TIP3    H133092   1.246   4.498   4.180 -0.7380 -0.0209  2.4723
 3867TIP3    H233093   1.121   4.415   4.203 -1.5178 -0.3060 -2.2034
 3868TIP3   OH233094   1.013   1.761   1.901 -0.5137  0.1820  0.0114
 3868TIP3    H133095   0.952   1.737   1.832  0.6448  0.1057 -1.0048
 3868TIP3    H233096   1.078   1.690   1.902  0.4546  1.0430 -0.0276
 3869TIP3   OH233097   3.452   4.506  17.041 -0.7624 -0.8871  0.5483
 3869TIP3    H133098   3.486   4.536  16.957 -2.3931 -0.7432 -0.0788
 3869TIP3    H233099   3.502   4.555  17.107 -2.1900  1.9528 -0.4180
 3870TIP3   OH233100   2.479   3.557  12.804  0.1029 -0.3656 -0.3261
 3870TIP3    H133101   2.421   3.497  12.851  0.9626 -1.6184 -0.8562
 3870TIP3    H233102   2.565   3.546  12.847  0.5063 -0.2754 -1.1074
 3871TIP3   OH233103   6.093   1.739   3.380 -0.2846 -0.2186 -0.2765
 3871TIP3    H133104   6.145   1.816   3.357  0.3989 -1.0406 -1.5333
 3871TIP3    H233105   6.143   1.695   3.448  0.5305 -0.8430 -1.2666
 3872TIP3   OH233106   4.153   0.047   1.852  0.1537 -0.4818  0.2858
 3872TIP3    H133107   4.231  -0.002   1.878  1.1994  0.3382 -1.2369
 3872TIP3    H233108   4.106   0.062   1.934  1.1302 -1.7713  1.1014
 3873TIP3   OH233109   3.179   1.221  12.323  0.0073 -0.0258  0.1475
 3873TIP3    H133110   3.205   1.295  12.268  1.7203  0.8393  2.0485
 3873TIP3    H233111   3.086   1.237  12.343  0.2615  1.4482  0.2369
 3874TIP3   OH233112   4.095   4.991   3.961  0.3224  0.1649 -0.1196
 3874TIP3    H133113   4.041   5.013   3.885 -0.2544 -2.4228 -0.5070
 3874TIP3    H233114   4.078   4.898   3.977  0.5013  0.6192  3.1365
 3875TIP3   OH233115   4.929   5.760   4.093 -0.4163 -0.6898  0.4090
 3875TIP3    H133116   4.994   5.830   4.094 -0.1777 -0.9146  0.5443
 3875TIP3    H233117   4.917   5.740   4.000 -0.6220 -0.3435  0.3586
 3876TIP3   OH233118   2.836   0.531   2.827  0.7455 -0.2494 -0.0448
 3876TIP3    H133119   2.766   0.549   2.890  0.1834 -0.4998 -0.5919
 3876TIP3    H233120   2.802   0.459   2.774  2.3677 -1.9472  1.1785
 3877TIP3   OH233121   0.016   3.086   2.700  0.9926 -0.1445 -0.3878
 3877TIP3    H133122   0.108   3.103   2.722  0.5592  1.0413  0.5210
 3877TIP3    H233123  -0.003   3.001   2.739  1.4471  0.0210  0.2001
 3878TIP3   OH233124   4.807   2.260   5.795 -0.0289  0.0230 -0.1172
 3878TIP3    H133125   4.717   2.230   5.795 -0.3599  0.9162  1.6942
 3878TIP3    H233126   4.801   2.355   5.805  1.1168  0.0870  0.1045
 3879TIP3   OH233127   6.346   3.332   6.183  0.8918 -0.5616  0.4822
 3879TIP3    H133128   6.395   3.415   6.188  1.5576 -0.8435 -1.0858
 3879TIP3    H233129   6.257   3.356   6.207  1.1894  0.5204  0.5484
 3880TIP3   OH233130   6.202   5.347   0.956  0.0164 -0.3743 -0.2026
 3880TIP3    H133131   6.166   5.339   0.868 -0.0519 -1.7269 -0.0670
 3880TIP3    H233132   6.287   5.303   0.952  0.0112 -0.4506  0.4042
 3881TIP3   OH233133   0.833   0.344  16.766 -0.4421  0.0203 -0.1612
 3881TIP3    H133134   0.771   0.371  16.834  0.4956  0.1149  0.6730
 3881TIP3    H233135   0.893   0.419  16.759 -0.2522 -0.1881 -0.7596
 3882TIP3   OH233136   4.620   3.683   5.009 -0.3319 -0.2862 -0.0962
 3882TIP3    H133137   4.634   3.605   4.956  0.8499 -0.6395  0.7250
 3882TIP3    H233138   4.708   3.709   5.038 -0.9343  0.0293  1.5068
 3883TIP3   OH233139   2.495   2.557   5.052 -0.3362  0.1347 -1.1735
 3883TIP3    H133140   2.590   2.552   5.064 -0.2518 -0.3789 -2.0260
 3883TIP3    H233141   2.459   2.509   5.126  0.0254  1.4558 -0.1191
 3884TIP3   OH233142   6.537   6.619  16.393 -0.5199 -0.1420  0.0119
 3884TIP3    H133143   6.566   6.570  16.316 -0.5868  1.0617 -0.7940
 3884TIP3    H233144   6.466   6.567  16.429 -2.0609  0.4421 -2.1028
 3885TIP3   OH233145   1.623   2.251  14.776 -0.2179 -0.1247 -0.4132
 3885TIP3    H133146   1.695   2.194  14.802  0.0821  0.4464  0.0276
 3885TIP3    H233147   1.665   2.327  14.735 -0.6673 -0.7473 -2.0648
 3886TIP3   OH233148   3.859   4.311  14.044 -0.4932 -0.4587  0.0249
 3886TIP3    H133149   3.829   4.402  14.057  1.1112 -0.1463  1.7498
 3886TIP3    H233150   3.782   4.258  14.063 -1.8527  0.5550 -2.3701
 3887TIP3   OH233151   3.384   5.902   4.941 -0.5402 -0.3786 -0.0913
 3887TIP3    H133152   3.332   5.966   4.894  0.5430  0.1916 -0.5222
 3887TIP3    H233153   3.475   5.925   4.922 -0.1257 -1.5525  0.3937
 3888TIP3   OH233154   6.699   2.198   0.298  0.2532 -0.2714 -0.1987
 3888TIP3    H133155   6.795   2.205   0.294  0.3166  0.6664  2.1286
 3888TIP3    H233156   6.683   2.111   0.334  0.3153  0.3811  1.4583
 3889TIP3   OH233157   6.031   5.722  15.950 -0.0257 -0.2040  0.0041
 3889TIP3    H133158   6.125   5.713  15.933  0.4686  0.0692  2.4993
 3889TIP3    H233159   6.003   5.636  15.980 -0.1360  0.2506  1.2371
 3890TIP3   OH233160   5.578   1.086  16.826  0.4381 -0.1748 -0.3432
 3890TIP3    H133161   5.594   0.996  16.799  3.0048 -0.1477  1.0096
 3890TIP3    H233162   5.556   1.080  16.919  1.3780  0.6684 -0.0566
 3891TIP3   OH233163   0.063   2.228   0.543  0.1802 -0.4014 -0.3725
 3891TIP3    H133164   0.113   2.196   0.468 -1.7364  0.4434 -2.0663
 3891TIP3    H233165   0.007   2.154   0.568 -0.9812  0.1006 -1.4067
 3892TIP3   OH233166   6.740   4.137  13.967  0.4597 -0.1705 -0.7845
 3892TIP3    H133167   6.747   4.045  13.992  0.2333 -0.3607 -1.4109
 3892TIP3    H233168   6.673   4.138  13.898  0.5959  0.4340 -0.9069
 3893TIP3   OH233169   5.247   5.176  13.959  0.2900  0.2858  0.5537
 3893TIP3    H133170   5.204   5.117  13.898 -1.8997  1.1315  1.2202
 3893TIP3    H233171   5.273   5.252  13.907  1.0741 -0.2658  0.1323
 3894TIP3   OH233172   5.762   3.041   5.017 -0.1718  0.0991 -0.0769
 3894TIP3    H133173   5.716   3.106   5.070 -0.2707  0.5118 -0.6616
 3894TIP3    H233174   5.814   2.991   5.079 -1.4974 -0.4445  0.6173
 3895TIP3   OH233175   4.032   5.570   4.298 -0.1595  0.2056 -0.1484
 3895TIP3    H133176   4.084   5.640   4.339 -0.1093  0.0535  0.0501
 3895TIP3    H233177   3.965   5.616   4.247 -1.5523  0.3861  1.8085
 3896TIP3   OH233178   3.074   5.104  14.794 -0.1419 -0.0350 -0.6104
 3896TIP3    H133179   3.145   5.076  14.736  0.8674 -0.1678  0.6678
 3896TIP3    H233180   3.118   5.125  14.877 -1.3831  1.5146 -0.3227
 3897TIP3   OH233181   5.033   2.704   0.069 -0.0374 -0.1542 -0.0716
 3897TIP3    H133182   4.981   2.624   0.066 -2.8463  1.4685  2.0980
 3897TIP3    H233183   5.029   2.740  -0.019 -1.8202 -0.5823 -0.1773
 3898TIP3   OH233184   1.368   1.248  10.988 -0.1683  0.0489  0.0768
 3898TIP3    H133185   1.385   1.184  10.918  1.0567  0.6708 -0.2069
 3898TIP3    H233186   1.303   1.308  10.951 -0.9329 -0.7219  0.1581
 3899TIP3   OH233187   5.247   2.031   0.315  0.3365  0.0672 -0.2781
 3899TIP3    H133188   5.251   2.112   0.365  0.7007  0.5535 -1.0877
 3899TIP3    H233189   5.185   1.976   0.363 -0.7754  1.2471 -0.3389
 3900TIP3   OH233190   3.469   5.029   5.933 -0.2376  0.0002  0.4194
 3900TIP3    H133191   3.432   5.076   6.008  0.7824 -0.0980  0.9892
 3900TIP3    H233192   3.431   4.941   5.939 -1.8159  0.5936 -0.4079
 3901TIP3   OH233193   6.684   5.905   0.394  0.1608 -0.2481  0.2722
 3901TIP3    H133194   6.687   6.001   0.391  1.5491 -0.2727  0.4807
 3901TIP3    H233195   6.701   5.878   0.304 -2.0370 -0.2819 -0.1535
 3902TIP3   OH233196   5.147   6.243  14.891 -0.1557 -0.2552 -0.1855
 3902TIP3    H133197   5.191   6.315  14.847  0.5483  0.2943  1.3631
 3902TIP3    H233198   5.099   6.284  14.963 -1.2488 -1.1263 -0.4017
 3903TIP3   OH233199   4.619   1.729   3.559  0.4462  0.4681 -0.5710
 3903TIP3    H133200   4.649   1.812   3.522 -2.0191  1.5038 -0.3433
 3903TIP3    H233201   4.568   1.754   3.636 -0.2167 -1.2678 -0.4225
 3904TIP3   OH233202   5.271   3.488   2.771 -0.1831  0.4232  0.0308
 3904TIP3    H133203   5.177   3.486   2.786 -0.0975  0.3278  0.5769
 3904TIP3    H233204   5.297   3.579   2.788 -0.2347  0.5325 -0.4770
 3905TIP3   OH233205   6.717   5.436  12.305  0.5109  0.6450 -0.2826
 3905TIP3    H133206   6.727   5.412  12.213 -2.1487  1.5937 -0.8571
 3905TIP3    H233207   6.783   5.504  12.320  1.5444 -0.1429 -1.2364
 3906TIP3   OH233208   2.543   2.368  11.862 -0.2923  0.0280  0.1093
 3906TIP3    H133209   2.491   2.411  11.794  2.2170 -0.2711 -2.0475
 3906TIP3    H233210   2.489   2.294  11.890 -0.8896 -0.4774 -2.3128
 3907TIP3   OH233211   2.981   3.309   0.633 -0.2101  0.2644 -0.6451
 3907TIP3    H133212   2.950   3.288   0.545 -0.6251 -0.1153 -0.4081
 3907TIP3    H233213   3.074   3.326   0.623 -0.0439 -0.8290 -0.9780
 3908TIP3   OH233214   3.228   3.847  15.745  0.2336  0.3072  0.0275
 3908TIP3    H133215   3.220   3.920  15.806  0.3402  0.5165 -0.2105
 3908TIP3    H233216   3.137   3.819  15.730  0.2774 -0.6426  1.3642
 3909TIP3   OH233217   0.098   2.875  13.121  0.2603 -0.1277 -0.9915
 3909TIP3    H133218   0.112   2.786  13.152  0.2129 -0.3730 -1.6717
 3909TIP3    H233219   0.052   2.865  13.037 -1.1617  0.5731 -0.3217
 3910TIP3   OH233220   3.243   2.495  11.614 -0.0510 -0.5676 -0.8132
 3910TIP3    H133221   3.257   2.525  11.703 -1.6109 -2.3148  0.0520
 3910TIP3    H233222   3.192   2.564  11.572 -0.5761 -0.4120  0.0914
 3911TIP3   OH233223   6.085   3.403   6.241  0.1417  0.3774  0.4468
 3911TIP3    H133224   6.014   3.464   6.221  0.4855  0.8808  0.7509
 3911TIP3    H233225   6.050   3.346   6.310  0.9235  2.3269  2.5352
 3912TIP3   OH233226   0.966   3.363  16.577  0.2490  0.6326  0.4638
 3912TIP3    H133227   0.919   3.297  16.628  0.4020 -1.1335 -1.5753
 3912TIP3    H233228   0.982   3.320  16.493  0.6994  3.1698 -0.7801
 3913TIP3   OH233229   3.064   2.760  16.670 -1.1363 -0.9106 -0.3916
 3913TIP3    H133230   3.103   2.745  16.756 -0.2094 -1.0408 -0.8366
 3913TIP3    H233231   3.074   2.677  16.624 -1.8719 -0.9219 -0.5371
 3914TIP3   OH233232   5.658   1.664  16.147  0.2632  0.2041  0.0896
 3914TIP3    H133233   5.584   1.623  16.193 -0.0006  0.4676 -0.1028
 3914TIP3    H233234   5.731   1.604  16.162 -0.2515 -0.6125 -0.6341
 3915TIP3   OH233235   4.566   5.169   3.540 -0.4128  0.4145  0.1319
 3915TIP3    H133236   4.561   5.145   3.447 -1.8023  0.0668  0.2840
 3915TIP3    H233237   4.475   5.181   3.567  0.0692  2.1941  1.0312
 3916TIP3   OH233238   4.120   2.892   5.698  0.2393  0.3799 -0.1875
 3916TIP3    H133239   4.133   2.914   5.790  1.8136  2.3868 -0.8423
 3916TIP3    H233240   4.138   2.973   5.651 -0.4682 -0.6273 -2.2771
 3917TIP3   OH233241   4.521   5.526  15.239 -0.0793 -0.5446  0.1686
 3917TIP3    H133242   4.528   5.621  15.241 -0.6476 -0.4688 -1.0719
 3917TIP3    H233243   4.558   5.498  15.322  0.2282  0.7517  0.4843
 3918TIP3   OH233244   5.411   2.264  11.331 -0.3533  0.1696  0.2448
 3918TIP3    H133245   5.489   2.245  11.385  0.8348 -1.7012 -2.0160
 3918TIP3    H233246   5.428   2.351  11.295 -0.3839  0.7319  1.5512
 3919TIP3   OH233247   3.234   0.393  12.091  0.1295  0.2457 -0.1762
 3919TIP3    H133248   3.304   0.331  12.111  1.3459  1.7065  0.2114
 3919TIP3    H233249   3.235   0.455  12.164 -1.0737  0.7340 -0.5523
 3920TIP3   OH233250   5.565   5.279  15.097 -0.5243  0.2671  0.1336
 3920TIP3    H133251   5.555   5.373  15.085  0.8695  0.3161 -0.8097
 3920TIP3    H233252   5.562   5.265  15.192  1.4806  1.5381  0.4058
 3921TIP3   OH233253   0.060   0.855   1.365 -0.0016  0.3100 -0.1693
 3921TIP3    H133254   0.066   0.904   1.448  1.0034 -0.0864 -0.0052
 3921TIP3    H233255   0.105   0.773   1.383 -1.7715 -0.7310 -0.4239
 3922TIP3   OH233256   2.911   3.097  16.786  0.1086  0.0515  0.1380
 3922TIP3    H133257   2.927   3.170  16.726 -0.5726  0.5739  0.5920
 3922TIP3    H233258   2.855   3.037  16.735 -0.3918  0.4503  0.2084
 3923TIP3   OH233259   0.909   5.013  11.088  0.5876 -0.3791 -0.0990
 3923TIP3    H133260   0.916   5.082  11.022 -2.9583 -1.1606 -1.4158
 3923TIP3    H233261   0.940   4.934  11.044 -0.5096 -0.6424 -0.4153
 3924TIP3   OH233262   5.110   2.851   5.898 -0.2886  0.0864 -0.4689
 3924TIP3    H133263   5.180   2.873   5.960 -0.3610 -0.1693 -0.2964
 3924TIP3    H233264   5.093   2.758   5.913 -1.1678  0.3223 -0.0147
 3925TIP3   OH233265   0.279   4.103   0.783  0.1058  0.2512  0.2343
 3925TIP3    H133266   0.350   4.053   0.824 -0.2878 -0.1640  0.4198
 3925TIP3    H233267   0.276   4.069   0.693 -0.2376 -0.1416  0.3938
 3926TIP3   OH233268   4.359   0.841  11.873  0.3575  0.1159  0.1667
 3926TIP3    H133269   4.452   0.860  11.864 -0.0527  2.1913  0.0369
 3926TIP3    H233270   4.316   0.927  11.871 -1.5052 -0.7558  0.8665
 3927TIP3   OH233271   1.847   1.266   0.111  0.6816 -0.0440  0.2316
 3927TIP3    H133272   1.897   1.301   0.186 -0.1231  1.7765 -0.0624
 3927TIP3    H233273   1.888   1.307   0.035 -0.0755  0.0024 -0.1445
 3928TIP3   OH233274   1.422   4.726  12.283  0.5351  0.5083  0.0861
 3928TIP3    H133275   1.516   4.717  12.298  0.7594 -0.1519 -1.6012
 3928TIP3    H233276   1.407   4.683  12.199 -1.5269 -0.7119  1.0474
 3929TIP3   OH233277   5.827   1.562   4.642 -0.2055  0.3028  0.2742
 3929TIP3    H133278   5.833   1.635   4.580  0.9369 -0.1766 -0.1880
 3929TIP3    H233279   5.808   1.486   4.588 -2.1460  0.3692  0.8359
 3930TIP3   OH233280   2.504   1.195  11.090  0.9035 -0.2008  0.1044
 3930TIP3    H133281   2.411   1.216  11.079  1.2567  1.1910 -0.3234
 3930TIP3    H233282   2.538   1.191  11.001  1.3013 -0.5139  0.2689
 3931TIP3   OH233283   5.183   5.564  14.968  0.1702  0.6121 -0.3422
 3931TIP3    H133284   5.184   5.634  15.033 -0.8684  0.8996 -0.6251
 3931TIP3    H233285   5.182   5.483  15.019 -0.5442  0.8352 -0.0016
 3932TIP3   OH233286   3.148   5.330  14.580  0.3830 -0.0497 -0.0614
 3932TIP3    H133287   3.075   5.315  14.640 -0.0176  2.1854  0.0621
 3932TIP3    H233288   3.227   5.318  14.633  0.0925 -1.1435  0.1319
 3933TIP3   OH233289   4.359   4.157  13.141 -0.2703 -0.0677 -0.3621
 3933TIP3    H133290   4.442   4.126  13.179  0.1347 -0.5775 -1.6412
 3933TIP3    H233291   4.291   4.119  13.197  0.3635  1.3617  1.4552
 3934TIP3   OH233292   5.364   2.510  14.075  0.1084 -0.4926 -0.2349
 3934TIP3    H133293   5.381   2.580  14.138 -0.1139  0.2719 -1.0025
 3934TIP3    H233294   5.433   2.520  14.009 -0.2631 -0.6354 -0.6507
 3935TIP3   OH233295   1.691   4.319  13.989 -0.1792 -0.1285 -0.0797
 3935TIP3    H133296   1.607   4.341  13.949 -0.9774 -1.5612  0.7777
 3935TIP3    H233297   1.679   4.338  14.082  0.0325 -1.5157  0.2391
 3936TIP3   OH233298   3.240   3.329  15.344  0.2372 -0.2890  0.0985
 3936TIP3    H133299   3.178   3.257  15.353 -0.4097  0.1673 -0.7354
 3936TIP3    H233300   3.326   3.287  15.347 -0.1243 -0.9803  0.6701
 3937TIP3   OH233301   0.440   1.494  15.829 -0.2685 -0.0668  0.5451
 3937TIP3    H133302   0.480   1.540  15.755  0.6749  0.6307  1.4686
 3937TIP3    H233303   0.482   1.532  15.906 -1.9837 -0.0584  1.4903
 3938TIP3   OH233304   2.885   1.771  16.025  0.0440 -0.2825  0.3012
 3938TIP3    H133305   2.789   1.775  16.022  0.0772  0.0659 -0.3061
 3938TIP3    H233306   2.912   1.786  15.935  0.7181  0.9363  0.7017
 3939TIP3   OH233307   5.288   0.636  16.784  0.1346 -0.0159 -0.3478
 3939TIP3    H133308   5.287   0.658  16.690  0.9439  0.6032 -0.2125
 3939TIP3    H233309   5.248   0.712  16.827  1.2874  0.4223 -0.0426
 3940TIP3   OH233310   1.812   4.812   4.559 -0.3617 -0.4591  0.2571
 3940TIP3    H133311   1.829   4.737   4.616 -1.3179 -0.7983  0.1121
 3940TIP3    H233312   1.878   4.877   4.583  2.0452 -2.2498 -1.3202
 3941TIP3   OH233313   0.815   6.681   6.481 -0.1336 -0.3927 -0.4878
 3941TIP3    H133314   0.865   6.695   6.401 -0.7953  3.0342 -0.3892
 3941TIP3    H233315   0.725   6.666   6.451 -0.1069 -0.6783 -0.4305
 3942TIP3   OH233316   3.290   2.339   5.249 -0.0066 -0.2195 -0.1188
 3942TIP3    H133317   3.291   2.415   5.307 -0.7259 -0.5574  0.3296
 3942TIP3    H233318   3.382   2.328   5.224  0.5687 -1.0815  2.2659
 3943TIP3   OH233319   4.999   0.834  11.000 -0.8545  0.2299 -0.7989
 3943TIP3    H133320   5.007   0.778  10.923  1.1426  0.9243 -1.1298
 3943TIP3    H233321   4.943   0.906  10.971 -2.3130 -0.8775 -0.7788
 3944TIP3   OH233322   4.146   3.676  14.564 -0.3036  0.1312  0.0785
 3944TIP3    H133323   4.233   3.638  14.560 -0.2698  0.2822 -0.6751
 3944TIP3    H233324   4.154   3.760  14.518 -0.7920  0.2515  0.2065
 3945TIP3   OH233325   1.863   0.783  17.121 -0.0972  0.1269 -0.2603
 3945TIP3    H133326   1.793   0.739  17.169 -0.2586  0.6555 -0.0117
 3945TIP3    H233327   1.942   0.732  17.144 -0.1511  0.4481  0.6785
 3946TIP3   OH233328   4.120   1.461   3.168  0.2494  0.3547 -0.1836
 3946TIP3    H133329   4.149   1.420   3.086  2.5557 -0.6165  1.0883
 3946TIP3    H233330   4.168   1.415   3.236 -0.3141  2.3585  1.6003
 3947TIP3   OH233331   3.817   2.766  11.160 -0.5361 -0.0794 -0.1639
 3947TIP3    H133332   3.910   2.771  11.181 -0.4299 -0.1550 -0.6078
 3947TIP3    H233333   3.787   2.857  11.159 -0.0368  0.0970 -1.8930
 3948TIP3   OH233334   1.601   1.693  16.438 -0.3522 -0.0459 -0.1960
 3948TIP3    H133335   1.631   1.747  16.512 -0.6423 -1.3067  0.8626
 3948TIP3    H233336   1.644   1.730  16.362  1.3013  0.2261  0.8542
 3949TIP3   OH233337   1.861   2.046   5.034  0.0440 -0.5005  0.9070
 3949TIP3    H133338   1.844   2.029   4.941 -0.7932  0.4681  0.8701
 3949TIP3    H233339   1.933   2.110   5.033 -2.0135  1.8914  0.8112
 3950TIP3   OH233340   4.115   0.998  16.255 -0.4084  0.0573 -0.0260
 3950TIP3    H133341   4.130   0.911  16.292 -2.1647 -0.7310 -1.1235
 3950TIP3    H233342   4.202   1.038  16.250  0.1958 -0.9217  2.2110
 3951TIP3   OH233343   2.640   1.480   2.535 -0.4510  0.2997 -0.2295
 3951TIP3    H133344   2.703   1.421   2.492  0.8937  0.6575  1.2282
 3951TIP3    H233345   2.665   1.567   2.505 -1.2601  0.3171 -0.8850
 3952TIP3   OH233346   2.421   5.502   4.852  0.1639  0.2501  0.3648
 3952TIP3    H133347   2.435   5.533   4.941  0.5817 -0.2203  0.4595
 3952TIP3    H233348   2.350   5.438   4.860  1.1727 -0.8673  0.5811
 3953TIP3   OH233349   4.391   3.521  13.252 -0.6670 -0.1462  0.5617
 3953TIP3    H133350   4.453   3.457  13.217 -1.4172 -0.5272 -0.0932
 3953TIP3    H233351   4.305   3.483  13.234 -1.1112  0.8401  0.5759
 3954TIP3   OH233352   0.670   5.069   0.777  0.4221  0.5129 -0.0702
 3954TIP3    H133353   0.590   5.056   0.725  1.0239 -1.3381 -0.5692
 3954TIP3    H233354   0.726   5.124   0.722 -0.6171  2.0537  0.3994
 3955TIP3   OH233355   5.124   1.893   2.685  0.2653 -0.1587  0.0574
 3955TIP3    H133356   5.155   1.980   2.660 -1.4833 -0.1851 -2.2733
 3955TIP3    H233357   5.143   1.838   2.610 -0.1252 -1.4505  0.8901
 3956TIP3   OH233358   1.701   2.539  11.236 -0.4322  0.0429  0.4595
 3956TIP3    H133359   1.639   2.491  11.291  0.6645 -0.0761  1.6116
 3956TIP3    H233360   1.707   2.626  11.277 -0.1790  0.1972  0.0978
 3957TIP3   OH233361   5.118   1.574  10.797 -0.7409  0.4773  0.2859
 3957TIP3    H133362   5.041   1.517  10.793 -0.7713  0.5719 -0.5405
 3957TIP3    H233363   5.191   1.516  10.817 -0.6198  0.0003 -1.4923
 3958TIP3   OH233364   2.621   5.931  14.481  0.0349 -0.4992 -0.8903
 3958TIP3    H133365   2.645   5.842  14.506  0.3439 -0.1224  0.1868
 3958TIP3    H233366   2.530   5.925  14.452 -0.2797 -0.9856  0.1828
 3959TIP3   OH233367   4.656   0.419  14.226 -0.0068 -0.1917 -0.5065
 3959TIP3    H133368   4.684   0.329  14.238  0.0438  0.0764  1.5616
 3959TIP3    H233369   4.574   0.413  14.176 -0.3434 -1.4162  0.1797
 3960TIP3   OH233370   2.364   1.614  12.742  0.1022 -0.0145  0.0411
 3960TIP3    H133371   2.289   1.638  12.797  0.3408  2.7851 -0.7724
 3960TIP3    H233372   2.437   1.606  12.804 -0.7095 -2.1958  0.7622
 3961TIP3   OH233373   3.538   6.515   6.147 -0.0438 -0.2564  0.0499
 3961TIP3    H133374   3.589   6.450   6.195  0.2397  1.0142  1.5092
 3961TIP3    H233375   3.574   6.599   6.174 -3.1790  0.7107  1.4634
 3962TIP3   OH233376   0.010   2.785  13.391 -0.1284 -0.1154  0.1983
 3962TIP3    H133377  -0.058   2.839  13.430 -0.4683 -0.3320 -0.0917
 3962TIP3    H233378   0.077   2.778  13.459  0.5591  1.8128 -0.2732
 3963TIP3   OH233379   2.991   1.899   3.997  0.1191 -0.2493 -0.5563
 3963TIP3    H133380   3.019   1.818   4.040 -0.2505 -0.7744 -1.2884
 3963TIP3    H233381   3.071   1.937   3.962  0.3843  0.0395  0.3568
 3964TIP3   OH233382   0.819   0.966   4.050  0.2704 -0.3058 -0.1294
 3964TIP3    H133383   0.759   0.971   3.976  1.1436  0.1996 -0.8147
 3964TIP3    H233384   0.797   1.041   4.105 -0.2579 -0.5794  0.0378
 3965TIP3   OH233385   1.112   0.069   4.793 -0.2820  0.0779 -0.5696
 3965TIP3    H133386   1.142   0.095   4.880 -2.4439  0.0285  0.2422
 3965TIP3    H233387   1.178   0.103   4.733  1.6991 -0.6497  1.1355
 3966TIP3   OH233388   2.321   2.352   6.186  0.1596 -0.5972 -0.0729
 3966TIP3    H133389   2.262   2.397   6.247  0.1475 -3.2214  1.9720
 3966TIP3    H233390   2.409   2.371   6.220  0.1848 -1.5311  0.4036
 3967TIP3   OH233391   2.797   5.991   0.009  0.0812 -0.6391 -0.0648
 3967TIP3    H133392   2.787   6.060   0.074  1.4195 -0.9105  0.4496
 3967TIP3    H233393   2.721   5.934   0.022 -0.9197  0.6136 -0.3652
 3968TIP3   OH233394   0.749   6.326  12.684 -0.3201  0.2443  0.7091
 3968TIP3    H133395   0.818   6.275  12.643 -1.7667 -1.3747  0.2225
 3968TIP3    H233396   0.725   6.276  12.762 -1.2247  0.5671  0.6495
 3969TIP3   OH233397   1.081   1.757  12.084  0.4462  0.0467  0.0316
 3969TIP3    H133398   1.102   1.695  12.154 -0.5790 -0.5053 -0.1421
 3969TIP3    H233399   1.133   1.729  12.009  1.0755  0.2681  0.3809
 3970TIP3   OH233400   4.352   6.282  12.182 -0.0155 -0.3964 -0.4778
 3970TIP3    H133401   4.447   6.269  12.178 -0.0816 -2.5286  3.1029
 3970TIP3    H233402   4.321   6.256  12.096  2.6012  0.0244 -1.6053
 3971TIP3   OH233403   5.554   3.431  15.376 -0.7004  0.0937  0.1742
 3971TIP3    H133404   5.488   3.408  15.312  0.4256 -0.1054 -0.9404
 3971TIP3    H233405   5.612   3.355  15.380 -0.0221  0.6125  0.4495
 3972TIP3   OH233406   3.771   4.131  14.774  0.3750 -0.2268  0.0831
 3972TIP3    H133407   3.794   4.097  14.688 -0.2127 -0.2839 -0.0524
 3972TIP3    H233408   3.795   4.061  14.835  0.3934 -0.3541 -0.0711
 3973TIP3   OH233409   4.729   2.159   0.811  0.6145 -0.1410  0.5112
 3973TIP3    H133410   4.695   2.096   0.874 -0.5475  0.2554  0.2816
 3973TIP3    H233411   4.671   2.150   0.735  2.0815 -0.7233 -0.5728
 3974TIP3   OH233412   1.306   2.294   5.888  0.6531 -0.0304  0.0595
 3974TIP3    H133413   1.287   2.388   5.884 -1.2082 -0.4377 -1.3697
 3974TIP3    H233414   1.324   2.278   5.981 -0.4473  1.4711  0.5653
 3975TIP3   OH233415   4.427   6.594  15.599  0.0649  0.2506  0.5968
 3975TIP3    H133416   4.489   6.526  15.571 -1.2286 -0.6548 -0.1844
 3975TIP3    H233417   4.411   6.575  15.691  0.1545 -0.1641  0.5305
 3976TIP3   OH233418   6.302   4.089  11.395 -0.3247 -0.2352  0.7114
 3976TIP3    H133419   6.307   4.183  11.383  0.1472 -0.1264  1.7173
 3976TIP3    H233420   6.392   4.061  11.411 -0.7637 -0.5223  2.7449
 3977TIP3   OH233421   2.385   3.595   2.892 -0.5603 -0.2294  0.3762
 3977TIP3    H133422   2.421   3.656   2.827 -0.0355  0.2291  1.0935
 3977TIP3    H233423   2.291   3.595   2.875 -0.8246  2.2909  1.6299
 3978TIP3   OH233424   1.019   3.004  12.908  0.1317 -0.5489 -0.1319
 3978TIP3    H133425   0.924   3.012  12.911 -0.0626 -2.8082  0.5291
 3978TIP3    H233426   1.035   2.926  12.856  1.6678  0.2203 -0.8468
 3979TIP3   OH233427   1.954   6.117  16.037 -0.0819 -0.5249  0.3624
 3979TIP3    H133428   2.036   6.142  16.081  0.0931  0.2590 -0.3796
 3979TIP3    H233429   1.979   6.042  15.982  0.3411  0.2130 -0.4747
 3980TIP3   OH233430   5.295   5.926   3.522  0.0679  0.0175 -0.6044
 3980TIP3    H133431   5.380   5.923   3.565 -0.8001 -0.0753  1.1342
 3980TIP3    H233432   5.285   6.018   3.495  0.4795  0.1387 -0.3473
 3981TIP3   OH233433   4.392   1.863  16.551  0.0056 -0.1363  0.1835
 3981TIP3    H133434   4.380   1.899  16.639  1.6535 -0.8351  0.7152
 3981TIP3    H233435   4.400   1.768  16.565  2.3476 -0.0693 -0.4610
 3982TIP3   OH233436   2.709   0.078  12.998  0.3478  0.4231 -0.3475
 3982TIP3    H133437   2.747   0.128  12.926 -0.9286  1.5715 -0.2456
 3982TIP3    H233438   2.729  -0.013  12.978  1.4767  0.8726 -1.2658
 3983TIP3   OH233439   1.214   1.645  17.283  0.2611 -0.1546 -0.0534
 3983TIP3    H133440   1.128   1.640  17.326  0.6736  1.1539  0.9656
 3983TIP3    H233441   1.275   1.611  17.348  0.8822  1.7418  0.4009
 3984TIP3   OH233442   4.484   0.119  14.385 -0.3599  0.0955 -0.3283
 3984TIP3    H133443   4.574   0.136  14.411  0.3732 -1.2383 -1.8822
 3984TIP3    H233444   4.457   0.043  14.437 -0.2110 -0.1786 -0.6493
 3985TIP3   OH233445   5.068   3.919   6.746 -0.0143 -0.5140 -0.7119
 3985TIP3    H133446   4.972   3.918   6.751 -0.0397  0.4504 -0.9218
 3985TIP3    H233447   5.087   3.940   6.655  0.3934  0.4095 -0.4155
 3986TIP3   OH233448   3.019   4.750  14.982  0.1741 -0.4696  0.6890
 3986TIP3    H133449   2.927   4.771  14.971  0.4273 -0.0148 -0.7467
 3986TIP3    H233450   3.039   4.689  14.911  1.5538  1.3950 -0.5924
 3987TIP3   OH233451   0.046   4.526  10.797 -0.7061 -0.4582 -1.1875
 3987TIP3    H133452   0.083   4.439  10.780  1.1686  0.3512 -1.4161
 3987TIP3    H233453   0.097   4.585  10.740  1.1328  1.3922  2.2444
 3988TIP3   OH233454   5.860   2.253   2.944  0.2205 -0.3104 -0.4534
 3988TIP3    H133455   5.796   2.182   2.947 -0.5314  0.4158  1.3235
 3988TIP3    H233456   5.940   2.215   2.980 -0.5229  0.0768  1.6233
 3989TIP3   OH233457   0.016   3.977   3.754 -0.1460  0.2521 -0.2571
 3989TIP3    H133458   0.103   4.009   3.730  0.6318 -0.3669  1.6616
 3989TIP3    H233459  -0.018   4.041   3.816 -1.3786  0.8728 -1.5428
 3990TIP3   OH233460   4.032   6.130   5.258  0.1651 -0.4621 -0.3256
 3990TIP3    H133461   4.031   6.204   5.319 -0.7829  0.0574 -0.9479
 3990TIP3    H233462   4.065   6.168   5.176 -3.5448  0.1153 -1.6433
 3991TIP3   OH233463   6.247   2.870  12.062 -0.5971  0.2950  0.1456
 3991TIP3    H133464   6.240   2.826  11.977  1.3025 -1.1997  0.7463
 3991TIP3    H233465   6.287   2.954  12.042 -2.5010  1.0147 -0.7567
 3992TIP3   OH233466   3.372   5.339  14.061  0.0059  0.1097 -0.5537
 3992TIP3    H133467   3.460   5.304  14.049  0.1048  0.8543 -2.1688
 3992TIP3    H233468   3.345   5.308  14.148  1.1753 -1.5511 -0.7592
 3993TIP3   OH233469   4.906   3.486   5.965  0.3605  0.5115 -0.3747
 3993TIP3    H133470   4.873   3.467   6.053 -1.2497  1.4152 -0.7686
 3993TIP3    H233471   5.001   3.475   5.972 -0.0617 -3.0289  0.5735
 3994TIP3   OH233472   6.668   2.080   4.500 -0.1069 -0.1942  0.2536
 3994TIP3    H133473   6.574   2.073   4.519  0.1653 -1.6303  1.2161
 3994TIP3    H233474   6.694   2.164   4.537 -1.4554  1.2995 -2.0739
 3995TIP3   OH233475   4.136   1.426  13.670 -0.4230  0.5041  0.0415
 3995TIP3    H133476   4.086   1.461  13.744 -1.1934  0.3006 -0.3763
 3995TIP3    H233477   4.213   1.386  13.710 -0.6997  0.6280  0.7105
 3996TIP3   OH233478   5.321   2.523  10.357  0.5453 -0.2289  0.1017
 3996TIP3    H133479   5.289   2.507  10.446  0.3840 -0.4083  0.0118
 3996TIP3    H233480   5.406   2.565  10.369 -0.2264  1.3050  0.3541
 3997TIP3   OH233481   5.582   6.360   5.229 -0.2293 -0.0326  0.0840
 3997TIP3    H133482   5.598   6.401   5.144 -1.2836  0.7736  0.2565
 3997TIP3    H233483   5.537   6.428   5.280 -0.7916 -0.9483  0.8298
 3998TIP3   OH233484   3.959   4.814  12.868  0.1060 -0.1715  0.0645
 3998TIP3    H133485   3.896   4.809  12.796 -0.5399 -0.2897  0.6444
 3998TIP3    H233486   4.032   4.865  12.831 -0.7430  0.8108 -0.3032
 3999TIP3   OH233487   1.099   6.319   0.449 -0.6789 -0.0914 -0.0219
 3999TIP3    H133488   1.050   6.391   0.489 -0.1131  0.7878 -0.8680
 3999TIP3    H233489   1.113   6.257   0.520  0.5094  1.5505  1.2311
 4000TIP3   OH233490   5.849   4.898   5.970 -0.2963  0.2288  0.4216
 4000TIP3    H133491   5.865   4.981   6.014 -0.3602  1.3462 -1.5998
 4000TIP3    H233492   5.935   4.856   5.967  0.2373  1.3938 -0.8504
 4001TIP3   OH233493   1.732   0.421   0.713  0.6773 -0.2922  0.1892
 4001TIP3    H133494   1.766   0.491   0.768  0.6172  0.4727 -0.7163
 4001TIP3    H233495   1.803   0.400   0.653  0.0163  0.4046 -0.8550
 4002TIP3   OH233496   4.105   1.319  12.941 -0.0185 -0.3861  0.5131
 4002TIP3    H133497   4.080   1.362  12.859 -1.3984 -0.4557  0.8926
 4002TIP3    H233498   4.141   1.235  12.912 -0.3528 -0.3463 -0.0430
 4003TIP3   OH233499   0.517   3.745  12.433 -0.1976  0.2262  0.0266
 4003TIP3    H133500   0.561   3.830  12.428 -1.2238  0.7950  0.3005
 4003TIP3    H233501   0.460   3.744  12.356  1.9336 -1.4777 -1.5927
 4004TIP3   OH233502   0.568   3.088  16.377 -0.0828  0.2451 -0.7781
 4004TIP3    H133503   0.601   3.177  16.390  0.8203 -0.4491  2.0499
 4004TIP3    H233504   0.476   3.100  16.353  0.1508  1.9402 -0.9152
 4005TIP3   OH233505   1.891   5.168  10.401 -0.2412 -0.2463  0.0111
 4005TIP3    H133506   1.804   5.191  10.368  0.8075  0.7022 -2.2661
 4005TIP3    H233507   1.907   5.228  10.473 -0.9951  0.3599 -0.3254
 4006TIP3   OH233508   1.996   4.584  14.122 -0.2166  0.2005 -0.7324
 4006TIP3    H133509   1.944   4.573  14.042 -2.1744 -0.8983  0.6542
 4006TIP3    H233510   2.083   4.609  14.091 -0.9375 -0.2522 -3.2052
 4007TIP3   OH233511   5.798   2.855  17.118 -0.4743 -0.1370 -0.0819
 4007TIP3    H133512   5.843   2.908  17.183 -2.3060  1.9765 -0.4655
 4007TIP3    H233513   5.769   2.777  17.166  1.0008 -0.1444  0.8242
 4008TIP3   OH233514   1.963   2.477  15.778 -0.0082 -0.1076  0.2139
 4008TIP3    H133515   1.897   2.439  15.720 -1.5201  1.0979  1.1100
 4008TIP3    H233516   1.993   2.403  15.832 -0.4734 -0.7019 -0.3325
 4009TIP3   OH233517   5.184   4.449   0.830  0.6265  0.1218  0.5075
 4009TIP3    H133518   5.097   4.421   0.803  0.7997 -0.6431  0.7285
 4009TIP3    H233519   5.202   4.527   0.777 -0.4974  0.7306  1.0140
 4010TIP3   OH233520   2.616   0.408   2.153 -0.2412  0.3604 -0.0125
 4010TIP3    H133521   2.552   0.446   2.093  0.1070  0.6767 -0.1801
 4010TIP3    H233522   2.667   0.482   2.185  0.2278  0.0776 -0.0933
 4011TIP3   OH233523   1.160   4.494   3.300  0.2484 -0.2775 -0.3638
 4011TIP3    H133524   1.250   4.507   3.270  0.4024 -1.3459 -0.4118
 4011TIP3    H233525   1.112   4.571   3.269  1.3668  0.8101  0.5669
 4012TIP3   OH233526   5.574   5.894  15.934  0.6778  0.0353 -0.1499
 4012TIP3    H133527   5.506   5.829  15.913  0.5096  0.4957 -1.0565
 4012TIP3    H233528   5.525   5.973  15.957  0.9020  0.3553 -0.7596
 4013TIP3   OH233529   5.781   0.094  16.118 -0.5433  0.0923  0.0539
 4013TIP3    H133530   5.870   0.090  16.153  0.0619  0.6812 -1.4044
 4013TIP3    H233531   5.790   0.068  16.026 -1.7019  1.3019 -0.4096
 4014TIP3   OH233532   5.309   6.720  14.742 -0.2473  0.6026  0.0414
 4014TIP3    H133533   5.237   6.764  14.696  0.1697  2.0430  0.7397
 4014TIP3    H233534   5.383   6.779  14.731  0.3954 -0.0694  0.7578
 4015TIP3   OH233535   0.856   1.056  15.252 -0.0399  0.2407  0.2601
 4015TIP3    H133536   0.922   0.997  15.288  0.8931  0.3588 -1.2053
 4015TIP3    H233537   0.876   1.060  15.158 -2.5086 -0.2073 -0.3254
 4016TIP3   OH233538   6.717   5.077   0.247 -0.3798 -0.4823 -0.5210
 4016TIP3    H133539   6.745   5.141   0.181  1.5287 -0.0955  0.6119
 4016TIP3    H233540   6.747   4.992   0.212  0.7065 -0.2693 -0.1398
 4017TIP3   OH233541   4.112   4.520  12.485  0.5229  0.1645  0.0346
 4017TIP3    H133542   4.181   4.491  12.426 -0.7393 -1.4721 -0.7156
 4017TIP3    H233543   4.155   4.532  12.570  2.0386  0.9247 -0.8354
 4018TIP3   OH233544   4.394   0.622  16.591  0.1120  0.0940  0.1392
 4018TIP3    H133545   4.301   0.626  16.566 -0.5208 -2.5928  1.8732
 4018TIP3    H233546   4.436   0.577  16.517 -0.5722 -1.6572  0.7839
 4019TIP3   OH233547   5.793   0.605   1.217 -0.4405 -0.2060 -0.2428
 4019TIP3    H133548   5.858   0.547   1.257  2.5710  2.7496 -0.6638
 4019TIP3    H233549   5.785   0.572   1.127 -0.3196 -1.2386  0.1121
 4020TIP3   OH233550   1.730   4.568  13.349 -0.6702  0.4424  0.1644
 4020TIP3    H133551   1.744   4.589  13.441 -0.8165 -0.7365  0.4654
 4020TIP3    H233552   1.685   4.644  13.313  0.0134  1.2010  0.9038
 4021TIP3   OH233553   4.525   2.722  12.546 -0.0496 -0.1905  0.0208
 4021TIP3    H133554   4.470   2.799  12.535  0.4139  0.0090 -0.8788
 4021TIP3    H233555   4.597   2.734  12.485  0.0132 -1.3410 -0.1501
 4022TIP3   OH233556   1.689   0.958  12.142 -0.5035  0.9677 -0.7505
 4022TIP3    H133557   1.699   1.003  12.226  0.7577  2.0697 -1.4701
 4022TIP3    H233558   1.695   1.028  12.077 -0.9629  0.0517 -1.7814
 4023TIP3   OH233559   5.552   6.806  16.849  0.3283 -0.1422 -0.5532
 4023TIP3    H133560   5.544   6.887  16.899 -1.1818 -0.5213 -0.1620
 4023TIP3    H233561   5.588   6.743  16.911 -0.8279 -0.4097 -0.1336
 4024TIP3   OH233562   0.536   0.056   0.300  0.1981 -0.0478  0.9574
 4024TIP3    H133563   0.485   0.137   0.307 -1.2046 -0.7209 -0.9069
 4024TIP3    H233564   0.608   0.079   0.241 -2.0985 -0.9731 -2.3704
 4025TIP3   OH233565   3.447   4.489  16.411  0.1412  0.4111  0.6066
 4025TIP3    H133566   3.536   4.497  16.444  0.7908  0.4234 -1.1042
 4025TIP3    H233567   3.457   4.451  16.324 -1.4403  1.6264 -0.1274
 4026TIP3   OH233568   5.393   5.536   3.211 -0.0162 -0.3381  0.0813
 4026TIP3    H133569   5.304   5.507   3.189 -0.4117 -1.0451  2.4602
 4026TIP3    H233570   5.423   5.581   3.133 -3.0166  1.1972 -0.2603
 4027TIP3   OH233571   1.297   6.580   2.550  0.1468  0.3720  0.2388
 4027TIP3    H133572   1.325   6.489   2.558 -3.8853 -0.8495  1.8599
 4027TIP3    H233573   1.247   6.583   2.468  0.6785  1.3008 -0.0693
 4028TIP3   OH233574   5.727   1.178  11.122  0.2940  0.0074 -0.1060
 4028TIP3    H133575   5.714   1.112  11.054  0.5400 -0.4370  0.2750
 4028TIP3    H233576   5.730   1.127  11.204  1.0608  0.4410  0.1323
 4029TIP3   OH233577   6.727   6.186   2.972 -0.0345  0.3325  0.5388
 4029TIP3    H133578   6.801   6.211   2.917 -0.6407  1.8489  0.4053
 4029TIP3    H233579   6.766   6.135   3.043  0.8234 -1.1277 -0.9501
 4030TIP3   OH233580   0.142   5.331   1.285 -0.4032 -0.3090 -0.1316
 4030TIP3    H133581   0.055   5.368   1.294 -0.3057  0.0449 -0.6441
 4030TIP3    H233582   0.173   5.360   1.199  0.1242 -0.6287 -0.0587
 4031TIP3   OH233583   4.209   0.442   2.372  0.2651  0.2731  0.4346
 4031TIP3    H133584   4.275   0.397   2.425 -0.0274  0.2393  0.7693
 4031TIP3    H233585   4.212   0.533   2.400  0.4211  0.3414  0.1963
 4032TIP3   OH233586   2.559   5.533  11.340 -0.2291  0.0068  0.4065
 4032TIP3    H133587   2.567   5.523  11.435  1.5874  0.5434  0.3228
 4032TIP3    H233588   2.605   5.614  11.320 -0.6585 -0.0599 -0.9370
 4033TIP3   OH233589   1.629   1.068   4.081 -0.3253  0.1803  1.0253
 4033TIP3    H133590   1.656   0.978   4.063 -0.3324  0.2819  0.4908
 4033TIP3    H233591   1.596   1.066   4.171  0.1393 -0.2409  1.1869
 4034TIP3   OH233592   4.066   1.706  13.286 -0.1550  0.0201 -0.2822
 4034TIP3    H133593   4.045   1.639  13.221 -0.5238  1.4531 -1.6758
 4034TIP3    H233594   4.161   1.718  13.279 -0.4789  1.6912 -2.0912
 4035TIP3   OH233595   1.017   1.398  16.121 -0.0690  0.3364  0.5298
 4035TIP3    H133596   1.098   1.349  16.135 -0.0884 -0.3631 -1.5760
 4035TIP3    H233597   1.045   1.479  16.078 -0.5439 -0.1704 -0.7351
 4036TIP3   OH233598   3.915   3.562  16.968 -0.0414  0.0535 -0.2861
 4036TIP3    H133599   3.970   3.502  17.018 -1.2802  0.3010  1.3939
 4036TIP3    H233600   3.977   3.615  16.918  1.1961 -0.5236  0.6166
 4037TIP3   OH233601   1.768   6.188  15.412 -0.0829  0.2723  0.3433
 4037TIP3    H133602   1.810   6.111  15.449 -2.2418 -1.1406 -0.0409
 4037TIP3    H233603   1.779   6.178  15.317  0.5693  0.9846  0.3438
 4038TIP3   OH233604   6.520   4.177  13.430 -0.0873  0.7032  0.4278
 4038TIP3    H133605   6.611   4.201  13.418 -0.1428  0.4589 -0.5045
 4038TIP3    H233606   6.506   4.182  13.525  1.1667 -0.2744  0.6720
 4039TIP3   OH233607   5.916   3.163   5.258 -0.5329  0.1790  0.5093
 4039TIP3    H133608   5.847   3.214   5.215  0.8025  2.2113  0.7295
 4039TIP3    H233609   5.919   3.196   5.347  0.7238  0.1184  0.5041
 4040TIP3   OH233610   4.822   0.003   3.383 -0.1090 -0.4874  0.1382
 4040TIP3    H133611   4.752  -0.017   3.446 -1.8159  1.3994 -1.0904
 4040TIP3    H233612   4.884  -0.069   3.394 -1.7180 -1.6816  2.0122
 4041TIP3   OH233613   4.601   3.190  14.125 -0.5550 -0.1891  0.0393
 4041TIP3    H133614   4.559   3.213  14.208  0.9487 -0.9600  1.0389
 4041TIP3    H233615   4.629   3.273  14.089 -2.1269  0.2498 -0.2052
 4042TIP3   OH233616   3.386   4.356   3.227  0.4232  0.0038  0.0052
 4042TIP3    H133617   3.370   4.422   3.159  0.3629  0.8475  0.8195
 4042TIP3    H233618   3.308   4.302   3.226  0.2935  0.1899 -0.3955
 4043TIP3   OH233619   4.689   2.623   1.947  0.4556  0.1693 -0.0787
 4043TIP3    H133620   4.752   2.694   1.963 -0.0974  0.5485  0.4414
 4043TIP3    H233621   4.604   2.667   1.944  0.2871 -0.2386 -1.5501
 4044TIP3   OH233622   6.309   4.499   1.275 -0.0585  0.4354  0.3948
 4044TIP3    H133623   6.309   4.480   1.181  1.0060 -0.6446  0.6070
 4044TIP3    H233624   6.216   4.500   1.299 -0.3925  1.7258 -0.8633
 4045TIP3   OH233625   5.053   2.505  14.636  0.5186 -0.1380 -0.2883
 4045TIP3    H133626   5.078   2.429  14.689  0.7170  0.1383  0.0203
 4045TIP3    H233627   5.137   2.545  14.611  0.4096  1.2558  1.4310
 4046TIP3   OH233628   2.276   3.079   4.724 -0.1206  0.3941  0.1877
 4046TIP3    H133629   2.213   3.127   4.671  0.5192  0.7461 -0.2475
 4046TIP3    H233630   2.222   3.016   4.773 -1.1787  2.7492  2.1262
 4047TIP3   OH233631   1.098   5.820  12.073 -0.2511 -0.4143 -0.5187
 4047TIP3    H133632   1.138   5.752  12.127 -2.6332 -1.4631  0.0112
 4047TIP3    H233633   1.006   5.819  12.098 -0.3208  3.2002 -0.3519
 4048TIP3   OH233634   3.420   1.842  12.762  0.4257 -0.4669  0.3355
 4048TIP3    H133635   3.454   1.762  12.802  0.9362  0.0340  0.9151
 4048TIP3    H233636   3.370   1.885  12.831 -0.5297 -0.6818 -0.2130
 4049TIP3   OH233637   6.656   2.587  12.393 -0.1100 -0.4529  0.3460
 4049TIP3    H133638   6.703   2.510  12.423  0.1264  0.0986  1.4200
 4049TIP3    H233639   6.722   2.656  12.386 -0.3564 -0.2778 -0.3884
 4050TIP3   OH233640   5.693   3.531   4.937  0.1323  0.0814  0.0296
 4050TIP3    H133641   5.669   3.584   5.013  1.9339  1.2342 -0.1934
 4050TIP3    H233642   5.614   3.479   4.919 -1.0462  1.3649  1.3453
 4051TIP3   OH233643   1.219   6.208  16.864 -0.0815 -0.4017 -0.2670
 4051TIP3    H133644   1.269   6.246  16.791  0.6926 -2.0076 -0.5967
 4051TIP3    H233645   1.236   6.267  16.937  1.5585 -0.3914 -0.6264
 4052TIP3   OH233646   6.340   4.589   2.478  0.4896 -0.1547  0.0159
 4052TIP3    H133647   6.368   4.500   2.503 -2.2489 -1.2226 -0.5656
 4052TIP3    H233648   6.273   4.612   2.542 -0.4365  0.5920 -1.2198
 4053TIP3   OH233649   0.135   5.952  15.572 -0.4022 -0.5444 -0.2513
 4053TIP3    H133650   0.124   5.995  15.487 -0.1464  0.2889  0.1353
 4053TIP3    H233651   0.211   5.995  15.611 -0.9760 -0.4106  0.7288
 4054TIP3   OH233652   3.606   4.273   2.679  0.4652 -0.1440 -0.3011
 4054TIP3    H133653   3.636   4.232   2.761 -0.8935  0.5336  0.5551
 4054TIP3    H233654   3.632   4.211   2.611  0.4979 -1.3267  0.7556
 4055TIP3   OH233655   1.679   5.080  15.126  0.0209 -0.4441 -0.1875
 4055TIP3    H133656   1.691   5.090  15.031 -0.4219 -2.0615 -0.4223
 4055TIP3    H233657   1.591   5.114  15.143 -0.0972 -0.6211 -0.4397
 4056TIP3   OH233658   3.381   2.003  17.237  0.2646  0.1190 -0.1016
 4056TIP3    H133659   3.351   2.015  17.327 -0.3476  1.5760 -0.4863
 4056TIP3    H233660   3.302   1.977  17.189 -0.2836  3.1338 -0.9523
 4057TIP3   OH233661   6.233   0.416   5.445  0.6942 -0.2584 -0.1397
 4057TIP3    H133662   6.268   0.388   5.360  0.9678  1.9115 -0.7713
 4057TIP3    H233663   6.293   0.377   5.509  0.5443 -1.8260 -0.9256
 4058TIP3   OH233664   2.499   2.655   0.549 -0.6054 -0.6274  0.2900
 4058TIP3    H133665   2.440   2.658   0.474  0.4682  1.4429 -0.5322
 4058TIP3    H233666   2.577   2.610   0.516  0.0626  0.7250 -0.0052
 4059TIP3   OH233667   6.060   5.323   1.212 -0.1217  0.5227  0.1390
 4059TIP3    H133668   6.115   5.324   1.134  1.0207  2.2640  0.9422
 4059TIP3    H233669   6.049   5.230   1.232  0.4430  0.0897 -1.4601
 4060TIP3   OH233670   0.664   0.578  16.386 -0.0982  0.2135  0.1050
 4060TIP3    H133671   0.616   0.636  16.445  2.3680  1.2828  1.1228
 4060TIP3    H233672   0.681   0.631  16.309 -0.2262 -0.0692 -0.1186
 4061TIP3   OH233673   1.553   0.999   2.513 -0.5129  0.2717 -0.0836
 4061TIP3    H133674   1.646   1.017   2.503 -0.7632  1.3567 -0.5680
 4061TIP3    H233675   1.525   1.056   2.586 -0.4901 -1.1769  1.0856
 4062TIP3   OH233676   6.360   4.301   3.021 -0.1474  0.1545  0.2981
 4062TIP3    H133677   6.380   4.242   2.948  2.0019 -0.0386  1.0231
 4062TIP3    H233678   6.275   4.270   3.054 -0.3139 -0.8352 -1.0132
 4063TIP3   OH233679   1.529   0.725  16.382 -0.1473 -0.1633 -0.0651
 4063TIP3    H133680   1.606   0.731  16.439  0.9515  4.5558 -1.8135
 4063TIP3    H233681   1.546   0.648  16.328  2.1540 -0.6605  1.2672
 4064TIP3   OH233682   6.634   0.797  12.650 -0.5460  0.0128  0.0670
 4064TIP3    H133683   6.718   0.808  12.606 -0.7898 -1.1267 -0.7120
 4064TIP3    H233684   6.631   0.868  12.715  0.5364  0.7078 -0.6236
 4065TIP3   OH233685   1.981   1.990  12.876 -0.0945  0.3476  0.3835
 4065TIP3    H133686   2.044   2.061  12.865 -0.5304  0.8073  0.8515
 4065TIP3    H233687   1.915   2.006  12.809 -1.4399  1.7332  2.0184
 4066TIP3   OH233688   0.007   0.038   1.104  0.1535 -0.5641  0.0224
 4066TIP3    H133689  -0.033   0.014   1.021  0.6812  1.4436 -0.8540
 4066TIP3    H233690   0.003  -0.041   1.157 -2.5080 -1.1809 -1.0042
 4067TIP3   OH233691   0.207   4.071   1.700  0.3757 -0.7782  0.5058
 4067TIP3    H133692   0.258   3.990   1.710  0.8023 -0.6370 -0.4708
 4067TIP3    H233693   0.272   4.136   1.672  0.1817  0.0981  2.0590
 4068TIP3   OH233694   6.308   3.042  13.523  0.1299  0.2637  0.0010
 4068TIP3    H133695   6.302   3.129  13.561 -1.1883 -0.1659  0.8058
 4068TIP3    H233696   6.315   3.057  13.429  0.2522  1.2411  0.1627
 4069TIP3   OH233697   6.124   4.704   2.639 -0.0507  0.8386  0.6630
 4069TIP3    H133698   6.118   4.678   2.730  0.0954 -0.1792  0.3899
 4069TIP3    H233699   6.070   4.640   2.592  2.2714 -0.5135 -0.2966
 4070TIP3   OH233700   4.267   2.042   3.862 -0.0846 -0.2539  0.0293
 4070TIP3    H133701   4.346   2.096   3.852 -0.9566  0.8511 -1.0194
 4070TIP3    H233702   4.269   2.015   3.954  2.0572 -1.1133 -0.2467
 4071TIP3   OH233703   0.473   6.573   1.002  0.4782  0.6109  0.0318
 4071TIP3    H133704   0.495   6.655   0.957 -0.1255  0.1161 -1.1591
 4071TIP3    H233705   0.380   6.561   0.987  0.5375 -0.2294  0.3114
 4072TIP3   OH233706   2.971   4.827   0.626  0.5731 -0.0174 -0.1315
 4072TIP3    H133707   2.994   4.745   0.584  0.3328  0.4056 -1.0946
 4072TIP3    H233708   3.054   4.875   0.633  0.7297 -0.3825  0.5227
 4073TIP3   OH233709   5.660   1.207  15.864 -0.2885 -0.7147  0.3102
 4073TIP3    H133710   5.724   1.142  15.835  1.1068  0.3521  0.8979
 4073TIP3    H233711   5.677   1.284  15.809  0.5070  0.3585  1.9829
 4074TIP3   OH233712   2.376   4.735  13.658 -0.4042  0.7230 -0.4943
 4074TIP3    H133713   2.386   4.710  13.750 -1.1937  0.0789 -0.5867
 4074TIP3    H233714   2.462   4.717  13.620 -0.2523  0.4220 -0.0184
 4075TIP3   OH233715   6.671   2.969  11.951  0.4001  0.2908 -0.3597
 4075TIP3    H133716   6.668   2.875  11.971 -1.0206  0.2776 -0.5944
 4075TIP3    H233717   6.706   2.973  11.862 -1.2139 -0.1191 -1.0219
 4076TIP3   OH233718   4.523   4.571   4.672  0.8545  0.5062  0.3622
 4076TIP3    H133719   4.464   4.604   4.605  1.0180 -0.8978 -0.4840
 4076TIP3    H233720   4.466   4.524   4.734  0.8674  0.6625  0.4939
 4077TIP3   OH233721   5.979   2.850  14.457  0.0576 -0.0568  0.5033
 4077TIP3    H133722   6.060   2.809  14.486 -0.3065 -2.0069 -1.0976
 4077TIP3    H233723   5.910   2.792  14.491 -0.6298  1.0702  1.0528
 4078TIP3   OH233724   4.419   2.320  14.291  0.1097  0.0741  0.7317
 4078TIP3    H133725   4.467   2.284  14.365  1.2822  2.5764  1.2448
 4078TIP3    H233726   4.486   2.338  14.225 -0.5987  0.2039  0.0330
 4079TIP3   OH233727   1.815   2.043  15.816 -0.5526 -0.1057  0.2783
 4079TIP3    H133728   1.795   2.123  15.864  4.8875  1.5661  0.1133
 4079TIP3    H233729   1.793   2.063  15.725  1.0504  1.3531  0.1981
 4080TIP3   OH233730   6.560   3.455  16.296  0.1641 -0.2849 -0.1912
 4080TIP3    H133731   6.639   3.401  16.303  0.6769  0.5532  0.6118
 4080TIP3    H233732   6.535   3.472  16.387 -0.0652  0.7177 -0.4351
 4081TIP3   OH233733   4.595   4.243  17.279  0.1560 -0.2540  0.3901
 4081TIP3    H133734   4.628   4.219  17.193 -2.0559  0.2878 -0.6320
 4081TIP3    H233735   4.581   4.338  17.273  0.6000 -0.1059  1.5658
 4082TIP3   OH233736   2.186   4.178  13.783 -0.6752 -0.0745 -0.1351
 4082TIP3    H133737   2.124   4.229  13.836  1.1562  2.5792 -0.4883
 4082TIP3    H233738   2.137   4.156  13.704 -2.2844 -1.0377  1.0866
 4083TIP3   OH233739   0.436   0.488   3.717 -0.1097 -0.3029 -0.2189
 4083TIP3    H133740   0.454   0.446   3.801  1.2253  0.7200  0.0256
 4083TIP3    H233741   0.515   0.540   3.699 -1.3500  1.3859 -0.9281
 4084TIP3   OH233742   4.911   6.004  13.212  0.2890  0.2153  0.2227
 4084TIP3    H133743   4.900   6.078  13.272  1.9323 -0.7278  1.7356
 4084TIP3    H233744   4.993   6.023  13.166 -1.3261  1.2961 -2.3273
 4085TIP3   OH233745   4.753   1.571  10.869 -0.4112  0.4452 -0.0355
 4085TIP3    H133746   4.732   1.610  10.785 -0.6848 -0.5709 -0.4483
 4085TIP3    H233747   4.790   1.485  10.847 -1.6578 -0.3530  0.9274
 4086TIP3   OH233748   2.589   5.766  14.795 -0.0679 -0.1683  0.0058
 4086TIP3    H133749   2.591   5.734  14.885  0.3708  0.3057  0.1687
 4086TIP3    H233750   2.667   5.822  14.788 -2.0463  2.7179  0.4211
 4087TIP3   OH233751   4.656   3.399   4.892 -0.3290  0.6236  0.5144
 4087TIP3    H133752   4.665   3.404   4.987  0.6223 -0.5858  0.5000
 4087TIP3    H233753   4.623   3.311   4.875 -1.7846  1.2928 -0.1965
 4088TIP3   OH233754   5.375   0.040  12.712  0.3083  0.2062 -0.3222
 4088TIP3    H133755   5.354  -0.013  12.635 -0.9127 -1.1663  0.9343
 4088TIP3    H233756   5.300   0.100  12.721  0.6848  0.7086 -0.4839
 4089TIP3   OH233757   0.769   3.151  15.766 -0.0806  0.7362  0.3273
 4089TIP3    H133758   0.802   3.168  15.854 -1.5077  0.8986  0.8358
 4089TIP3    H233759   0.836   3.189  15.708  1.5647 -0.6405  1.2913
 4090TIP3   OH233760   2.372   1.461   0.961 -0.1642  0.1777  0.0758
 4090TIP3    H133761   2.314   1.537   0.961  1.6916  1.6491 -1.1692
 4090TIP3    H233762   2.336   1.402   0.894 -0.3481  0.9818 -0.5349
 4091TIP3   OH233763   3.511   4.303  13.564 -0.2231 -0.1170  0.3698
 4091TIP3    H133764   3.525   4.320  13.471  2.5101  0.6531  0.8898
 4091TIP3    H233765   3.446   4.368  13.591 -1.3972 -0.6674 -1.0934
 4092TIP3   OH233766   1.054   6.204  11.708  0.6604 -0.7127  0.1590
 4092TIP3    H133767   1.087   6.167  11.790  3.5824 -0.6038 -0.8981
 4092TIP3    H233768   1.126   6.191  11.646 -0.1803  2.1887 -1.5123
 4093TIP3   OH233769   3.656   6.395  15.405 -0.2927  0.2755  0.1981
 4093TIP3    H133770   3.572   6.408  15.361 -0.0391  1.4323  0.0407
 4093TIP3    H233771   3.647   6.441  15.488 -0.1124 -0.3263  0.5535
 4094TIP3   OH233772   4.527   3.626   1.128 -0.0534  0.4204  0.0141
 4094TIP3    H133773   4.596   3.687   1.102 -0.8547  1.7766  1.0070
 4094TIP3    H233774   4.530   3.626   1.223 -0.3356 -0.7878  0.0290
 4095TIP3   OH233775   6.364   3.007  11.198  0.3053 -0.5178 -0.8543
 4095TIP3    H133776   6.274   3.036  11.182  0.0028 -0.4451  0.8870
 4095TIP3    H233777   6.391   3.054  11.277  1.1889 -1.9411 -0.2801
 4096TIP3   OH233778   5.626   5.572   2.490  0.3637 -0.4474  0.1706
 4096TIP3    H133779   5.627   5.612   2.403  2.5544  0.6232  0.6562
 4096TIP3    H233780   5.652   5.481   2.475 -0.1374 -0.4926 -0.4075
 4097TIP3   OH233781   5.831   1.014   5.887 -0.4991 -0.0851  0.1681
 4097TIP3    H133782   5.785   1.097   5.881 -0.4529 -0.1423 -1.1105
 4097TIP3    H233783   5.819   0.973   5.801 -0.7042 -1.4935  0.8504
 4098TIP3   OH233784   0.139   6.218  16.310  0.4575 -0.2333 -0.9643
 4098TIP3    H133785   0.047   6.234  16.332  0.6537 -0.7849  0.2812
 4098TIP3    H233786   0.166   6.295  16.261 -0.1006  0.8469  0.4074
 4099TIP3   OH233787   0.589   3.654   2.358  0.7055  0.0533 -0.2123
 4099TIP3    H133788   0.536   3.583   2.396  1.4377 -0.1844  0.3859
 4099TIP3    H233789   0.579   3.726   2.421 -1.7652  1.2378 -1.8903
 4100TIP3   OH233790   2.370   5.866  14.433 -0.1035  0.1710 -0.0206
 4100TIP3    H133791   2.328   5.837  14.353 -0.2463 -1.9042  0.7800
 4100TIP3    H233792   2.313   5.935  14.467 -0.6692  0.2230 -1.0637
 4101TIP3   OH233793   2.257   1.863   3.367 -0.2694 -0.3405  0.0776
 4101TIP3    H133794   2.256   1.842   3.460 -2.6987 -1.3208 -0.1345
 4101TIP3    H233795   2.298   1.788   3.325 -0.6792 -0.6341  0.2037
 4102TIP3   OH233796   3.203   4.258  15.574 -0.0661  0.5769 -0.2417
 4102TIP3    H133797   3.175   4.312  15.647  0.9226 -0.9496  1.3140
 4102TIP3    H233798   3.257   4.317  15.520  1.6536  0.9734  1.8303
 4103TIP3   OH233799   4.400   2.525  14.826 -0.4223  0.0197 -0.0570
 4103TIP3    H133800   4.342   2.454  14.799  0.4865 -0.9634  0.5368
 4103TIP3    H233801   4.423   2.504  14.916 -0.8823  1.5691  0.4338
 4104TIP3   OH233802   5.057   5.836  13.659 -0.0936  0.2160  0.0528
 4104TIP3    H133803   5.066   5.830  13.563 -1.2067  0.1853 -0.0549
 4104TIP3    H233804   4.964   5.853  13.673 -0.4310 -2.4205  1.2306
 4105TIP3   OH233805   6.750   0.858  11.817  0.0316  0.1009 -0.3586
 4105TIP3    H133806   6.704   0.775  11.816 -3.2880  1.8458 -1.4145
 4105TIP3    H233807   6.778   0.871  11.726 -0.9831  0.9086 -0.5650
 4106TIP3   OH233808   3.963   5.368   3.161 -0.0779  0.2666  0.6949
 4106TIP3    H133809   3.897   5.421   3.206 -0.6467  1.2671 -1.2586
 4106TIP3    H233810   3.990   5.422   3.087  1.8009 -0.8037  0.5745
 4107TIP3   OH233811   3.354   3.182   3.085  0.5009  0.1113  0.0404
 4107TIP3    H133812   3.280   3.240   3.101 -0.7372 -0.8612 -2.0009
 4107TIP3    H233813   3.343   3.152   2.995  2.6574 -1.0979  0.1257
 4108TIP3   OH233814   4.346   4.405   4.774  0.7708  0.4714 -0.4942
 4108TIP3    H133815   4.251   4.399   4.762  0.7564 -2.8778  0.8586
 4108TIP3    H233816   4.382   4.342   4.711  1.9594  0.2605  0.3766
 4109TIP3   OH233817   0.087   5.481   2.408 -0.4639  0.3913  0.2867
 4109TIP3    H133818   0.118   5.426   2.479 -0.4114 -0.4801 -0.4027
 4109TIP3    H233819   0.091   5.570   2.443 -1.3666 -0.1079  1.7040
 4110TIP3   OH233820   4.660   6.648   2.023 -0.1950 -0.5137 -0.7649
 4110TIP3    H133821   4.741   6.606   2.052 -1.2024 -1.7285  0.3285
 4110TIP3    H233822   4.608   6.578   1.985 -0.4681  0.3810 -2.0785
 4111TIP3   OH233823   0.869   4.936  11.787 -0.5220 -0.5111 -0.3110
 4111TIP3    H133824   0.861   4.991  11.709 -0.9685 -0.7101 -0.4036
 4111TIP3    H233825   0.830   4.988  11.857  0.7042  0.0539 -0.0310
 4112TIP3   OH233826   1.198   2.922  16.691  0.4331  0.0103 -0.1215
 4112TIP3    H133827   1.128   2.861  16.667  0.9410 -0.0717 -1.4985
 4112TIP3    H233828   1.154   3.001  16.721 -0.2614  0.0668 -1.2616
 4113TIP3   OH233829   1.150   6.497  11.324 -0.0673 -0.0099 -0.3279
 4113TIP3    H133830   1.086   6.431  11.350 -0.0440  0.1212  0.0672
 4113TIP3    H233831   1.134   6.570  11.383  0.0325  0.2656 -0.6408
 4114TIP3   OH233832   1.060   3.625   1.204  0.3320  0.0208 -0.0140
 4114TIP3    H133833   1.051   3.574   1.284 -1.5228  0.9311  0.3893
 4114TIP3    H233834   0.981   3.606   1.154  0.7228  0.6845 -0.9040
 4115TIP3   OH233835   3.448   5.585   4.712 -0.0328  0.7442 -0.0095
 4115TIP3    H133836   3.508   5.514   4.691 -1.6406 -0.9316  0.8859
 4115TIP3    H233837   3.395   5.596   4.633 -1.3791 -0.7196  0.6700
 4116TIP3   OH233838   4.692   2.917   2.632 -0.4911 -0.2554 -0.1702
 4116TIP3    H133839   4.737   2.894   2.550 -2.0174 -0.3279 -0.9995
 4116TIP3    H233840   4.639   2.993   2.609 -1.8158 -0.9824  0.4556
 4117TIP3   OH233841   4.042   0.050  16.676  0.0256  0.0090 -0.3473
 4117TIP3    H133842   3.951   0.043  16.647  0.4172  0.8924 -1.8310
 4117TIP3    H233843   4.040   0.112  16.748 -0.4878  0.3794 -0.6811
 4118TIP3   OH233844   2.856   1.131   4.594  0.4370  0.0201 -0.1840
 4118TIP3    H133845   2.792   1.064   4.571 -0.9324  1.2030  0.1101
 4118TIP3    H233846   2.806   1.212   4.596  1.6437  0.7472  1.5322
 4119TIP3   OH233847   1.497   5.913   0.499  0.7092 -0.2661  0.1677
 4119TIP3    H133848   1.476   5.995   0.453  2.9661  0.7390  0.9084
 4119TIP3    H233849   1.465   5.926   0.588  1.2529 -0.1033  0.3409
 4120TIP3   OH233850   3.943   1.761   5.023 -0.1205  0.2877  0.0653
 4120TIP3    H133851   4.037   1.742   5.013 -0.6528 -1.2021 -2.6568
 4120TIP3    H233852   3.902   1.675   5.027 -1.5419  0.9088 -0.8246
 4121TIP3   OH233853   0.036   3.075  15.378  0.0309 -0.4762 -0.4142
 4121TIP3    H133854   0.021   3.138  15.307 -1.4899  0.0667  0.3830
 4121TIP3    H233855   0.060   2.994  15.333 -0.3330  0.0250 -1.5306
 4122TIP3   OH233856   1.658   3.078   3.346 -0.4506 -0.1793  0.2416
 4122TIP3    H133857   1.622   3.084   3.258 -0.2919 -0.2076  0.1747
 4122TIP3    H233858   1.645   2.987   3.372  0.0675 -0.3222  0.0054
 4123TIP3   OH233859   0.781   3.027  17.248 -0.0709 -0.2772 -0.1148
 4123TIP3    H133860   0.836   3.052  17.173 -1.0211  0.5966 -0.5422
 4123TIP3    H233861   0.809   2.939  17.270  1.0459 -0.0904 -0.7528
 4124TIP3   OH233862   5.768   3.629   0.039 -0.1352  0.4695  0.0852
 4124TIP3    H133863   5.843   3.586   0.000 -1.2988 -0.5426 -1.0923
 4124TIP3    H233864   5.803   3.709   0.078  1.5834 -0.1545 -0.1568
 4125TIP3   OH233865   3.423   3.505  12.206  0.4624  0.3469  0.2714
 4125TIP3    H133866   3.491   3.568  12.232  0.4406  0.9171 -1.0046
 4125TIP3    H233867   3.386   3.474  12.288  1.4826  0.9109  0.9536
 4126TIP3   OH233868   5.703   5.926   6.001  0.0078 -0.2471  0.4958
 4126TIP3    H133869   5.664   5.962   6.080  1.0318 -1.4126  1.5457
 4126TIP3    H233870   5.784   5.976   5.989 -1.3180  1.6012 -1.2174
 4127TIP3   OH233871   1.798   3.388   2.809  0.2236  0.9333 -0.5917
 4127TIP3    H133872   1.862   3.322   2.836 -0.0864  1.8909  2.5910
 4127TIP3    H233873   1.849   3.468   2.797 -0.0603  1.1710 -0.2123
 4128TIP3   OH233874   1.413   1.821  11.346  0.0856 -0.3458  0.1816
 4128TIP3    H133875   1.335   1.798  11.396  0.4522 -1.1541  0.3879
 4128TIP3    H233876   1.391   1.905  11.304 -0.4932 -0.0363  1.0925
 4129TIP3   OH233877   5.770   3.326  11.697 -0.3346 -0.2520 -0.1959
 4129TIP3    H133878   5.824   3.293  11.625 -1.1881  0.2144 -1.0620
 4129TIP3    H233879   5.768   3.421  11.684 -0.4732 -0.1677  0.4499
 4130TIP3   OH233880   6.655   3.063   2.499 -0.2202 -0.1697  0.2023
 4130TIP3    H133881   6.652   2.987   2.440 -2.6040 -1.1505  1.5007
 4130TIP3    H233882   6.737   3.053   2.547 -0.2140 -1.5929 -0.0777
 4131TIP3   OH233883   2.550   2.129  10.316  0.1045 -0.2668 -0.2994
 4131TIP3    H133884   2.468   2.151  10.360  0.0757 -0.0949 -0.4367
 4131TIP3    H233885   2.534   2.043  10.278 -0.2861  0.0985 -0.9845
 4132TIP3   OH233886   1.323   6.783   2.226 -0.2542  0.5584  0.4509
 4132TIP3    H133887   1.414   6.813   2.233 -0.2320  0.2416  1.7188
 4132TIP3    H233888   1.273   6.845   2.279 -0.6737  0.2913  0.3731
 4133TIP3   OH233889   5.369   0.509  11.234 -0.5505  0.2845  0.2461
 4133TIP3    H133890   5.295   0.569  11.234 -0.7892 -0.0089 -0.1879
 4133TIP3    H233891   5.368   0.468  11.147  0.7928  1.1048 -0.1733
 4134TIP3   OH233892   3.593   3.592  11.548  0.1491  0.5130 -0.8684
 4134TIP3    H133893   3.553   3.509  11.573 -0.0216  0.9084  0.2215
 4134TIP3    H233894   3.673   3.597  11.601 -0.2203  1.3751 -0.3764
 4135TIP3   OH233895   1.434   0.033  11.104  0.3899 -0.1112  0.1823
 4135TIP3    H133896   1.527   0.015  11.090  0.5303 -0.5763  1.6095
 4135TIP3    H233897   1.403   0.066  11.020  1.8879  0.2356 -0.2540
 4136TIP3   OH233898   4.709   6.666   5.069  0.0693 -0.1918 -0.2042
 4136TIP3    H133899   4.779   6.626   5.018 -0.7386 -3.0780  0.8647
 4136TIP3    H233900   4.640   6.685   5.005  0.4216 -0.5890 -0.6997
 4137TIP3   OH233901   1.810   1.846  16.920 -0.6168 -0.1133 -0.0033
 4137TIP3    H133902   1.794   1.843  17.014 -1.4436  2.8259  0.0211
 4137TIP3    H233903   1.727   1.820  16.880 -0.5644 -0.4193  0.0895
 4138TIP3   OH233904   0.987   2.564  15.596 -0.7302 -0.0211  0.0635
 4138TIP3    H133905   0.998   2.645  15.646  0.4541 -0.1337 -0.0022
 4138TIP3    H233906   1.075   2.541  15.566 -1.3763 -0.1437 -1.8119
 4139TIP3   OH233907   5.516   4.815   3.678 -0.2663  0.9780  0.0674
 4139TIP3    H133908   5.556   4.729   3.671 -2.2962 -0.0680  0.9620
 4139TIP3    H233909   5.537   4.859   3.596 -0.2684 -0.8194 -0.9024
 4140TIP3   OH233910   4.737   4.721  15.661 -0.0357  0.0510 -0.9632
 4140TIP3    H133911   4.674   4.652  15.641  0.4339 -0.5597 -0.3435
 4140TIP3    H233912   4.731   4.732  15.756 -0.1283  0.8897 -1.0590
 4141TIP3   OH233913   5.002   0.795   5.351  0.1028 -0.9023 -0.3289
 4141TIP3    H133914   4.999   0.781   5.256 -1.0106 -1.0842 -0.2722
 4141TIP3    H233915   4.911   0.809   5.376  0.6979  2.3960  0.2364
 4142TIP3   OH233916   2.013   1.382  12.660 -0.6501 -0.3449 -0.6107
 4142TIP3    H133917   2.105   1.362  12.645 -0.3938  0.2711  0.1095
 4142TIP3    H233918   2.005   1.388  12.756 -1.6258 -1.3021 -0.6212
 4143TIP3   OH233919   4.043   4.412  16.862 -0.3394  0.0985 -0.5620
 4143TIP3    H133920   4.086   4.331  16.891  0.3356  0.1565 -1.3708
 4143TIP3    H233921   3.956   4.384  16.833 -0.4950 -0.1733  0.1571
 4144TIP3   OH233922   2.919   2.988   5.376 -0.3670 -0.3666  0.4211
 4144TIP3    H133923   2.911   2.941   5.293 -0.7453  1.3059 -0.5193
 4144TIP3    H233924   3.007   3.025   5.375 -0.7052  0.4464  0.3257
 4145TIP3   OH233925   4.716   2.666  14.810  0.0930  0.9129  0.0010
 4145TIP3    H133926   4.803   2.703  14.795 -0.6515  1.7173 -2.5294
 4145TIP3    H233927   4.694   2.621  14.729 -0.7037 -1.7535  1.6216
 4146TIP3   OH233928   6.013   3.159   1.473  0.3705  0.0400  0.0209
 4146TIP3    H133929   6.010   3.077   1.522  0.8016 -0.6013 -1.0370
 4146TIP3    H233930   6.071   3.143   1.400  2.1685  1.9446  0.9719
 4147TIP3   OH233931   4.567   2.404  16.880  0.2052  0.2966 -0.1562
 4147TIP3    H133932   4.658   2.397  16.853 -0.2971 -1.8621 -1.3387
 4147TIP3    H233933   4.558   2.341  16.952 -0.6610 -0.4389 -0.8974
 4148TIP3   OH233934   1.558   0.339   4.108  0.3048 -0.3153 -0.4625
 4148TIP3    H133935   1.602   0.374   4.186 -0.1455  0.1577 -0.4171
 4148TIP3    H233936   1.486   0.286   4.142 -1.7034  2.2698 -0.5749
 4149TIP3   OH233937   5.550   5.526  16.130  0.1731  0.4610 -0.3406
 4149TIP3    H133938   5.501   5.608  16.139  2.1033  1.9139 -2.6176
 4149TIP3    H233939   5.483   5.461  16.111 -1.2749  1.6890  0.3844
 4150TIP3   OH233940   4.418   3.277   3.612 -0.1093  0.7872 -0.2558
 4150TIP3    H133941   4.466   3.347   3.567 -0.0794 -0.1688 -1.7781
 4150TIP3    H233942   4.413   3.305   3.703 -1.1310  3.3413 -1.0425
 4151TIP3   OH233943   0.803   0.470   4.432  0.0262 -0.0703 -0.1770
 4151TIP3    H133944   0.757   0.524   4.496 -0.5578 -0.4292 -0.2891
 4151TIP3    H233945   0.746   0.394   4.420  0.7349 -0.6117 -0.1756
 4152TIP3   OH233946   6.540   5.932   4.748  0.5843 -0.1557 -0.0967
 4152TIP3    H133947   6.591   5.882   4.684  0.8389 -0.1101  0.0700
 4152TIP3    H233948   6.455   5.888   4.750  0.2057  0.5090 -1.2775
 4153TIP3   OH233949   0.789   1.634  17.090 -0.4809 -0.7417  0.0432
 4153TIP3    H133950   0.814   1.645  17.182  0.5603 -2.0614 -0.0609
 4153TIP3    H233951   0.716   1.573  17.092  0.4567 -1.9006 -0.0766
 4154TIP3   OH233952   5.448   1.374  12.854 -1.0217  0.0975 -0.1243
 4154TIP3    H133953   5.481   1.463  12.856 -0.6698 -0.0423  0.9221
 4154TIP3    H233954   5.431   1.353  12.946 -3.1145 -0.1667 -0.5324
 4155TIP3   OH233955   2.172   2.144   6.056  0.1784  0.5479 -0.5400
 4155TIP3    H133956   2.142   2.228   6.090  0.0737  0.6793 -0.9570
 4155TIP3    H233957   2.263   2.159   6.029  0.5068  0.2435  0.3920
 4156TIP3   OH233958   4.895   0.926   0.232 -0.2462  0.3243 -0.1241
 4156TIP3    H133959   4.978   0.921   0.279 -0.5205  1.9123  0.5661
 4156TIP3    H233960   4.903   0.862   0.161  1.8232  0.9334 -0.4560
 4157TIP3   OH233961   1.712   3.393   4.350 -0.4828 -0.1241 -1.0353
 4157TIP3    H133962   1.632   3.342   4.339 -1.8251  1.9875 -1.4904
 4157TIP3    H233963   1.713   3.417   4.442  0.6484 -1.7237 -0.6095
 4158TIP3   OH233964   0.909   0.691  16.087  0.2260 -0.5589  1.0533
 4158TIP3    H133965   0.965   0.765  16.110  0.0222 -0.2210  0.4784
 4158TIP3    H233966   0.821   0.719  16.110  0.0299 -0.2418 -0.0739
 4159TIP3   OH233967   4.457   1.412  12.075  0.4527 -0.3759 -0.0495
 4159TIP3    H133968   4.390   1.397  12.142  1.5060 -0.3845  1.0201
 4159TIP3    H233969   4.534   1.365  12.106  1.7551  1.7051  0.0298
 4160TIP3   OH233970   1.583   3.022  16.098 -0.1883  0.3555 -0.0376
 4160TIP3    H133971   1.560   3.008  16.190  3.2882  0.9712  1.0144
 4160TIP3    H233972   1.634   2.945  16.074 -0.1169  0.7253 -1.1199
 4161TIP3   OH233973   5.233   2.337  10.958 -0.1308  0.0134  0.0288
 4161TIP3    H133974   5.301   2.384  11.006 -0.4091 -1.9763  2.4293
 4161TIP3    H233975   5.181   2.407  10.916  2.1535  1.6182 -0.2090
 4162TIP3   OH233976   3.733   0.813   1.958  0.0537 -0.7507  0.3005
 4162TIP3    H133977   3.824   0.799   1.931  0.9368 -2.6000  3.9054
 4162TIP3    H233978   3.691   0.728   1.946 -0.5459 -0.5405  0.8834
 4163TIP3   OH233979   1.310   1.860  11.851 -0.0887  0.3847 -0.2104
 4163TIP3    H133980   1.223   1.821  11.848 -0.1782  0.4733  0.9058
 4163TIP3    H233981   1.365   1.802  11.799 -0.4471 -0.6454  0.5453
 4164TIP3   OH233982   3.576   3.423   1.973 -0.1213  0.2933  0.1466
 4164TIP3    H133983   3.624   3.469   2.042 -0.5051 -0.1556  0.7170
 4164TIP3    H233984   3.526   3.491   1.929  1.2048  0.7989 -0.5876
 4165TIP3   OH233985   6.795   4.734  14.322  0.2984 -0.1366 -0.1741
 4165TIP3    H133986   6.859   4.770  14.261  1.4187 -1.3371  0.2845
 4165TIP3    H233987   6.711   4.743  14.277  0.9590  0.1706 -1.3533
 4166TIP3   OH233988   2.025   0.670  11.321  0.3642 -0.6701  0.2576
 4166TIP3    H133989   2.052   0.696  11.233 -1.6095  2.2024  0.4093
 4166TIP3    H233990   1.942   0.624  11.308  0.3515 -0.7394  0.5714
 4167TIP3   OH233991   2.596   2.332   2.275  0.1195 -0.4229  0.4333
 4167TIP3    H133992   2.567   2.334   2.366  0.5417  1.1242  0.5604
 4167TIP3    H233993   2.620   2.423   2.256 -1.9615 -0.3189 -1.8880
 4168TIP3   OH233994   0.019   4.777  17.060  0.2955  0.3556 -0.2021
 4168TIP3    H133995   0.034   4.701  17.005  0.2430  1.1841 -1.3672
 4168TIP3    H233996   0.103   4.791  17.105  0.8642  0.6909 -1.3502
 4169TIP3   OH233997   3.544   0.437  16.325  0.1870  0.0951  0.1398
 4169TIP3    H133998   3.519   0.406  16.239 -2.3013  2.7143 -0.1770
 4169TIP3    H233999   3.462   0.434  16.376  1.2089  0.3530  1.8394
 4170TIP3   OH234000   5.679   5.719   3.847  0.3687  0.1839 -0.3794
 4170TIP3    H134001   5.708   5.644   3.797 -0.3928 -0.6475  0.4002
 4170TIP3    H234002   5.738   5.723   3.922  0.5442  0.4993 -0.5306
 4171TIP3   OH234003   1.421   2.082  11.284 -0.0518 -0.2559 -0.2765
 4171TIP3    H134004   1.456   2.111  11.199 -1.9443  0.3388 -0.8685
 4171TIP3    H234005   1.449   2.150  11.345 -3.5799  2.4193 -1.4718
 4172TIP3   OH234006   1.869   1.063   5.682  0.2152 -0.0067  0.6296
 4172TIP3    H134007   1.900   1.153   5.674  1.1556 -0.3491  0.3183
 4172TIP3    H234008   1.920   1.027   5.755 -0.5581 -0.1205  1.1188
 4173TIP3   OH234009   3.840   5.391   4.871 -0.1483  0.4984 -0.1816
 4173TIP3    H134010   3.842   5.296   4.857  1.3841  0.6516 -1.0931
 4173TIP3    H234011   3.832   5.428   4.784  1.0871  1.2423  0.0055
 4174TIP3   OH234012   4.941   1.444  15.791 -0.3387  0.2740  0.0571
 4174TIP3    H134013   4.880   1.488  15.732 -1.7671 -0.4642  0.9439
 4174TIP3    H234014   4.965   1.512  15.855  2.0916  1.3899 -1.9820
 4175TIP3   OH234015   1.574   6.480  14.661  0.0341  0.1790  0.6094
 4175TIP3    H134016   1.641   6.423  14.624 -0.5715  0.4312 -0.9166
 4175TIP3    H234017   1.491   6.441  14.632 -0.3948  1.4256  0.1275
 4176TIP3   OH234018   4.935   1.069   2.592  0.3021  0.2889  0.1974
 4176TIP3    H134019   4.885   1.140   2.549  1.1292  0.0694 -1.1681
 4176TIP3    H234020   4.880   0.991   2.580  0.5488  0.2191 -0.5259
 4177TIP3   OH234021   3.763   0.399   5.998  0.5744 -0.1868 -0.5362
 4177TIP3    H134022   3.808   0.469   6.046 -0.3380  0.3340 -0.4245
 4177TIP3    H234023   3.690   0.444   5.954 -1.2434 -1.4015  1.1716
 4178TIP3   OH234024   0.959   5.675  11.714  0.3133 -0.0504 -0.1372
 4178TIP3    H134025   0.988   5.588  11.687  0.4602 -0.1328  0.2749
 4178TIP3    H234026   0.958   5.671  11.810  0.4837  0.4551 -0.1149
 4179TIP3   OH234027   5.636   0.475   3.198  0.0723  0.1926  0.2841
 4179TIP3    H134028   5.548   0.460   3.163 -0.1810 -0.0772  1.0110
 4179TIP3    H234029   5.664   0.558   3.159 -1.3006  1.2874  1.5296
 4180TIP3   OH234030   3.507   4.385   4.980 -0.4270 -0.0491  0.3138
 4180TIP3    H134031   3.520   4.352   5.070  1.7859 -0.3514 -0.0842
 4180TIP3    H234032   3.528   4.478   4.985 -2.4071  0.3973  0.5367
 4181TIP3   OH234033   0.948   3.883  15.508  0.4314 -0.0205 -0.1557
 4181TIP3    H134034   0.982   3.794  15.517  0.0198 -0.0918  0.7372
 4181TIP3    H234035   0.859   3.878  15.544  0.9257  1.0873  1.2261
 4182TIP3   OH234036   4.239   0.400  12.837  0.5019 -0.6700  0.8922
 4182TIP3    H134037   4.209   0.387  12.747 -0.0112  1.4412  0.7388
 4182TIP3    H234038   4.163   0.378  12.891  1.0678 -2.7936  0.9028
 4183TIP3   OH234039   0.061   6.708   1.743 -0.4006 -0.3658  0.5176
 4183TIP3    H134040   0.035   6.795   1.773 -0.3538 -0.3274  0.4455
 4183TIP3    H234041   0.091   6.721   1.653 -1.1652 -0.5883  0.2240
 4184TIP3   OH234042   3.756   2.551  14.160 -0.3042 -0.9222 -0.6107
 4184TIP3    H134043   3.779   2.512  14.076  1.0821 -1.0876 -0.1539
 4184TIP3    H234044   3.839   2.565  14.205 -0.8608  1.1853 -0.1477
 4185TIP3   OH234045   1.068   5.319  11.982  0.3024 -0.0937  0.3005
 4185TIP3    H134046   1.045   5.412  11.981  1.3052  0.1613 -1.4789
 4185TIP3    H234047   1.009   5.280  11.918 -0.2455 -0.7324  1.1851
 4186TIP3   OH234048   5.218   4.664   4.192  0.2243 -0.0320  0.0837
 4186TIP3    H134049   5.218   4.582   4.242 -1.9395 -0.5157 -0.6326
 4186TIP3    H234050   5.156   4.647   4.120  1.2421  1.5689 -1.1956
 4187TIP3   OH234051   4.372   0.518  13.342 -0.5094  0.3417  0.2950
 4187TIP3    H134052   4.416   0.508  13.427  0.2285 -0.7596 -0.1995
 4187TIP3    H234053   4.284   0.483  13.356  0.3738 -2.1015 -0.0103
 4188TIP3   OH234054   4.135   5.820  10.993 -0.7204 -0.3431  0.6525
 4188TIP3    H134055   4.150   5.743  11.048  0.4030 -0.4098  0.2839
 4188TIP3    H234056   4.125   5.784  10.905  0.6048 -0.0391  0.3520
 4189TIP3   OH234057   3.823   1.966  16.758 -0.5898 -0.1558 -0.4216
 4189TIP3    H134058   3.836   1.880  16.717  1.5060  0.5732 -1.3938
 4189TIP3    H234059   3.890   1.970  16.827 -1.0430  0.4869 -0.0097
 4190TIP3   OH234060   0.962   4.754  12.008 -0.4178  0.1203  0.2427
 4190TIP3    H134061   1.050   4.743  11.972 -0.6863  0.9415 -0.6862
 4190TIP3    H234062   0.922   4.823  11.955 -1.9145 -0.8023  0.1318
 4191TIP3   OH234063   2.296   2.024  13.064  0.5937  0.3935 -0.1757
 4191TIP3    H134064   2.359   2.044  13.133  0.2730  0.0278  0.2235
 4191TIP3    H234065   2.219   2.076  13.086  0.9121  1.1955 -0.9147
 4192TIP3   OH234066   1.510   4.930   6.033  0.3210  0.3276 -0.0349
 4192TIP3    H134067   1.569   4.857   6.014 -0.5678 -0.3741 -0.1319
 4192TIP3    H234068   1.467   4.948   5.949 -0.0249  0.4474  0.1682
 4193TIP3   OH234069   3.925   4.248   2.037  0.0429  0.5423  0.0701
 4193TIP3    H134070   3.835   4.216   2.042 -0.1419  0.9859 -0.3986
 4193TIP3    H234071   3.979   4.171   2.052 -0.3768 -0.2825 -2.5378
 4194TIP3   OH234072   4.882   4.895  10.726  0.4813  0.0898  0.3529
 4194TIP3    H134073   4.836   4.813  10.747 -0.8539  0.7698  0.1877
 4194TIP3    H234074   4.849   4.919  10.639  2.2182 -0.1195 -0.3738
 4195TIP3   OH234075   5.470   1.598  11.685  0.2639  0.1595  0.0182
 4195TIP3    H134076   5.379   1.594  11.655  0.2476 -1.9978  0.2672
 4195TIP3    H234077   5.512   1.522  11.644  1.7048  0.5619  0.7119
 4196TIP3   OH234078   6.677   6.171   0.344 -0.2231 -0.3621 -0.6424
 4196TIP3    H134079   6.593   6.217   0.341 -0.7173 -1.0597  1.5946
 4196TIP3    H234080   6.725   6.204   0.268 -1.0299  2.9326  0.2086
 4197TIP3   OH234081   6.637   1.994  14.679 -0.3865 -0.3366 -0.0620
 4197TIP3    H134082   6.702   2.063  14.698 -1.1689  0.5424 -0.5144
 4197TIP3    H234083   6.666   1.956  14.596  1.1274 -1.8756  1.1413
 4198TIP3   OH234084   2.327   5.939  10.720  0.6912 -0.0578  0.0989
 4198TIP3    H134085   2.393   5.948  10.790  0.1515  1.9563  0.3614
 4198TIP3    H234086   2.378   5.936  10.639  1.0916  2.2212  0.2478
 4199TIP3   OH234087   0.122   3.468  13.193  0.2581 -0.1175 -0.0109
 4199TIP3    H134088   0.087   3.478  13.105  0.3227 -1.2939 -0.1731
 4199TIP3    H234089   0.207   3.426  13.181  0.7526  0.6934  0.5435
 4200TIP3   OH234090   3.998   5.873  12.179  0.1250 -0.1962  0.2617
 4200TIP3    H134091   4.090   5.854  12.200  0.1322  1.4806  1.8102
 4200TIP3    H234092   4.001   5.914  12.093  0.8899  0.2602  0.4990
 4201TIP3   OH234093   0.985   2.647   2.147  0.0272  0.4095  0.4151
 4201TIP3    H134094   1.056   2.622   2.088  0.6540 -2.0070  2.1556
 4201TIP3    H234095   1.016   2.727   2.190  0.4873  0.9333 -0.8730
 4202TIP3   OH234096   0.052   5.747  11.380 -0.3849  0.4086  0.0310
 4202TIP3    H134097  -0.001   5.791  11.313  1.7852 -0.0100 -2.0253
 4202TIP3    H234098   0.125   5.807  11.396 -0.6337  0.2863  1.7026
 4203TIP3   OH234099   6.265   4.303  11.656 -0.3056 -0.3684  0.2521
 4203TIP3    H134100   6.358   4.314  11.634 -0.5086  1.5243  0.2510
 4203TIP3    H234101   6.219   4.322  11.574 -0.7591  0.5012  0.6945
 4204TIP3   OH234102   4.507   6.814  13.612 -0.1202  0.0281  0.2718
 4204TIP3    H134103   4.574   6.839  13.549  1.4770 -0.5154  1.7109
 4204TIP3    H234104   4.430   6.865  13.587  1.2975  1.8661 -0.4416
 4205TIP3   OH234105   5.688   1.751   0.191  0.0077 -0.0864  0.0143
 4205TIP3    H134106   5.621   1.807   0.229  0.0655  0.5695 -0.8486
 4205TIP3    H234107   5.653   1.727   0.105  0.5843 -0.2744 -0.1683
 4206TIP3   OH234108   2.447   0.000   2.725 -0.2207 -0.0963  0.0982
 4206TIP3    H134109   2.539   0.020   2.707 -0.2966  1.5269  1.3805
 4206TIP3    H234110   2.449  -0.085   2.769  0.6933  0.0565  0.3740
 4207TIP3   OH234111   5.960   4.767  14.167 -0.0475  0.3581  0.6687
 4207TIP3    H134112   5.948   4.672  14.162  0.3371  0.3327  0.2312
 4207TIP3    H234113   6.006   4.780  14.250 -1.0094  0.2538  1.2256
 4208TIP3   OH234114   4.556   6.585  12.629 -0.1565  0.0842 -0.7225
 4208TIP3    H134115   4.468   6.583  12.669 -0.1747  1.3485 -0.6735
 4208TIP3    H234116   4.607   6.523  12.681 -1.0194 -0.6495 -0.7380
 4209TIP3   OH234117   6.015   5.708  15.285  0.0305  0.0397 -0.3845
 4209TIP3    H134118   5.978   5.715  15.373  0.4341  1.7191 -0.3425
 4209TIP3    H234119   5.941   5.722  15.226  0.1208  0.8937 -0.3022
 4210TIP3   OH234120   4.274   4.640  13.469  0.2797  0.3691 -0.4338
 4210TIP3    H134121   4.179   4.625  13.470  0.5533 -1.5223 -0.1486
 4210TIP3    H234122   4.306   4.588  13.395  1.1075  0.9663 -0.5057
 4211TIP3   OH234123   3.987   5.544  15.832 -0.1523 -0.5926 -0.4288
 4211TIP3    H134124   4.075   5.505  15.827  0.3225  0.5079 -0.8555
 4211TIP3    H234125   3.997   5.631  15.792 -1.7349 -0.9407 -1.6199
 4212TIP3   OH234126   6.769   2.120  15.230  0.7880  0.5620 -0.4793
 4212TIP3    H134127   6.704   2.190  15.228 -0.5256 -0.6457 -2.3888
 4212TIP3    H234128   6.831   2.146  15.298  0.1538  3.4077 -0.9062
 4213TIP3   OH234129   1.458   0.070  12.989 -0.0146 -0.1164  0.2276
 4213TIP3    H134130   1.488   0.003  12.927  1.0092 -0.5899  1.2388
 4213TIP3    H234131   1.479   0.153  12.946  0.9506 -0.4434  0.0679
 4214TIP3   OH234132   4.517   2.560  16.647 -0.2819  0.8809 -0.0861
 4214TIP3    H134133   4.534   2.558  16.741  1.0166  0.5954 -0.3097
 4214TIP3    H234134   4.594   2.519  16.608 -0.7570  1.0949 -1.2837
 4215TIP3   OH234135   0.820   3.220  11.196  0.0973 -0.2589 -0.4753
 4215TIP3    H134136   0.828   3.263  11.111 -1.2125  0.1632 -0.4010
 4215TIP3    H234137   0.864   3.281  11.257  2.0881 -1.1296 -0.9977
 4216TIP3   OH234138   6.561   0.682  12.363 -0.1688  0.5080 -0.1278
 4216TIP3    H134139   6.652   0.706  12.380  0.5081 -2.1765  0.2834
 4216TIP3    H234140   6.521   0.682  12.450 -0.0811 -0.1254 -0.0839
 4217TIP3   OH234141   3.701   6.625  11.514 -0.0018  0.5379  0.2947
 4217TIP3    H134142   3.632   6.678  11.554 -0.9218  0.1145 -0.6954
 4217TIP3    H234143   3.722   6.671  11.433 -1.6062 -1.1532 -1.1439
 4218TIP3   OH234144   1.987   6.475   1.954  0.1302 -0.3549 -0.4756
 4218TIP3    H134145   2.036   6.448   1.876 -0.0343 -0.6840 -0.4678
 4218TIP3    H234146   1.900   6.497   1.921  0.6199  1.3967 -0.6672
 4219TIP3   OH234147   1.087   0.043  13.185 -0.1976 -0.1758 -0.5319
 4219TIP3    H134148   1.080   0.017  13.277  1.0304  0.3971 -0.2623
 4219TIP3    H234149   1.026   0.117  13.176  0.0730  0.1049 -0.0528
 4220TIP3   OH234150   5.341   1.139   0.748  0.2144 -0.2078 -0.1169
 4220TIP3    H134151   5.361   1.149   0.654  0.6632 -0.7446 -0.0797
 4220TIP3    H234152   5.267   1.198   0.763 -0.3594 -0.7017 -0.9786
 4221TIP3   OH234153   2.989   0.419   1.189 -0.3059 -0.1744 -0.5429
 4221TIP3    H134154   3.062   0.412   1.128 -0.8058  2.2110 -1.4661
 4221TIP3    H234155   2.911   0.415   1.133 -0.7925  0.7882  0.0667
 4222TIP3   OH234156   3.172   5.537   0.277 -0.5589 -0.5962 -0.4580
 4222TIP3    H134157   3.130   5.611   0.322 -0.7528 -0.3121 -1.0911
 4222TIP3    H234158   3.100   5.495   0.229 -0.3616 -0.9221 -0.4681
 4223TIP3   OH234159   2.629   4.635  13.565  0.4200 -0.0799  0.3295
 4223TIP3    H134160   2.598   4.566  13.624 -1.2923 -0.5365 -1.0618
 4223TIP3    H234161   2.720   4.650  13.592  0.2609 -1.6031  1.8313
 4224TIP3   OH234162   5.982   1.643   5.083  0.0843  0.5513 -0.2757
 4224TIP3    H134163   5.903   1.683   5.118 -0.6486 -0.7987 -0.3832
 4224TIP3    H234164   5.953   1.561   5.044  1.0507  1.5183 -3.1250
 4225TIP3   OH234165   3.817   2.973  10.612 -0.1654  0.2763  0.0016
 4225TIP3    H134166   3.818   2.917  10.690  1.7925  0.5379  0.1827
 4225TIP3    H234167   3.735   3.021  10.618 -2.1156 -2.8687 -0.3610
 4226TIP3   OH234168   5.743   0.006  14.106  0.3625 -0.8650 -0.1094
 4226TIP3    H134169   5.743  -0.047  14.186 -1.0492 -0.1441  0.3765
 4226TIP3    H234170   5.820  -0.024  14.058  1.6455 -0.8040  1.8426
 4227TIP3   OH234171   2.096   4.245   3.799  0.2007  0.2154 -0.1645
 4227TIP3    H134172   2.034   4.292   3.744  1.4596  0.5486 -1.3289
 4227TIP3    H234173   2.078   4.153   3.784 -1.3059  0.2929  1.0118
 4228TIP3   OH234174   6.374   0.741   6.791 -0.0294 -0.4513 -0.5330
 4228TIP3    H134175   6.305   0.696   6.841 -0.5608  0.2800 -0.6111
 4228TIP3    H234176   6.418   0.671   6.744 -0.5754 -0.9522 -0.3092
 4229TIP3   OH234177   1.452   4.914   0.079 -0.6705  0.5167  0.8011
 4229TIP3    H134178   1.522   4.855   0.106 -1.8246 -0.7528  1.0461
 4229TIP3    H234179   1.452   4.983   0.145  1.7813  1.7304 -0.3911
 4230TIP3   OH234180   3.903   0.514  15.952 -0.3708  0.4442  0.2318
 4230TIP3    H134181   3.929   0.462  16.028  1.6589  0.0013 -0.7196
 4230TIP3    H234182   3.875   0.449  15.887 -0.9320  0.7430  0.1715
 4231TIP3   OH234183   2.510   4.749  16.931 -0.1838  0.7149 -0.1564
 4231TIP3    H134184   2.418   4.731  16.946 -0.0207 -0.1489 -0.1601
 4231TIP3    H234185   2.513   4.842  16.908 -1.1530  0.5526 -0.9912
 4232TIP3   OH234186   2.477   3.727  14.191  0.0426  0.1525 -0.2988
 4232TIP3    H134187   2.464   3.650  14.137  1.5439  0.1963 -0.7291
 4232TIP3    H234188   2.420   3.794  14.151 -2.0085 -0.9839  0.6655
 4233TIP3   OH234189   3.510   3.348  11.654  0.5721  0.2277  0.1799
 4233TIP3    H134190   3.417   3.332  11.637  0.2106  1.6753  0.7390
 4233TIP3    H234191   3.511   3.390  11.740  1.7331  0.4371  0.0686
 4234TIP3   OH234192   3.231   4.470  13.699 -0.3242  0.5399 -0.4577
 4234TIP3    H134193   3.177   4.477  13.777 -0.1373  1.2702 -0.3935
 4234TIP3    H234194   3.274   4.556  13.691  1.0581 -0.1181 -0.3334
 4235TIP3   OH234195   0.261   5.478  15.179 -0.3024  0.7824 -0.2604
 4235TIP3    H134196   0.303   5.433  15.106  2.3547  1.3057  0.8647
 4235TIP3    H234197   0.172   5.443  15.181  0.4995 -1.5053 -1.8546
 4236TIP3   OH234198   4.029   4.028   2.593 -0.2737  0.0715 -0.2122
 4236TIP3    H134199   4.045   4.068   2.678 -0.2139  1.2482 -0.7598
 4236TIP3    H234200   4.105   3.972   2.577  0.5521  1.1857 -0.2492
 4237TIP3   OH234201   0.037   1.446   1.568 -0.0635  0.7401 -0.6178
 4237TIP3    H134202  -0.015   1.462   1.490 -2.3825 -0.7932  0.5881
 4237TIP3    H234203   0.056   1.534   1.602  0.6570  1.3970 -2.6681
 4238TIP3   OH234204   0.398   1.680  15.631  0.5002  0.0978 -0.2158
 4238TIP3    H134205   0.448   1.612  15.586 -0.0301  1.2066 -2.5513
 4238TIP3    H234206   0.460   1.753  15.639  0.4978  0.0142  0.6186
 4239TIP3   OH234207   5.421   2.773  15.468  0.0026 -0.4301 -0.1484
 4239TIP3    H134208   5.394   2.838  15.532  2.7174  0.6319  0.0120
 4239TIP3    H234209   5.428   2.691  15.518 -1.2469 -0.3628  0.1372
 4240TIP3   OH234210   0.110   4.161   2.685 -0.2440  0.4023  0.4089
 4240TIP3    H134211   0.184   4.221   2.689  0.9992 -1.0889  0.2534
 4240TIP3    H234212   0.088   4.143   2.776  0.8963 -0.6966  0.4906
 4241TIP3   OH234213   5.987   2.009  13.978  0.3100 -0.3952 -0.4010
 4241TIP3    H134214   5.897   2.040  13.967  0.0544 -1.1012 -0.3219
 4241TIP3    H234215   6.017   2.053  14.057  0.0891 -0.0388 -0.5109
 4242TIP3   OH234216   6.547   0.527  16.515  0.4886 -0.2036 -0.2518
 4242TIP3    H134217   6.544   0.443  16.561  0.7104  0.2162  0.5379
 4242TIP3    H234218   6.640   0.541  16.496  0.3061 -0.8043 -1.6370
 4243TIP3   OH234219   4.207   3.709   1.248 -0.9268  0.5202 -0.3144
 4243TIP3    H134220   4.213   3.805   1.244 -0.6540  0.4984 -0.4221
 4243TIP3    H234221   4.131   3.693   1.303  0.1736  0.7928  1.3166
 4244TIP3   OH234222   0.815   2.556  13.895  0.0142 -0.7082 -0.3678
 4244TIP3    H134223   0.886   2.592  13.949 -2.2982  0.9049  1.7121
 4244TIP3    H234224   0.797   2.625  13.831 -0.7976 -0.4091  0.1815
 4245TIP3   OH234225   0.752   4.559  16.358 -0.0170 -0.0706  0.1817
 4245TIP3    H134226   0.748   4.547  16.263  0.0504 -0.7429  0.2624
 4245TIP3    H234227   0.668   4.599  16.381 -0.9273 -1.9050  0.1206
 4246TIP3   OH234228   3.519   0.866   2.602 -0.3207 -0.2837 -0.0779
 4246TIP3    H134229   3.548   0.826   2.684 -0.0473 -1.0971 -0.5731
 4246TIP3    H234230   3.468   0.798   2.558 -0.4107  0.1264 -0.6198
 4247TIP3   OH234231   3.198   1.977  11.497  0.1013 -0.2751 -0.0621
 4247TIP3    H134232   3.203   2.068  11.527  0.6642 -0.4365  0.3411
 4247TIP3    H234233   3.269   1.932  11.543  0.7851 -0.5931 -1.4014
 4248TIP3   OH234234   2.449   3.122   1.892 -0.0005  0.0675 -0.0506
 4248TIP3    H134235   2.439   3.216   1.877 -0.1998  0.0374 -0.1084
 4248TIP3    H234236   2.363   3.086   1.872  0.0201 -0.1008  0.1736
 4249TIP3   OH234237   2.143   2.921  12.093 -0.0773 -0.0464 -0.9945
 4249TIP3    H134238   2.194   2.854  12.139  0.0679  0.8508  0.1808
 4249TIP3    H234239   2.191   3.002  12.109  0.8982  0.0502 -4.1577
 4250TIP3   OH234240   1.346   5.442   4.214 -0.4042  0.1040 -0.3321
 4250TIP3    H134241   1.347   5.349   4.193 -1.2003 -0.7377  3.0636
 4250TIP3    H234242   1.263   5.474   4.180  0.1156 -0.2715 -2.0036
 4251TIP3   OH234243   3.893   0.421  12.102  0.2556 -0.0866  0.5010
 4251TIP3    H134244   3.799   0.428  12.085  0.3410 -1.1804 -0.4209
 4251TIP3    H234245   3.906   0.331  12.132  0.9265  0.2454  1.2528
 4252TIP3   OH234246   0.109   1.277   3.564  0.2030 -0.6254 -0.6849
 4252TIP3    H134247   0.086   1.340   3.495  1.1193 -2.0533 -2.3131
 4252TIP3    H234248   0.197   1.248   3.542 -0.3346 -2.7351 -0.1200
 4253TIP3   OH234249   2.680   1.233  14.380 -0.4157 -0.1529 -0.4685
 4253TIP3    H134250   2.742   1.271  14.318  0.4210 -2.3005 -0.9934
 4253TIP3    H234251   2.604   1.208  14.327 -0.1036 -1.0828 -0.4987
 4254TIP3   OH234252   1.026   5.199  15.656 -0.6433  0.1940  0.5891
 4254TIP3    H134253   1.040   5.124  15.714  0.1353 -1.5226 -1.7456
 4254TIP3    H234254   0.989   5.161  15.576 -0.4862  2.3318 -0.5327
 4255TIP3   OH234255   6.204   2.289  13.719  0.1478 -0.1937 -0.3057
 4255TIP3    H134256   6.210   2.194  13.710 -0.3695 -0.2808  0.2248
 4255TIP3    H234257   6.264   2.310  13.791  0.3186 -0.1112 -0.4727
 4256TIP3   OH234258   5.639   4.272  17.137 -0.3653  0.2697 -0.8190
 4256TIP3    H134259   5.598   4.312  17.060 -2.2520 -1.1481 -0.5900
 4256TIP3    H234260   5.572   4.214  17.172  0.9011 -0.0247  1.2054
 4257TIP3   OH234261   0.313   6.758  12.918  0.1498 -0.3997 -0.4918
 4257TIP3    H134262   0.328   6.816  12.844 -0.0816  0.4674  0.1272
 4257TIP3    H234263   0.244   6.698  12.889 -0.6111  0.5400 -0.6585
 4258TIP3   OH234264   0.827   2.986  13.204  0.3280 -0.2737  0.1184
 4258TIP3    H134265   0.896   2.949  13.148  0.0838 -0.4433 -0.0697
 4258TIP3    H234266   0.817   3.076  13.174  0.7119 -0.1430  0.3770
 4259TIP3   OH234267   2.721   1.328  13.895 -0.3442  0.1594 -0.0701
 4259TIP3    H134268   2.704   1.410  13.942  0.1870 -0.2534  0.8476
 4259TIP3    H234269   2.651   1.323  13.830 -0.3794  1.3518 -0.1465
 4260TIP3   OH234270   4.970   2.348   3.688 -0.5641  0.4006  0.2842
 4260TIP3    H134271   4.876   2.361   3.676 -0.9449 -3.8603 -2.2110
 4260TIP3    H234272   4.976   2.276   3.750  1.0334  0.2548 -0.0290
 4261TIP3   OH234273   0.765   5.006   4.531 -0.1606 -0.2745 -0.2573
 4261TIP3    H134274   0.821   4.953   4.473 -1.7867 -1.5931 -0.6646
 4261TIP3    H234275   0.806   4.999   4.617  2.1255  1.4608 -1.1318
 4262TIP3   OH234276   5.833   3.961   1.161 -0.0286  0.1982  0.2098
 4262TIP3    H134277   5.868   3.907   1.232  0.5479 -0.4705 -0.5834
 4262TIP3    H234278   5.764   4.014   1.203  1.4418  1.0263  1.6090
 4263TIP3   OH234279   1.310   5.816  11.663 -0.2420  0.1104  0.2980
 4263TIP3    H134280   1.333   5.823  11.571 -1.9749  0.9462 -0.0846
 4263TIP3    H234281   1.282   5.725  11.674 -0.1670  0.0489 -0.0268
 4264TIP3   OH234282   0.310   1.716  11.297 -0.0875  0.0377  0.6166
 4264TIP3    H134283   0.374   1.751  11.235 -0.4545  1.1640  0.8627
 4264TIP3    H234284   0.258   1.654  11.246  0.7795 -0.4073  0.2583
 4265TIP3   OH234285   6.738   5.076   4.867  0.6641  0.0575 -0.6504
 4265TIP3    H134286   6.645   5.084   4.849  0.4868 -1.6461 -0.5788
 4265TIP3    H234287   6.781   5.093   4.783  0.3373  1.5146 -0.5328
 4266TIP3   OH234288   1.169   5.639  15.564  0.3094 -0.8210  0.5940
 4266TIP3    H134289   1.197   5.556  15.523  2.3097  0.2786 -0.3695
 4266TIP3    H234290   1.202   5.707  15.504 -1.8299  0.6734  1.0532
 4267TIP3   OH234291   5.555   4.537   1.684 -0.5613 -0.0560 -0.6397
 4267TIP3    H134292   5.581   4.553   1.775 -2.3894  2.1702 -0.4789
 4267TIP3    H234293   5.467   4.501   1.690  0.5455 -3.0643 -1.4244
 4268TIP3   OH234294   3.264   4.398  16.588 -0.1287  0.3388 -0.4880
 4268TIP3    H134295   3.323   4.430  16.519  0.4645 -1.5308 -0.8824
 4268TIP3    H234296   3.304   4.315  16.616 -0.1072  1.3181  2.4659
 4269TIP3   OH234297   3.025   2.194   5.181 -0.0676 -0.3151 -0.2540
 4269TIP3    H134298   3.088   2.209   5.111  0.5660  0.4816  0.4714
 4269TIP3    H234299   3.054   2.251   5.252 -0.1317 -1.8343  1.0188
 4270TIP3   OH234300   6.629   6.694  14.485  0.0406  0.2199  0.4255
 4270TIP3    H134301   6.534   6.679  14.488  0.2408 -1.1722  0.2246
 4270TIP3    H234302   6.650   6.693  14.391  0.0024  2.2513  0.3819
 4271TIP3   OH234303   5.024   5.888   2.090 -0.1505 -0.0509  0.0726
 4271TIP3    H134304   5.069   5.973   2.088 -1.9775  0.9268 -2.7605
 4271TIP3    H234305   4.933   5.911   2.110 -0.1853 -1.6273  1.8622
 4272TIP3   OH234306   1.233   4.691   4.211 -0.2390  0.0304 -0.2994
 4272TIP3    H134307   1.181   4.725   4.138 -1.2133 -1.4603 -0.3149
 4272TIP3    H234308   1.177   4.705   4.288  0.5480  1.0684  0.0971
 4273TIP3   OH234309   1.552   3.939  14.843 -0.7447  0.1437  0.0653
 4273TIP3    H134310   1.597   3.889  14.911  0.4449  0.2565 -0.6342
 4273TIP3    H234311   1.485   3.880  14.810  0.0217 -0.6396 -0.0904
 4274TIP3   OH234312   6.055   5.562   5.454 -0.1006 -0.0385  0.2505
 4274TIP3    H134313   6.042   5.654   5.430 -1.2606 -0.2419  0.0577
 4274TIP3    H234314   6.144   5.559   5.489 -0.1124  1.1965  0.4276
 4275TIP3   OH234315   0.853   3.129  16.712  0.5334  0.0363 -0.3638
 4275TIP3    H134316   0.785   3.171  16.764  0.8893  0.2668 -0.0851
 4275TIP3    H234317   0.827   3.036  16.710 -0.5130  0.3269 -1.3947
 4276TIP3   OH234318   5.421   6.811  17.175  0.5633 -0.0343 -0.1993
 4276TIP3    H134319   5.440   6.899  17.143 -0.1690  0.6663  1.2585
 4276TIP3    H234320   5.476   6.754  17.121  0.8095  1.2759 -1.3711
 4277TIP3   OH234321   2.373   4.986  13.828 -0.5637  0.3446 -0.2776
 4277TIP3    H134322   2.348   5.069  13.787  0.2357 -0.4690 -2.4781
 4277TIP3    H234323   2.315   4.921  13.788  0.2313 -0.4724 -0.1268
 4278TIP3   OH234324   3.720   3.451  11.283 -0.2651  0.2406  0.1094
 4278TIP3    H134325   3.779   3.465  11.357  0.3236  0.1517 -0.3484
 4278TIP3    H234326   3.720   3.535  11.236  1.3020 -0.4829 -1.2031
 4279TIP3   OH234327   2.209   0.680   2.330 -0.2280 -0.2140  0.5630
 4279TIP3    H134328   2.163   0.596   2.325  0.6453 -0.6074 -2.1553
 4279TIP3    H234329   2.187   0.724   2.248  1.3522  1.1159  0.8193
 4280TIP3   OH234330   1.780   5.135  12.286  0.4857 -0.1914  0.1727
 4280TIP3    H134331   1.698   5.174  12.255  0.9235  2.2896  1.9504
 4280TIP3    H234332   1.780   5.047  12.249 -1.5685  0.7554 -2.2850
 4281TIP3   OH234333   0.501   0.405   0.689 -0.3880 -0.8073  0.0901
 4281TIP3    H134334   0.539   0.344   0.752  0.0201 -2.0028 -1.2880
 4281TIP3    H234335   0.523   0.492   0.723  0.4232 -1.4459  1.2182
 4282TIP3   OH234336   3.992   0.564   1.087  0.1101  0.0987  0.3806
 4282TIP3    H134337   4.072   0.513   1.096  0.3407  0.1797 -1.0136
 4282TIP3    H234338   4.019   0.655   1.097 -0.2023  0.0054  2.2538
 4283TIP3   OH234339   6.197   0.228  11.874 -0.4880 -0.4604  0.1533
 4283TIP3    H134340   6.166   0.316  11.895  1.8833  0.6644 -0.7969
 4283TIP3    H234341   6.158   0.208  11.789  0.5875  0.5580 -0.5985
 4284TIP3   OH234342   1.739   5.672   0.387 -0.5394 -0.4819  0.3354
 4284TIP3    H134343   1.715   5.664   0.295  1.6447  1.8207 -0.4866
 4284TIP3    H234344   1.820   5.621   0.395 -0.9069 -0.9610  1.0668
 4285TIP3   OH234345   4.736   0.315  15.129  0.4963 -0.1891 -0.4426
 4285TIP3    H134346   4.674   0.254  15.091  0.6907 -0.3653 -0.4756
 4285TIP3    H234347   4.724   0.396  15.080  2.3209 -1.0538 -2.4036
 4286TIP3   OH234348   3.195   6.143   0.676 -0.4970 -0.1723  0.1306
 4286TIP3    H134349   3.184   6.108   0.588  2.0683 -1.8316  0.4413
 4286TIP3    H234350   3.130   6.096   0.729 -0.0268 -1.3199 -0.3051
 4287TIP3   OH234351   0.767   2.384   1.166 -0.1873  0.1667 -0.6991
 4287TIP3    H134352   0.738   2.465   1.123 -2.2925 -0.6965 -0.9891
 4287TIP3    H234353   0.771   2.320   1.094  1.1769 -0.0576 -0.4244
 4288TIP3   OH234354   2.444   3.847  12.162  0.1242 -0.1562  0.0549
 4288TIP3    H134355   2.444   3.860  12.067  2.0020  0.2520  0.0918
 4288TIP3    H234356   2.428   3.935  12.198  1.5543  0.0652  0.1468
 4289TIP3   OH234357   0.381   0.640  15.586 -0.5101  0.6442  0.2085
 4289TIP3    H134358   0.338   0.700  15.647  1.7301  0.1052  2.3730
 4289TIP3    H234359   0.423   0.698  15.522 -2.2315  1.2183 -0.4584
 4290TIP3   OH234360   1.612   6.181   0.208 -0.4855  0.8690  0.4735
 4290TIP3    H134361   1.544   6.204   0.145 -0.5617 -2.4470 -0.7025
 4290TIP3    H234362   1.567   6.176   0.292 -0.9315  2.3662  0.3445
 4291TIP3   OH234363   5.234   2.658  16.189 -0.1336 -0.0470  0.0488
 4291TIP3    H134364   5.320   2.674  16.228 -0.9574  0.5626  1.6256
 4291TIP3    H234365   5.192   2.595  16.248 -1.2744  0.6646  0.0079
 4292TIP3   OH234366   1.918   1.406  15.136  0.2279 -0.6201  0.6996
 4292TIP3    H134367   1.920   1.431  15.043  0.3545  1.2238  1.1799
 4292TIP3    H234368   1.988   1.458  15.176 -0.9176 -0.1731  2.1341
 4293TIP3   OH234369   1.032   6.295   4.542 -0.2106 -0.2897  0.1282
 4293TIP3    H134370   1.003   6.320   4.630 -2.3117 -1.1465 -0.2930
 4293TIP3    H234371   1.045   6.379   4.497 -1.4641  0.1338  0.5320
 4294TIP3   OH234372   0.127   4.291  15.470  0.4490 -0.0373  0.3519
 4294TIP3    H134373   0.116   4.349  15.546  0.5627 -1.4126  1.4347
 4294TIP3    H234374   0.050   4.309  15.415 -1.0490 -0.9785  2.1006
 4295TIP3   OH234375   3.781   5.356  16.359 -0.1906 -0.1833  0.2735
 4295TIP3    H134376   3.807   5.445  16.382 -3.9219  1.1169 -0.2593
 4295TIP3    H234377   3.838   5.334  16.285  1.1211  1.5318  0.7119
 4296TIP3   OH234378   6.553   1.819  11.493 -0.2032 -0.2900  0.4547
 4296TIP3    H134379   6.519   1.730  11.478  0.8696 -0.5852 -0.3597
 4296TIP3    H234380   6.493   1.876  11.445  0.9531 -0.8881 -1.7904
 4297TIP3   OH234381   0.516   6.111  15.257  0.0357 -0.2866  0.0500
 4297TIP3    H134382   0.546   6.020  15.255 -0.6169 -0.4983 -0.4702
 4297TIP3    H234383   0.503   6.133  15.165 -1.3624 -0.1947  0.2602
 4298TIP3   OH234384   5.877   3.569  13.643 -0.1903  0.2445 -0.4281
 4298TIP3    H134385   5.869   3.520  13.561  1.2207 -1.3342  0.3380
 4298TIP3    H234386   5.961   3.540  13.680 -0.5262  1.3755  1.2825
 4299TIP3   OH234387   5.490   6.371  11.475 -0.1966 -0.8286  0.1905
 4299TIP3    H134388   5.411   6.376  11.529 -0.8667 -1.0095 -0.7746
 4299TIP3    H234389   5.491   6.281  11.442 -0.8540 -0.1720 -1.6963
 4300TIP3   OH234390   1.242   4.544  15.000  0.0971  0.2967  0.7270
 4300TIP3    H134391   1.189   4.624  15.001 -1.1386 -0.5179  1.5435
 4300TIP3    H234392   1.319   4.565  15.054  0.3871  1.3244 -0.0731
 4301TIP3   OH234393   1.162   5.921   1.980 -0.2655  0.1194  0.5915
 4301TIP3    H134394   1.221   5.896   1.908  0.2989  0.4424  0.9355
 4301TIP3    H234395   1.079   5.878   1.959 -0.1478  0.3201 -0.3244
 4302TIP3   OH234396   3.474   5.453   1.584 -0.4191  1.0166  0.0813
 4302TIP3    H134397   3.531   5.522   1.620  0.3943 -0.1561  1.0726
 4302TIP3    H234398   3.534   5.382   1.562 -1.2989  0.4921 -0.6373
 4303TIP3   OH234399   1.552   1.621   2.704 -0.4059 -0.2061  0.4068
 4303TIP3    H134400   1.610   1.577   2.766  0.4277  0.6161  0.2136
 4303TIP3    H234401   1.590   1.708   2.693 -2.6315  0.9692  1.6023
 4304TIP3   OH234402   1.873   5.098  12.623  0.1705 -0.7209 -0.1462
 4304TIP3    H134403   1.790   5.118  12.581 -0.3470 -0.7535  0.8583
 4304TIP3    H234404   1.869   5.005  12.644  0.7252 -0.8698 -0.6763
 4305TIP3   OH234405   3.838   2.748   1.287  0.5300 -0.2030  0.1563
 4305TIP3    H134406   3.920   2.798   1.285 -0.5856  1.6947  0.1391
 4305TIP3    H234407   3.862   2.664   1.325  2.5520  0.2070 -0.1470
 4306TIP3   OH234408   2.522   0.826  15.228 -0.0066  0.2247 -0.1399
 4306TIP3    H134409   2.496   0.764  15.297  1.2394  0.3046  0.4143
 4306TIP3    H234410   2.439   0.857  15.192 -0.6694 -0.4132  0.7934
 4307TIP3   OH234411   6.505   2.158   5.791  0.3208  0.3419  0.4155
 4307TIP3    H134412   6.550   2.184   5.872 -1.3411  1.7050  0.9343
 4307TIP3    H234413   6.430   2.217   5.786 -0.4199 -0.7256 -1.3624
 4308TIP3   OH234414   4.692   6.649  15.883 -0.1169 -0.2997  0.6676
 4308TIP3    H134415   4.710   6.694  15.965  0.3329  0.4522  0.1564
 4308TIP3    H234416   4.733   6.703  15.815  0.6875 -1.6175  0.0735
 4309TIP3   OH234417   5.148   0.658   2.132 -0.4651 -0.4036 -0.4216
 4309TIP3    H134418   5.185   0.580   2.173  1.5607  0.9198  0.3236
 4309TIP3    H234419   5.138   0.634   2.040 -0.3797 -1.7203 -0.0921
 4310TIP3   OH234420   3.187   1.448  11.806 -0.1340 -0.8544 -0.3764
 4310TIP3    H134421   3.220   1.527  11.763 -1.0991 -1.1952 -1.7972
 4310TIP3    H234422   3.263   1.411  11.851  0.2137  1.1369  0.7182
 4311TIP3   OH234423   0.000   0.655  14.295  0.2055  0.0262  0.1610
 4311TIP3    H134424  -0.086   0.650  14.336 -1.2898  0.2539 -2.8117
 4311TIP3    H234425  -0.014   0.707  14.216  2.8684 -0.7156 -0.8579
 4312TIP3   OH234426   1.847   1.748  14.297 -0.0483 -0.0519 -0.1957
 4312TIP3    H134427   1.805   1.690  14.360 -0.4358  0.5184  0.0838
 4312TIP3    H234428   1.940   1.726  14.301 -0.0600  0.0279  0.6349
 4313TIP3   OH234429   5.561   5.461   0.142 -0.2908  0.1934 -0.1343
 4313TIP3    H134430   5.474   5.461   0.183  0.3507 -0.4228  1.2706
 4313TIP3    H234431   5.547   5.419   0.057 -1.4796  0.6712 -0.1968
 4314TIP3   OH234432   2.939   3.625  12.632  0.0610  0.1256  0.2736
 4314TIP3    H134433   2.887   3.697  12.596 -0.8625 -0.1999  0.9614
 4314TIP3    H234434   3.016   3.669  12.670 -1.2498  0.9321  2.0928
 4315TIP3   OH234435   2.076   3.172   0.837  0.1695  0.5604  0.7718
 4315TIP3    H134436   2.150   3.202   0.786  0.6723  0.8435  1.6642
 4315TIP3    H234437   2.112   3.103   0.894 -0.7581 -1.0656 -0.5577
 4316TIP3   OH234438   3.272   3.320   5.603 -0.2749  0.0194 -0.3195
 4316TIP3    H134439   3.302   3.312   5.694 -0.8457  0.4896 -0.0850
 4316TIP3    H234440   3.263   3.414   5.589  1.4247  0.0366 -1.4048
 4317TIP3   OH234441   5.339   6.596   1.328  0.2464 -0.3556  0.3381
 4317TIP3    H134442   5.337   6.531   1.397 -0.8722  0.4300  1.0604
 4317TIP3    H234443   5.249   6.629   1.323  0.1960 -0.7337 -1.8104
 4318TIP3   OH234444   4.655   4.302  12.078 -0.3834  0.3142 -0.3878
 4318TIP3    H134445   4.724   4.368  12.087  0.5879 -0.7840  0.5413
 4318TIP3    H234446   4.591   4.341  12.019 -0.0717  2.2806  0.5194
 4319TIP3   OH234447   1.486   0.523   6.286  0.4690  0.7126 -0.5810
 4319TIP3    H134448   1.476   0.431   6.310 -0.0945 -0.1007 -3.6564
 4319TIP3    H234449   1.404   0.564   6.312  0.1698  0.0550 -0.4764
 4320TIP3   OH234450   2.164   3.649   5.076 -0.2673  0.1102 -0.0361
 4320TIP3    H134451   2.237   3.592   5.100 -1.9565 -1.0035  2.6248
 4320TIP3    H234452   2.089   3.591   5.072 -1.3138  1.5130 -1.2271
 4321TIP3   OH234453   4.426   2.671   0.980 -0.4369 -0.9285 -0.0441
 4321TIP3    H134454   4.355   2.634   1.031 -0.2117 -1.0796  0.1584
 4321TIP3    H234455   4.388   2.750   0.939 -0.1829  0.0524  1.5843
 4322TIP3   OH234456   2.900   6.441  13.832 -0.4102 -0.1714  0.5155
 4322TIP3    H134457   2.848   6.521  13.836 -0.0195  0.0751  0.7272
 4322TIP3    H234458   2.901   6.416  13.740  0.0545  0.4589  0.3468
 4323TIP3   OH234459   5.940   5.348  17.288  0.5182  0.2390 -0.1527
 4323TIP3    H134460   5.909   5.398  17.213  1.4724 -0.0271 -0.7399
 4323TIP3    H234461   5.898   5.389  17.364  0.1221  0.9762 -0.7647
 4324TIP3   OH234462   5.522   3.724  13.907 -0.2493 -0.0600  0.5305
 4324TIP3    H134463   5.509   3.792  13.841  2.8640  0.0140 -0.0551
 4324TIP3    H234464   5.489   3.644  13.866 -0.0585  0.3306 -0.4006
 4325TIP3   OH234465   6.608   4.624   3.041 -0.0416 -0.2142 -0.3272
 4325TIP3    H134466   6.610   4.531   3.018 -0.2653 -0.3267  0.1047
 4325TIP3    H234467   6.553   4.628   3.119 -1.7564  0.5376 -1.5274
 4326TIP3   OH234468   5.685   2.600  13.572  0.1945 -0.7190 -0.3061
 4326TIP3    H134469   5.618   2.535  13.593  0.5540 -0.6007  1.2775
 4326TIP3    H234470   5.765   2.566  13.611  0.7166 -0.0922 -0.8222
 4327TIP3   OH234471   0.718   4.257   3.973  0.5728  0.1534  0.6132
 4327TIP3    H134472   0.722   4.198   3.898 -0.9255  0.5449  0.2230
 4327TIP3    H234473   0.765   4.335   3.945  0.9483 -0.1243  0.4680
 4328TIP3   OH234474   5.636   2.991   1.852 -0.0997  0.8427  0.4402
 4328TIP3    H134475   5.695   3.036   1.791 -0.9144  0.0214 -1.0070
 4328TIP3    H234476   5.549   3.024   1.830 -0.4989 -0.1082  0.5543
 4329TIP3   OH234477   1.869   5.922  13.531 -0.3356 -0.2415 -0.0240
 4329TIP3    H134478   1.920   5.851  13.569  1.7465  0.6913 -0.9907
 4329TIP3    H234479   1.836   5.887  13.448  0.7022 -0.0979 -0.5066
 4330TIP3   OH234480   0.891   5.390  14.738 -0.0982  0.1508 -0.5617
 4330TIP3    H134481   0.967   5.348  14.779  0.5483  0.4697 -1.4313
 4330TIP3    H234482   0.818   5.332  14.760  0.6447 -0.9868 -1.0263
 4331TIP3   OH234483   2.862   6.354  14.609 -0.6173 -0.6826  0.6969
 4331TIP3    H134484   2.944   6.321  14.571 -0.6929  1.2529 -1.2525
 4331TIP3    H234485   2.850   6.440  14.569 -3.1027 -0.5072  1.7226
 4332TIP3   OH234486   0.917   0.030   0.401  0.5655 -0.1388 -0.4581
 4332TIP3    H134487   0.867   0.062   0.476  0.3718 -0.4824 -0.4375
 4332TIP3    H234488   1.005   0.063   0.415  1.1903 -2.4566  1.3324
 4333TIP3   OH234489   5.019   6.628   4.121  0.4850  0.1226  0.6056
 4333TIP3    H134490   5.052   6.711   4.155  1.2903 -0.3834  1.0657
 4333TIP3    H234491   5.098   6.578   4.100 -0.0023 -0.5110  0.2859
 4334TIP3   OH234492   3.403   0.200   3.500  0.0648 -0.3790 -0.1838
 4334TIP3    H134493   3.472   0.151   3.457  0.4346  0.3015 -0.3783
 4334TIP3    H234494   3.421   0.191   3.594  0.2751 -0.4088 -0.2276
 4335TIP3   OH234495   5.711   4.599  13.417 -0.3993  0.1963 -0.0163
 4335TIP3    H134496   5.759   4.627  13.339  0.7356  1.6051  1.1645
 4335TIP3    H234497   5.723   4.504  13.419  0.9762  0.3350 -0.6457
 4336TIP3   OH234498   1.915   2.695  14.441 -0.5703 -0.3221  0.0495
 4336TIP3    H134499   1.915   2.621  14.380 -0.2497  0.6210 -1.1089
 4336TIP3    H234500   2.003   2.696  14.478  0.3002  1.1347 -1.9921
 4337TIP3   OH234501   2.917   1.848  16.591 -0.1233 -0.4926  0.0697
 4337TIP3    H134502   2.968   1.792  16.532 -3.0281 -1.8891 -1.1845
 4337TIP3    H234503   2.943   1.937  16.568  0.8361 -1.1404 -1.3894
 4338TIP3   OH234504   0.846   3.524  10.570  0.3842  0.2445 -0.7794
 4338TIP3    H134505   0.938   3.505  10.587 -0.0814  0.3747  2.1112
 4338TIP3    H234506   0.829   3.603  10.621 -0.9354  1.1529 -2.5826
 4339TIP3   OH234507   5.677   4.225   1.224  0.2713 -0.3013 -0.4802
 4339TIP3    H134508   5.650   4.271   1.304 -2.9182 -0.1850 -1.5463
 4339TIP3    H234509   5.731   4.289   1.177 -0.4310  0.7638  0.1364
 4340TIP3   OH234510   1.934   6.388  12.326  0.5660  0.0171  0.3498
 4340TIP3    H134511   1.889   6.336  12.393 -1.0018  1.6908  0.6359
 4340TIP3    H234512   1.927   6.336  12.246 -0.9616 -0.2215  0.6330
 4341TIP3   OH234513   5.698   2.294  14.120  0.2476  0.3390  0.0516
 4341TIP3    H134514   5.666   2.372  14.075 -0.8132  1.2799  2.3524
 4341TIP3    H234515   5.743   2.328  14.198  1.4224 -1.2671  0.1115
 4342TIP3   OH234516   1.186   4.886  14.201 -0.3641 -0.1450 -0.0223
 4342TIP3    H134517   1.256   4.831  14.237  0.2134  0.8790  0.4293
 4342TIP3    H234518   1.224   4.924  14.122 -0.2012  0.8718  0.5358
 4343TIP3   OH234519   4.731   0.330  13.812  0.4066  0.3284 -0.6331
 4343TIP3    H134520   4.800   0.267  13.831 -0.7992 -1.3400 -1.6775
 4343TIP3    H234521   4.650   0.283  13.829 -0.5418  1.2624 -2.3949
 4344TIP3   OH234522   0.250   1.665   1.177 -0.1523  0.0320  0.4584
 4344TIP3    H134523   0.187   1.714   1.231 -1.5194  0.9920 -1.9426
 4344TIP3    H234524   0.333   1.712   1.189 -0.7989  1.1921  0.4668
 4345TIP3   OH234525   6.732   3.913  10.940 -0.2974  0.2492  0.1346
 4345TIP3    H134526   6.764   4.004  10.939  0.7293 -0.0775  2.0772
 4345TIP3    H234527   6.786   3.869  11.005 -0.7053 -1.8099 -0.8871
 4346TIP3   OH234528   4.869   5.721   1.910  0.1106 -0.3348  0.5546
 4346TIP3    H134529   4.932   5.737   1.980  0.1657 -2.3842  0.9941
 4346TIP3    H234530   4.783   5.734   1.951  0.1534 -1.1699  0.9134
 4347TIP3   OH234531   0.277   6.198   5.029  0.3468 -0.5814 -0.2221
 4347TIP3    H134532   0.275   6.185   5.124 -1.0269  1.4790  0.0695
 4347TIP3    H234533   0.207   6.141   4.996 -1.5544  1.2745  0.4169
 4348TIP3   OH234534   1.202   1.241   2.651 -0.2729 -0.3708  0.1231
 4348TIP3    H134535   1.221   1.266   2.561  0.8576  1.0023  0.7038
 4348TIP3    H234536   1.245   1.157   2.663 -3.3736 -2.2751 -1.6194
 4349TIP3   OH234537   4.134   6.468   1.472 -0.2853  0.2116  0.5234
 4349TIP3    H134538   4.185   6.388   1.486 -0.7159  0.0006  0.8996
 4349TIP3    H234539   4.199   6.538   1.473  0.0228 -0.0777  0.7873
 4350TIP3   OH234540   3.210   1.444  12.139  0.1758  0.1122 -0.6776
 4350TIP3    H134541   3.252   1.528  12.122 -2.5583  1.0322 -3.3358
 4350TIP3    H234542   3.117   1.465  12.151 -0.4209 -2.4099 -0.4924
 4351TIP3   OH234543   1.771   0.242   4.737  0.2230  0.5439 -0.0095
 4351TIP3    H134544   1.837   0.206   4.678 -0.3658  0.1269 -0.4099
 4351TIP3    H234545   1.817   0.251   4.820  0.6049 -0.3559 -0.1140
 4352TIP3   OH234546   0.273   1.311   0.072 -0.3857 -0.6991 -0.4524
 4352TIP3    H134547   0.271   1.224   0.112  0.1577 -0.6786 -0.3828
 4352TIP3    H234548   0.224   1.366   0.133  1.3562 -0.4359  0.7528
 4353TIP3   OH234549   6.176   2.848   0.059 -0.0257  0.1314 -0.3840
 4353TIP3    H134550   6.226   2.929   0.070 -0.0012  0.0325  0.2484
 4353TIP3    H234551   6.175   2.808   0.146 -1.9626  0.5680 -0.1710
 4354TIP3   OH234552   2.193   5.691  16.446 -0.0157  0.0176  0.3491
 4354TIP3    H134553   2.143   5.633  16.503 -1.5506  0.8896 -0.0885
 4354TIP3    H234554   2.217   5.636  16.371  0.4263 -0.6207  0.9436
 4355TIP3   OH234555   2.999   1.575  16.567  0.2628  0.1582  0.3567
 4355TIP3    H134556   3.046   1.506  16.521  0.6487  0.2898  0.5530
 4355TIP3    H234557   3.036   1.575  16.655  0.1925  0.5488  0.3848
 4356TIP3   OH234558   5.923   4.908  16.351  0.3342 -0.6782  0.4515
 4356TIP3    H134559   5.907   4.899  16.257 -0.1068  0.6825  0.3757
 4356TIP3    H234560   6.013   4.878  16.363  0.8363  0.3391 -0.6285
 4357TIP3   OH234561   6.048   4.029  14.829 -0.2237 -0.7428 -0.4226
 4357TIP3    H134562   6.126   4.075  14.860 -0.0597 -1.8280  0.7811
 4357TIP3    H234563   6.082   3.964  14.768 -0.2114 -1.0479 -0.0900
 4358TIP3   OH234564   6.417   4.440  14.467  0.2586 -0.0006  0.2842
 4358TIP3    H134565   6.340   4.484  14.432  0.2904 -1.2121 -1.3987
 4358TIP3    H234566   6.399   4.429  14.560 -0.1059  2.7585  0.5898
 4359TIP3   OH234567   1.468   2.742  15.619  0.0125  0.5546 -0.2350
 4359TIP3    H134568   1.439   2.823  15.577 -0.8972  0.9330  1.0896
 4359TIP3    H234569   1.387   2.691  15.631  0.0906  0.8655  1.9012
 4360TIP3   OH234570   3.405   0.345  12.795  0.3641  0.3160 -0.2174
 4360TIP3    H134571   3.385   0.412  12.860  2.3395  0.1167  0.6255
 4360TIP3    H234572   3.349   0.367  12.720 -1.4423  0.9349  1.2810
 4361TIP3   OH234573   4.292   1.669  15.986 -0.5035  0.6510 -0.1344
 4361TIP3    H134574   4.258   1.579  15.985 -0.6459  0.7026  0.1114
 4361TIP3    H234575   4.383   1.660  15.958 -0.5329  0.4362 -0.1655
 4362TIP3   OH234576   2.972   3.225  15.762 -0.2579  0.0547 -0.1363
 4362TIP3    H134577   2.943   3.270  15.683  3.0370  2.7772  0.0935
 4362TIP3    H234578   3.050   3.176  15.735  0.2895  0.1775  1.1650
 4363TIP3   OH234579   5.603   3.719  12.016 -0.3529 -0.3293 -0.4489
 4363TIP3    H134580   5.516   3.701  12.052 -0.3461 -2.3415 -1.3371
 4363TIP3    H234581   5.662   3.666  12.070  0.3106  0.8781  0.0223
 4364TIP3   OH234582   6.810   1.972   5.203  0.2297  0.1882 -0.4008
 4364TIP3    H134583   6.753   1.917   5.256  0.3435  0.8167  0.3847
 4364TIP3    H234584   6.882   1.914   5.177 -0.5150 -0.4727 -0.9993
 4365TIP3   OH234585   3.873   1.864   5.972  0.4166  0.1777  0.0787
 4365TIP3    H134586   3.822   1.786   5.950 -0.9481  1.6949 -2.3492
 4365TIP3    H234587   3.828   1.900   6.049 -0.2475 -0.2410 -0.1040
 4366TIP3   OH234588   2.979   0.163   1.713  0.0493  0.0466 -0.0413
 4366TIP3    H134589   2.925   0.223   1.663  1.1787  0.0780 -1.2717
 4366TIP3    H234590   2.973   0.080   1.665 -1.5641 -0.8889  1.6796
 4367TIP3   OH234591   0.067   0.144  15.690 -0.0532  0.1835 -0.4946
 4367TIP3    H134592   0.132   0.199  15.646 -0.1073  0.4286 -0.2664
 4367TIP3    H234593   0.005   0.120  15.621  0.1908  0.0825 -0.6799
 4368TIP3   OH234594   6.306   4.209   5.001  0.1485  0.5760 -0.0528
 4368TIP3    H134595   6.280   4.237   5.089 -1.1856 -0.8520  0.0320
 4368TIP3    H234596   6.348   4.285   4.963 -0.6485  1.6995  1.2669
 4369TIP3   OH234597   2.715   5.092  14.562 -0.0290 -0.0248 -0.0594
 4369TIP3    H134598   2.638   5.039  14.540  1.0950 -1.6479 -0.1314
 4369TIP3    H234599   2.765   5.037  14.622  1.3852  0.7986 -0.4804
 4370TIP3   OH234600   4.268   0.015  16.917  0.2166  0.1005  0.3167
 4370TIP3    H134601   4.185  -0.031  16.925  0.2643  0.0525  0.5307
 4370TIP3    H234602   4.247   0.093  16.864  0.0569  0.0375  0.2877
 4371TIP3   OH234603   6.600   1.867   5.342 -0.5680 -0.3873 -0.1763
 4371TIP3    H134604   6.509   1.896   5.351 -0.5309  0.8621 -3.3356
 4371TIP3    H234605   6.594   1.784   5.295 -0.1476 -1.3749  1.4559
 4372TIP3   OH234606   1.357   4.207   3.753 -0.4423 -0.4387  0.8989
 4372TIP3    H134607   1.275   4.244   3.785 -0.6557 -0.0824 -0.0444
 4372TIP3    H234608   1.331   4.128   3.705 -0.4099  0.5779 -0.8333
 4373TIP3   OH234609   1.281   1.600   5.423  0.1318  0.2381  0.1102
 4373TIP3    H134610   1.240   1.573   5.341 -0.4260  0.2176  0.3846
 4373TIP3    H234611   1.314   1.688   5.407 -2.2322  1.2717  0.6089
 4374TIP3   OH234612   4.403   1.214  13.063  0.0409  0.8102  0.3525
 4374TIP3    H134613   4.320   1.261  13.063  0.3112  1.2937  0.1238
 4374TIP3    H234614   4.470   1.283  13.056  0.4283  0.3760 -0.2247
 4375TIP3   OH234615   5.088   2.707  14.232 -0.2787  0.5416 -0.4977
 4375TIP3    H134616   5.056   2.623  14.200  1.6926  0.2404 -1.7872
 4375TIP3    H234617   5.015   2.768  14.218 -1.8306 -0.9989  0.7383
 4376TIP3   OH234618   1.606   1.318   4.192  0.1025  0.3052 -0.2928
 4376TIP3    H134619   1.696   1.328   4.223 -0.1198  1.0531  0.1080
 4376TIP3    H234620   1.613   1.254   4.120  1.1932  1.6484 -1.4032
 4377TIP3   OH234621   2.139   6.330  15.918 -0.1897 -0.0344  0.5971
 4377TIP3    H134622   2.049   6.321  15.887  0.5541  1.4733 -2.2246
 4377TIP3    H234623   2.140   6.288  16.003 -2.7138 -3.2974 -0.8893
 4378TIP3   OH234624   0.544   1.403   6.131  0.2066  0.3394 -0.4814
 4378TIP3    H134625   0.618   1.453   6.098  0.3748 -0.2986 -1.0768
 4378TIP3    H234626   0.581   1.348   6.200  0.4614 -0.5608 -1.3118
 4379TIP3   OH234627   4.992   5.947   1.320  0.1501 -1.1095  0.8395
 4379TIP3    H134628   4.978   6.024   1.376  0.9788 -1.1684  1.1325
 4379TIP3    H234629   4.915   5.892   1.335 -1.0354  0.2121 -0.2761
 4380TIP3   OH234630   4.791   2.887  12.086  0.3161  0.0600 -0.2794
 4380TIP3    H134631   4.795   2.791  12.080 -2.0953 -0.3183  2.9159
 4380TIP3    H234632   4.712   2.910  12.037  1.7546  0.6203 -2.4048
 4381TIP3   OH234633   4.113   6.328  16.363  0.1230 -0.2622  0.5120
 4381TIP3    H134634   4.175   6.339  16.291 -1.3872  0.9489 -0.6191
 4381TIP3    H234635   4.112   6.413  16.407 -2.5965  0.5451 -1.0068
 4382TIP3   OH234636   4.741   5.516  12.825  0.0292 -0.3442 -0.1966
 4382TIP3    H134637   4.646   5.519  12.815 -0.0959 -1.3935  0.5378
 4382TIP3    H234638   4.765   5.427  12.800  0.6762 -0.4443  0.7414
 4383TIP3   OH234639   6.718   3.934   4.722  0.0862 -0.2873 -0.1346
 4383TIP3    H134640   6.790   3.898   4.775 -1.8188 -1.9577  1.3937
 4383TIP3    H234641   6.721   4.028   4.739  0.0100 -0.7049  2.3484
 4384TIP3   OH234642   4.565   2.733  14.063 -0.3325 -0.5609  0.2124
 4384TIP3    H134643   4.558   2.677  13.986 -1.6200 -1.1464  0.7407
 4384TIP3    H234644   4.636   2.694  14.115 -0.4816 -1.0561  0.0474
 4385TIP3   OH234645   6.709   4.235  16.358 -0.4454 -1.0795 -0.0684
 4385TIP3    H134646   6.800   4.207  16.350  0.2376  1.2138 -0.9468
 4385TIP3    H234647   6.699   4.260  16.450  0.1398 -0.3519 -0.1942
 4386TIP3   OH234648   3.387   3.240   4.651  0.7478 -0.0468  0.4177
 4386TIP3    H134649   3.344   3.180   4.712  0.8576  0.6275  1.1532
 4386TIP3    H234650   3.472   3.200   4.634 -0.2985 -1.6178 -1.3798
 4387TIP3   OH234651   1.473   6.787  15.230  0.2662 -0.2080 -0.3091
 4387TIP3    H134652   1.507   6.875  15.211 -1.6976  0.8957  1.0839
 4387TIP3    H234653   1.520   6.759  15.308  2.2263 -1.2120 -1.7970
 4388TIP3   OH234654   4.463   3.074  10.921  0.2035 -0.2826 -0.3277
 4388TIP3    H134655   4.545   3.025  10.925  0.0693 -0.4630  0.2602
 4388TIP3    H234656   4.415   3.035  10.848  1.0126  0.4081 -1.2404
 4389TIP3   OH234657   3.521   1.331   3.232  0.0399  0.0461 -0.2156
 4389TIP3    H134658   3.604   1.335   3.279 -0.9378  1.6320  1.4239
 4389TIP3    H234659   3.523   1.247   3.187  2.0365 -0.4367  0.7202
 4390TIP3   OH234660   0.070   3.739  12.430 -0.1539 -0.8373 -0.0995
 4390TIP3    H134661   0.048   3.790  12.508 -0.1499  0.0377 -0.6644
 4390TIP3    H234662   0.015   3.775  12.361 -1.2347 -2.5837 -0.1945
 4391TIP3   OH234663   4.183   5.431   4.113  0.0936  0.3583  0.3095
 4391TIP3    H134664   4.156   5.502   4.171 -0.5317  1.2441 -1.0263
 4391TIP3    H234665   4.117   5.363   4.127  0.6585  0.0507  1.5457
 4392TIP3   OH234666   4.752   0.578  13.905  0.2824 -0.0743 -0.1044
 4392TIP3    H134667   4.737   0.487  13.880 -0.2451  0.4039 -1.5891
 4392TIP3    H234668   4.778   0.621  13.824 -0.1495  1.2427  0.4429
 4393TIP3   OH234669   4.004   6.345   3.457 -0.3694 -0.4126 -0.2858
 4393TIP3    H134670   3.973   6.352   3.367 -0.8677  0.4563 -0.0522
 4393TIP3    H234671   3.932   6.302   3.504 -0.5877  0.1995 -0.0616
 4394TIP3   OH234672   3.881   4.861  14.487  0.2782 -0.1438  0.6755
 4394TIP3    H134673   3.842   4.861  14.575  3.9672  2.2886  2.4581
 4394TIP3    H234674   3.809   4.884  14.429 -2.0052 -0.6616  3.1777
 4395TIP3   OH234675   5.972   6.780   7.186  0.0510 -0.1429 -0.5463
 4395TIP3    H134676   5.894   6.835   7.174 -1.0337 -1.6435 -0.4838
 4395TIP3    H234677   6.028   6.802   7.112 -1.0157 -0.0110 -1.3355
 4396TIP3   OH234678   3.360   1.312  14.884  0.4681  0.3562  0.5344
 4396TIP3    H134679   3.313   1.329  14.966  0.0519 -0.2319  0.4211
 4396TIP3    H234680   3.300   1.258  14.833  1.1196 -0.0739  0.2219
 4397TIP3   OH234681   5.651   3.802   1.619  0.1000 -0.1568 -0.2246
 4397TIP3    H134682   5.653   3.708   1.604 -1.4635 -0.2505  0.0756
 4397TIP3    H234683   5.559   3.826   1.614  0.3322  1.1280  1.0907
 4398TIP3   OH234684   4.827   5.832   4.891 -0.1269  0.1663  0.0042
 4398TIP3    H134685   4.778   5.911   4.918 -0.4394 -0.7525  2.1999
 4398TIP3    H234686   4.760   5.763   4.887  0.6956 -0.7116  1.3002
 4399TIP3   OH234687   4.192   0.918   2.760 -0.2338 -0.0259  0.6636
 4399TIP3    H134688   4.117   0.921   2.701 -0.1850 -0.0677  0.6003
 4399TIP3    H234689   4.199   1.008   2.794  1.0154  0.5426 -0.9941
 4400TIP3   OH234690   2.654   1.056   1.018 -0.1651  0.1334 -0.2327
 4400TIP3    H134691   2.681   1.090   0.933  1.3813 -0.4964 -0.0146
 4400TIP3    H234692   2.582   0.997   0.998  0.0162  0.1968 -1.0885
 4401TIP3   OH234693   3.791   6.143  12.651  0.2498  0.4109  0.2723
 4401TIP3    H134694   3.800   6.079  12.580 -0.2619 -2.2936  2.5373
 4401TIP3    H234695   3.698   6.164  12.653  0.2062  0.2097  0.3671
 4402TIP3   OH234696   2.245   4.097  13.274  0.2721  0.0165  0.8335
 4402TIP3    H134697   2.177   4.149  13.231 -0.9887 -2.7347 -0.6473
 4402TIP3    H234698   2.328   4.136  13.244 -0.6296  1.8465  0.6681
 4403TIP3   OH234699   5.218   3.840   6.525 -0.0625  0.4455 -0.3655
 4403TIP3    H134700   5.210   3.767   6.587  0.3825 -0.5599 -1.4670
 4403TIP3    H234701   5.312   3.860   6.525  0.2406 -0.8344 -2.1200
 4404TIP3   OH234702   2.741   1.098   2.070 -0.4576  0.2536  0.1845
 4404TIP3    H134703   2.816   1.152   2.094  0.4713 -1.2411  0.6830
 4404TIP3    H234704   2.715   1.055   2.151 -3.4929  2.6847  0.5994
 4405TIP3   OH234705   1.450   4.357  14.319  0.6467 -0.4371 -0.3023
 4405TIP3    H134706   1.430   4.443  14.284  2.0111 -0.0265 -0.1124
 4405TIP3    H234707   1.373   4.334  14.372  0.0347  0.4055 -0.8209
 4406TIP3   OH234708   0.965   5.704   4.350 -0.5147  0.3231  0.0859
 4406TIP3    H134709   0.981   5.766   4.421  0.5697  0.0725  0.0653
 4406TIP3    H234710   0.886   5.657   4.376 -0.5439  0.7494  0.7618
 4407TIP3   OH234711   0.134   0.385  16.020  0.0266  0.1260  0.0448
 4407TIP3    H134712   0.046   0.350  16.026  0.2101 -0.5726 -1.1250
 4407TIP3    H234713   0.187   0.312  15.988  0.7062  1.0061 -0.8979
 4408TIP3   OH234714   3.346   2.983   2.118 -0.2582 -0.2366  0.4126
 4408TIP3    H134715   3.436   2.955   2.099 -0.3228  0.6664 -1.2788
 4408TIP3    H234716   3.293   2.905   2.102 -0.0057 -0.2043 -0.5809
 4409TIP3   OH234717   5.523   0.111  14.649 -0.0634 -0.2219  0.2087
 4409TIP3    H134718   5.450   0.166  14.620  1.6407  1.7861 -0.4170
 4409TIP3    H234719   5.562   0.079  14.568  1.0664  0.4879  0.4669
 4410TIP3   OH234720   3.584   5.077  16.863 -0.1737  0.4249 -0.0939
 4410TIP3    H134721   3.605   5.151  16.805  2.5564  1.0247  1.6119
 4410TIP3    H234722   3.530   5.115  16.932 -0.5021  0.4005 -0.3346
 4411TIP3   OH234723   5.428   2.138  11.086  0.2894 -0.2812 -0.2113
 4411TIP3    H134724   5.501   2.078  11.104  2.1830  1.1217 -2.9308
 4411TIP3    H234725   5.409   2.178  11.171  0.7072 -2.8367  1.1251
 4412TIP3   OH234726   5.859   4.690   0.905 -0.5237 -0.0180 -0.4451
 4412TIP3    H134727   5.861   4.786   0.911 -1.6516 -0.0274  0.2205
 4412TIP3    H234728   5.888   4.671   0.815  1.7062  0.8397  0.0522
 4413TIP3   OH234729   4.804   3.374  11.933 -0.2286  0.0794  0.1611
 4413TIP3    H134730   4.840   3.291  11.965  0.7401  0.0992 -0.8712
 4413TIP3    H234731   4.871   3.439  11.955 -0.2719  0.3393 -0.4762
 4414TIP3   OH234732   1.542   6.357   0.942  0.2212  0.0396 -0.0275
 4414TIP3    H134733   1.576   6.281   0.989 -0.6840 -1.1157 -1.2143
 4414TIP3    H234734   1.619   6.412   0.927  0.8807 -0.6144  0.8910
 4415TIP3   OH234735   3.406   5.993  15.978  0.0880  0.1473 -0.4000
 4415TIP3    H134736   3.347   5.986  15.903  0.6659  0.8652 -0.9147
 4415TIP3    H234737   3.416   6.087  15.993 -1.0196  0.0205  1.3645
 4416TIP3   OH234738   4.974   2.238   3.160 -0.4861 -0.4381  0.3012
 4416TIP3    H134739   4.943   2.321   3.195 -0.9024 -1.2363  1.8847
 4416TIP3    H234740   5.055   2.259   3.115 -2.1649  1.3180 -1.9663
 4417TIP3   OH234741   0.137   3.887   4.896  0.8916  0.1236  0.0536
 4417TIP3    H134742   0.193   3.891   4.819  0.7397 -0.8972 -0.1156
 4417TIP3    H234743   0.162   3.964   4.948  1.2060  0.6419 -0.8594
 4418TIP3   OH234744   5.529   3.673  14.210  0.3795  0.3737  0.2375
 4418TIP3    H134745   5.560   3.646  14.123  1.3112  1.5880  0.1736
 4418TIP3    H234746   5.609   3.681  14.262 -0.1964 -0.6186  1.3017
 4419TIP3   OH234747   4.510   1.807  11.776  0.3314 -0.0956  0.0786
 4419TIP3    H134748   4.464   1.738  11.824 -0.6541  0.1720 -0.4634
 4419TIP3    H234749   4.573   1.843  11.839 -1.9756  1.2852  1.6525
 4420TIP3   OH234750   3.956   5.379   4.483 -0.4463  0.0891 -0.1519
 4420TIP3    H134751   3.981   5.436   4.411  1.0993 -0.8791 -0.4147
 4420TIP3    H234752   4.039   5.351   4.522 -1.2428  0.8235  2.2132
 4421TIP3   OH234753   4.458   2.144  15.639  0.2313  0.3398 -0.1986
 4421TIP3    H134754   4.479   2.228  15.599  0.2738  0.1129 -0.6611
 4421TIP3    H234755   4.464   2.081  15.567  2.7148 -0.4514  0.6418
 4422TIP3   OH234756   2.218   4.413  14.319 -0.2916 -0.4079  0.2596
 4422TIP3    H134757   2.219   4.362  14.400  1.0218 -2.9953 -1.3186
 4422TIP3    H234758   2.127   4.409  14.290 -0.2136 -1.8741  0.1750
 4423TIP3   OH234759   6.376   6.279   1.338 -0.7063 -0.3464  0.5132
 4423TIP3    H134760   6.404   6.265   1.247 -0.2916  1.1742  0.3963
 4423TIP3    H234761   6.454   6.262   1.390  0.0451  2.3052  0.3056
 4424TIP3   OH234762   0.371   0.945   0.077  0.0439 -0.2560 -0.0921
 4424TIP3    H134763   0.281   0.918   0.061 -0.1939  0.1136  0.5863
 4424TIP3    H234764   0.414   0.867   0.111 -1.4380  0.9287  4.8927
 4425TIP3   OH234765   5.680   4.483   4.793 -0.1026  0.4456 -0.2911
 4425TIP3    H134766   5.660   4.472   4.700  0.1149  0.0147 -0.2876
 4425TIP3    H234767   5.599   4.516   4.831 -0.1253  0.8406 -0.6720
 4426TIP3   OH234768   2.057   3.035  14.975  0.1284  0.2620  0.4487
 4426TIP3    H134769   2.147   3.030  14.941 -0.5742 -2.1433 -1.1513
 4426TIP3    H234770   2.057   2.975  15.050 -0.4766 -0.7504 -0.3573
 4427TIP3   OH234771   3.740   3.516   0.484 -0.2304 -0.1926 -0.3824
 4427TIP3    H134772   3.774   3.557   0.563  1.0854 -2.9453  0.5442
 4427TIP3    H234773   3.817   3.505   0.428 -0.3144 -2.5956 -0.0484
 4428TIP3   OH234774   3.631   1.538  11.725  0.1064  0.1892  0.3350
 4428TIP3    H134775   3.641   1.493  11.641 -0.1174 -0.2585  0.5449
 4428TIP3    H234776   3.685   1.617  11.717 -0.2820  0.3889 -0.4044
 4429TIP3   OH234777   0.287   0.334   3.147  0.1444 -0.2602  0.6063
 4429TIP3    H134778   0.268   0.240   3.146  1.4165 -0.5411  0.8857
 4429TIP3    H234779   0.271   0.360   3.238 -1.8923  0.1743  0.1382
 4430TIP3   OH234780   3.790   4.057  16.787  0.2234 -1.1954  0.3807
 4430TIP3    H134781   3.833   4.057  16.872 -1.8496 -0.4425  1.4788
 4430TIP3    H234782   3.696   4.055  16.808 -0.2951 -2.7774 -1.9087
 4431TIP3   OH234783   6.108   6.721   2.793  0.1578 -0.4812  0.6982
 4431TIP3    H134784   6.013   6.718   2.785  0.0766  1.8594  0.4907
 4431TIP3    H234785   6.125   6.702   2.886 -0.5032 -0.7432  0.7659
 4432TIP3   OH234786   4.367   2.562   2.194  0.3418 -0.1697 -0.0609
 4432TIP3    H134787   4.293   2.623   2.199  0.8954  0.4113  1.5112
 4432TIP3    H234788   4.415   2.589   2.116 -1.5469 -1.0845 -1.5819
 4433TIP3   OH234789   1.914   2.021   2.740  0.0444 -0.6170 -0.2390
 4433TIP3    H134790   1.977   2.052   2.675 -0.1508 -0.3021 -0.2838
 4433TIP3    H234791   1.883   1.937   2.705 -0.0588 -0.4504 -0.5542
 4434TIP3   OH234792   4.703   5.325  16.255  0.0569 -0.7198 -0.2610
 4434TIP3    H134793   4.700   5.407  16.305  0.6126 -0.2032 -1.0539
 4434TIP3    H234794   4.770   5.272  16.299 -0.7314 -0.9962  0.6155
 4435TIP3   OH234795   0.514   3.910   4.930 -0.5033  0.2898 -0.0409
 4435TIP3    H134796   0.579   3.938   4.994 -1.6924  0.6997  1.0044
 4435TIP3    H234797   0.474   3.991   4.898  0.8070  0.1629 -2.1042
 4436TIP3   OH234798   1.684   6.741  16.215  0.1568  0.1447  0.4396
 4436TIP3    H134799   1.743   6.764  16.143  0.4239  1.3557  1.0329
 4436TIP3    H234800   1.694   6.647  16.224  1.6341  0.2554  0.2030
 4437TIP3   OH234801   1.119   1.955  11.148 -0.0025  1.0535 -0.0435
 4437TIP3    H134802   1.073   1.878  11.181  1.6391 -0.4474 -1.1354
 4437TIP3    H234803   1.124   1.941  11.053  1.7050  1.7065 -0.0688
 4438TIP3   OH234804   3.527   0.488  13.385 -0.7770  0.7404  0.8748
 4438TIP3    H134805   3.470   0.552  13.428 -0.0965  0.7644  1.7385
 4438TIP3    H234806   3.479   0.463  13.306 -0.9211  2.5476  0.3715
 4439TIP3   OH234807   5.519   4.131   3.925  0.4936 -0.9127 -0.5301
 4439TIP3    H134808   5.600   4.115   3.973  0.2510 -0.9292 -0.1172
 4439TIP3    H234809   5.474   4.198   3.978  0.5491 -0.4064 -1.1170
 4440TIP3   OH234810   0.211   0.002  17.228  0.3869 -0.3558  0.0144
 4440TIP3    H134811   0.216  -0.032  17.317 -0.5284 -2.0184 -0.5479
 4440TIP3    H234812   0.120  -0.013  17.203  0.8014 -0.4752 -1.4243
 4441TIP3   OH234813   6.302   6.644   4.234  0.3111 -0.2757  0.1972
 4441TIP3    H134814   6.357   6.592   4.175  1.9836  1.2640  0.3562
 4441TIP3    H234815   6.327   6.615   4.322  1.5416  1.0309  0.3021
 4442TIP3   OH234816   5.918   2.897  13.766  0.0061 -0.3209 -0.2567
 4442TIP3    H134817   5.925   2.939  13.680  0.3633  0.9225  0.3570
 4442TIP3    H234818   6.008   2.898  13.800 -0.0985 -0.9889  0.0420
 4443TIP3   OH234819   6.271   4.764  13.984  0.4108 -0.2520  0.2981
 4443TIP3    H134820   6.280   4.840  13.926 -1.8266 -0.4979 -0.4299
 4443TIP3    H234821   6.274   4.689  13.924  2.0095 -0.7320  0.9527
 4444TIP3   OH234822   5.385   2.122   3.391 -0.0012  0.0313 -0.1519
 4444TIP3    H134823   5.328   2.120   3.468 -2.0854 -2.9415 -1.6628
 4444TIP3    H234824   5.418   2.032   3.383 -0.0548  0.2138 -2.8880
 4445TIP3   OH234825   2.829   5.885  15.156 -0.0160 -0.1509 -0.1435
 4445TIP3    H134826   2.917   5.847  15.157  0.4152  0.8435 -0.4230
 4445TIP3    H234827   2.836   5.962  15.212 -1.1427 -1.0271  1.2391
 4446TIP3   OH234828   1.107   4.984   6.640  0.3100 -0.0270  0.4417
 4446TIP3    H134829   1.129   4.963   6.549 -2.0424  0.3251 -0.2514
 4446TIP3    H234830   1.011   4.973   6.644  0.1934  1.5511  2.4590
 4447TIP3   OH234831   1.078   2.440  15.077 -0.6219  0.1307 -0.2909
 4447TIP3    H134832   1.042   2.399  14.998 -1.7851 -1.3425  0.9700
 4447TIP3    H234833   1.001   2.470  15.125 -0.0621 -0.9954  1.3510
 4448TIP3   OH234834   2.924   0.894   5.527 -0.3015 -0.1049 -0.6627
 4448TIP3    H134835   2.926   0.957   5.456  0.0121  0.6566  0.0111
 4448TIP3    H234836   2.833   0.894   5.558 -0.8810 -1.8300 -2.2754
 4449TIP3   OH234837   4.611   1.886   4.941  0.1498  0.1919 -0.5606
 4449TIP3    H134838   4.698   1.850   4.925  0.2214  0.5541 -1.0116
 4449TIP3    H234839   4.553   1.832   4.886 -0.0650 -0.7422  0.5494
 4450TIP3   OH234840   3.965   1.244  12.050  0.5391 -0.0796  0.5587
 4450TIP3    H134841   3.995   1.208  11.967 -1.1872 -2.9308  1.1026
 4450TIP3    H234842   3.891   1.300  12.027  1.4609  0.9276 -0.0113
 4451TIP3   OH234843   6.597   6.712  13.651  0.0641 -0.2809 -0.1551
 4451TIP3    H134844   6.640   6.762  13.720  1.8118 -2.7093  0.6041
 4451TIP3    H234845   6.645   6.734  13.572 -0.9016  1.2714 -0.3162
 4452TIP3   OH234846   5.978   4.764   0.667 -0.5853  0.1618 -0.3010
 4452TIP3    H134847   6.032   4.705   0.616  0.7206 -1.5544  2.9417
 4452TIP3    H234848   6.031   4.843   0.678 -0.6956  0.3606 -1.1587
 4453TIP3   OH234849   0.109   3.848  11.118  0.9276  0.2156  0.4577
 4453TIP3    H134850   0.115   3.752  11.116  0.9641  0.2094  0.8991
 4453TIP3    H234851   0.200   3.878  11.111  1.1288  0.1824  2.7577
 4454TIP3   OH234852   5.874   4.259  14.567  0.3274  0.1381  0.2361
 4454TIP3    H134853   5.937   4.290  14.501 -1.0110 -0.1482 -1.2163
 4454TIP3    H234854   5.907   4.294  14.649  2.2106  0.2651 -0.5302
 4455TIP3   OH234855   2.315   0.156  16.325  0.1872 -0.2187 -0.2455
 4455TIP3    H134856   2.394   0.171  16.377  0.1360  1.3726 -0.5753
 4455TIP3    H234857   2.249   0.213  16.365 -1.2444 -2.6513  0.9649
 4456TIP3   OH234858   4.671   1.990   2.260 -0.2715 -0.0804 -0.4170
 4456TIP3    H134859   4.701   1.907   2.298 -2.3696 -1.8501 -2.4728
 4456TIP3    H234860   4.583   2.001   2.295 -0.0245  1.2431 -0.2203
 4457TIP3   OH234861   0.687   2.692   2.885  0.1992 -0.3491 -0.7293
 4457TIP3    H134862   0.743   2.765   2.857  2.7163 -1.1603  1.8854
 4457TIP3    H234863   0.602   2.732   2.901  0.6838  1.4206 -2.3976
 4458TIP3   OH234864   1.262   4.294  14.877  0.2481  0.0190 -0.1679
 4458TIP3    H134865   1.255   4.325  14.787  2.4747 -0.1028 -0.4147
 4458TIP3    H234866   1.234   4.369  14.930  0.0936  0.5099 -0.9375
 4459TIP3   OH234867   0.585   2.324   5.120 -0.6039  0.4647  0.0052
 4459TIP3    H134868   0.637   2.266   5.175 -0.4981  1.9158  1.4811
 4459TIP3    H234869   0.645   2.350   5.050  0.5868  1.8327  1.4940
 4460TIP3   OH234870   5.420   5.321   4.358 -0.2104  0.4509  0.1302
 4460TIP3    H134871   5.431   5.353   4.269  1.9569 -0.1213  0.1631
 4460TIP3    H234872   5.416   5.225   4.349  1.1072  0.3329  0.7443
 4461TIP3   OH234873   0.481   4.396   6.303 -0.1922 -0.1451  0.1972
 4461TIP3    H134874   0.467   4.434   6.216 -1.4496 -0.1416  0.3864
 4461TIP3    H234875   0.394   4.398   6.344  0.6032  0.9156  1.8840
 4462TIP3   OH234876   6.119   5.987  16.485  1.1096  0.3428  0.3474
 4462TIP3    H134877   6.199   6.015  16.441  0.0293  2.3800 -0.4077
 4462TIP3    H234878   6.060   5.961  16.413  0.2284  1.2517  0.7306
 4463TIP3   OH234879   5.853   6.625   5.935 -0.2780 -0.0276 -0.1432
 4463TIP3    H134880   5.871   6.713   5.967  0.4028  0.1602 -0.9959
 4463TIP3    H234881   5.763   6.607   5.961 -0.4251  0.9251  0.0208
 4464TIP3   OH234882   1.281   6.716  12.197 -0.2388 -0.3937 -0.1081
 4464TIP3    H134883   1.327   6.671  12.126 -0.1981  0.4367 -0.6056
 4464TIP3    H234884   1.189   6.718  12.167 -0.5206 -1.5378  0.6255
 4465TIP3   OH234885   3.765   2.094  16.218 -0.1452  0.2462  0.0251
 4465TIP3    H134886   3.744   2.135  16.134 -2.4041 -0.0526  0.4279
 4465TIP3    H234887   3.698   2.027  16.229  1.2751 -1.0133  1.1699
 4466TIP3   OH234888   1.062   0.746   3.561 -0.0568 -0.1747 -0.0405
 4466TIP3    H134889   1.070   0.835   3.528 -0.0255 -0.2560 -0.2509
 4466TIP3    H234890   0.983   0.712   3.519 -1.1829  0.4065  1.5320
 4467TIP3   OH234891   5.389   2.600  13.286  0.2305 -0.5907  0.6617
 4467TIP3    H134892   5.385   2.621  13.379  2.6067 -0.6556  0.8077
 4467TIP3    H234893   5.328   2.661  13.244  1.3373  1.4216  1.9237
 4468TIP3   OH234894   6.132   5.902  14.563  0.1010 -0.3516 -0.0178
 4468TIP3    H134895   6.045   5.866  14.581  0.0013 -0.6438 -1.0477
 4468TIP3    H234896   6.193   5.836  14.598 -0.0799 -1.4110 -1.6613
 4469TIP3   OH234897   2.145   4.484   5.409 -0.0475 -0.1659 -0.3426
 4469TIP3    H134898   2.062   4.452   5.444  0.3638  0.1933  1.0094
 4469TIP3    H234899   2.208   4.413   5.427  0.3517  0.3846  0.4613
 4470TIP3   OH234900   1.607   4.686  14.882  0.4601  0.0910 -0.1923
 4470TIP3    H134901   1.619   4.597  14.848  0.7404  0.0252  0.0731
 4470TIP3    H234902   1.516   4.708  14.861  0.6255  0.0465 -0.9580
 4471TIP3   OH234903   3.234   2.242  11.687  0.0007 -0.0188 -0.5402
 4471TIP3    H134904   3.238   2.212  11.778  1.3676  0.8297 -0.3034
 4471TIP3    H234905   3.210   2.335  11.693 -1.4317 -0.3436 -1.1273
 4472TIP3   OH234906   5.662   2.363   6.225  0.5690 -0.2038  0.2970
 4472TIP3    H134907   5.638   2.290   6.168  2.7751  0.2385 -1.2471
 4472TIP3    H234908   5.578   2.401   6.252 -0.5319 -0.9415 -1.9679
 4473TIP3   OH234909   6.178   2.045  13.185 -0.6778  0.5598 -0.6041
 4473TIP3    H134910   6.091   2.068  13.219 -0.0718  1.1411  0.5700
 4473TIP3    H234911   6.237   2.058  13.259  0.6558  1.7154 -1.8372
 4474TIP3   OH234912   6.122   5.735   5.813  0.4239 -0.2910  0.0953
 4474TIP3    H134913   6.127   5.671   5.884 -1.2041  0.4212  0.8879
 4474TIP3    H234914   6.174   5.809   5.846  1.2730 -0.7048 -0.2928
 4475TIP3   OH234915   6.771   5.556   5.454  0.0878 -0.5731  0.6378
 4475TIP3    H134916   6.798   5.622   5.518 -0.0276 -0.0140  0.1181
 4475TIP3    H234917   6.807   5.587   5.371 -0.3612 -0.9184  0.3087
 4476TIP3   OH234918   4.480   5.229   5.997 -0.4700  0.1665 -0.3686
 4476TIP3    H134919   4.555   5.269   5.953 -0.8580  1.5348  0.2016
 4476TIP3    H234920   4.494   5.135   5.985 -0.8973  0.4857 -3.9923
 4477TIP3   OH234921   6.814   1.490   4.256 -0.0059 -0.5063  0.6311
 4477TIP3    H134922   6.761   1.554   4.208  0.1897 -0.8425 -0.0382
 4477TIP3    H234923   6.766   1.475   4.338 -1.1251 -1.0785 -0.1227
 4478TIP3   OH234924   5.476   4.691  13.526  0.1407 -0.2869  0.4119
 4478TIP3    H134925   5.503   4.767  13.474  0.2019  0.3677  1.3749
 4478TIP3    H234926   5.546   4.627  13.513  0.4175  0.0758  0.1116
 4479TIP3   OH234927   5.101   0.553   3.808 -0.2937 -0.0697  0.4233
 4479TIP3    H134928   5.193   0.555   3.836 -1.1097  0.2402  3.1433
 4479TIP3    H234929   5.100   0.490   3.736  1.9403 -0.5153  0.7381
 4480TIP3   OH234930   3.587   5.663  13.289 -0.7033 -1.1353 -0.0954
 4480TIP3    H134931   3.668   5.617  13.313 -0.4017 -0.3920  0.3451
 4480TIP3    H234932   3.521   5.627  13.349 -0.4010 -0.7754  0.4609
 4481TIP3   OH234933   6.196   0.465  17.153  0.4288 -0.4913  0.2576
 4481TIP3    H134934   6.182   0.442  17.061  0.0845  0.1379  0.1479
 4481TIP3    H234935   6.290   0.480  17.160  0.3360  0.2794 -0.1801
 4482TIP3   OH234936   2.387   0.775  15.716  0.1792  0.2925  0.2401
 4482TIP3    H134937   2.436   0.853  15.689 -0.8867  0.5701 -0.9548
 4482TIP3    H234938   2.333   0.805  15.789 -0.7706  0.8851 -0.6848
 4483TIP3   OH234939   4.772   3.502   1.582 -0.1051 -0.1679 -0.0559
 4483TIP3    H134940   4.727   3.424   1.615 -0.8909  1.2530  2.3699
 4483TIP3    H234941   4.861   3.472   1.565 -0.1298 -1.4179  1.7800
 4484TIP3   OH234942   3.293   2.428  16.854 -0.0151 -0.4653  0.4428
 4484TIP3    H134943   3.293   2.336  16.882  3.2340 -0.4275  0.7624
 4484TIP3    H234944   3.381   2.442  16.819 -0.7409  2.3155 -0.3396
 4485TIP3   OH234945   3.085   5.122  11.477  0.4725  0.4837  0.1906
 4485TIP3    H134946   2.993   5.146  11.464  0.5770  0.7874 -0.0125
 4485TIP3    H234947   3.103   5.059  11.408  0.6808  1.1521 -0.3717
 4486TIP3   OH234948   4.031   5.950  11.916  0.3115 -0.1290 -0.2123
 4486TIP3    H134949   4.073   5.864  11.914  0.7258  0.0576  0.2487
 4486TIP3    H234950   3.982   5.955  11.833  2.4223  0.2599 -1.4723
 4487TIP3   OH234951   6.327   2.492  11.708 -0.2141  0.2176 -0.4062
 4487TIP3    H134952   6.312   2.412  11.758 -1.5563 -0.3391 -1.6572
 4487TIP3    H234953   6.239   2.519  11.679  0.3514  1.4751 -0.9919
 4488TIP3   OH234954   3.032   1.901  12.821  0.4464 -1.1816 -0.0431
 4488TIP3    H134955   2.963   1.903  12.888 -2.0461 -1.3935 -2.5293
 4488TIP3    H234956   3.090   1.830  12.848  0.5172 -0.0812  2.8530
 4489TIP3   OH234957   0.204   6.371  14.675 -0.5682 -0.1060 -0.3189
 4489TIP3    H134958   0.174   6.448  14.723 -0.1913  0.4483 -0.9786
 4489TIP3    H234959   0.184   6.389  14.584 -0.0071 -0.5671 -0.5388
 4490TIP3   OH234960   6.229   6.207  14.426  0.1795 -0.0746  0.1801
 4490TIP3    H134961   6.318   6.197  14.460  0.0603 -0.3324  0.4239
 4490TIP3    H234962   6.231   6.287  14.375  0.0174  1.0955  1.9650
 4491TIP3   OH234963   2.366   5.091   4.481 -0.3834 -0.9930  0.1105
 4491TIP3    H134964   2.312   5.025   4.438 -0.0375 -1.0440 -0.2461
 4491TIP3    H234965   2.451   5.086   4.436 -1.3220  1.9338 -2.1325
 4492TIP3   OH234966   3.558   0.295   2.832  0.4392 -0.3024 -0.0617
 4492TIP3    H134967   3.598   0.269   2.749  0.3376 -1.3584  0.2208
 4492TIP3    H234968   3.475   0.336   2.806  0.2644 -0.8993 -0.4663
 4493TIP3   OH234969   5.925   3.521  15.120 -0.0971 -0.5908  0.6588
 4493TIP3    H134970   5.927   3.614  15.142 -1.3314 -0.3781 -0.0683
 4493TIP3    H234971   5.939   3.477  15.203 -0.8756  0.2352  1.2395
 4494TIP3   OH234972   4.367   4.322   1.778  0.4232 -0.4394  0.9910
 4494TIP3    H134973   4.445   4.352   1.732  1.0331 -0.6612  1.8670
 4494TIP3    H234974   4.333   4.401   1.821  0.7888 -0.5597  1.5051
 4495TIP3   OH234975   3.971   1.035  17.257 -0.2423 -0.2787 -0.1774
 4495TIP3    H134976   3.947   1.127  17.242 -0.2195 -0.3786 -0.8164
 4495TIP3    H234977   4.066   1.037  17.268 -0.0482 -0.4294 -1.7539
 4496TIP3   OH234978   1.175   5.782   2.808 -0.0473  0.0870 -0.5831
 4496TIP3    H134979   1.171   5.753   2.717  0.6595 -0.6759 -0.3751
 4496TIP3    H234980   1.123   5.863   2.809 -0.5682 -0.2208 -1.5310
 4497TIP3   OH234981   3.168   4.630  16.935 -0.3471  0.3103 -0.6147
 4497TIP3    H134982   3.150   4.560  16.873 -0.7759 -1.1839  1.1805
 4497TIP3    H234983   3.208   4.587  17.010 -3.2762  1.5438  1.7581
 4498TIP3   OH234984   0.054   1.127  13.703  0.1889  0.4944 -0.0278
 4498TIP3    H134985  -0.006   1.055  13.684 -0.2772  0.3160  2.0280
 4498TIP3    H234986   0.121   1.089  13.760 -0.1515  1.7115  1.2085
 4499TIP3   OH234987   5.178   6.290   4.804  0.0633 -0.4841  0.3929
 4499TIP3    H134988   5.252   6.235   4.831  0.5747  0.4977  1.0036
 4499TIP3    H234989   5.218   6.370   4.772 -0.8110  0.9661  2.8291
 4500TIP3   OH234990   2.871   5.182  12.092  0.0227 -0.3189 -0.3788
 4500TIP3    H134991   2.790   5.233  12.102 -0.2955 -0.9326  0.2630
 4500TIP3    H234992   2.859   5.135  12.010  0.6737  1.2547 -1.3929
 4501TIP3   OH234993   4.154   5.785  15.009 -0.2651 -0.3034 -0.2366
 4501TIP3    H134994   4.193   5.872  15.003  0.4862 -0.6387 -0.3143
 4501TIP3    H234995   4.210   5.730  14.954  0.4032 -1.2231  1.3228
 4502TIP3   OH234996   0.547   2.328  16.573 -0.9562 -0.0116 -0.6041
 4502TIP3    H134997   0.614   2.379  16.528  0.0471  0.0346  0.8961
 4502TIP3    H234998   0.494   2.394  16.620 -0.5068 -0.2319  0.2258
 4503TIP3   OH234999   0.528   4.867   5.293 -0.4723  0.5018 -0.2229
 4503TIP3    H135000   0.470   4.792   5.279 -0.9607  0.8074  0.1283
 4503TIP3    H235001   0.469   4.937   5.323  0.2871  0.3643  1.6436
 4504TIP3   OH235002   3.599   2.797  12.215 -0.1844  0.4637 -0.2148
 4504TIP3    H135003   3.520   2.833  12.256 -0.7423  0.7119 -1.4879
 4504TIP3    H235004   3.569   2.763  12.131  0.8677 -0.4465 -0.2299
 4505TIP3   OH235005   2.490   2.455   3.773  0.1038  0.8329  0.0053
 4505TIP3    H135006   2.436   2.457   3.853  0.1606  1.1845  0.0340
 4505TIP3    H235007   2.444   2.513   3.712 -0.1320  0.2816 -0.3427
 4506TIP3   OH235008   1.394   3.209  12.715 -0.1371 -0.3966  0.2431
 4506TIP3    H135009   1.321   3.151  12.737  0.2882 -1.2033 -0.4476
 4506TIP3    H235010   1.376   3.237  12.625  0.5560 -0.8294 -0.0311
 4507TIP3   OH235011   5.141   4.053  14.968 -0.1006  0.3213  0.2440
 4507TIP3    H135012   5.176   4.055  14.879 -0.1889 -0.1761  0.1977
 4507TIP3    H235013   5.121   4.145  14.987  0.2669  0.4767 -0.1088
 4508TIP3   OH235014   0.585   6.440  12.266  0.0556  0.8718  0.2694
 4508TIP3    H135015   0.564   6.443  12.359  0.7530 -2.3657  0.5986
 4508TIP3    H235016   0.507   6.402  12.226  1.4392 -2.0867  0.2168
 4509TIP3   OH235017   1.575   1.675   5.172  0.3030  0.3431 -0.4098
 4509TIP3    H135018   1.639   1.653   5.104  0.1065 -0.6414 -0.2823
 4509TIP3    H235019   1.526   1.594   5.186 -2.9947  1.8101 -2.6647
 4510TIP3   OH235020   5.723   4.379  15.215 -0.0139 -0.0940 -0.2325
 4510TIP3    H135021   5.644   4.348  15.258 -1.0367  1.1894 -1.1701
 4510TIP3    H235022   5.720   4.474  15.224  3.6701 -0.1812  3.6179
 4511TIP3   OH235023   3.492   1.010  11.789 -0.2203 -0.2113 -0.6176
 4511TIP3    H135024   3.489   1.044  11.878 -1.1042  0.4542 -0.8975
 4511TIP3    H235025   3.479   1.086  11.733 -1.0036 -0.8119 -1.2789
 4512TIP3   OH235026   1.183   1.922  17.167  0.0891 -0.1362  0.3220
 4512TIP3    H135027   1.203   1.962  17.251 -2.5851  1.2261  0.3554
 4512TIP3    H235028   1.149   1.836  17.188  1.4487 -0.6535  0.4862
 4513TIP3   OH235029   0.785   4.352   4.893 -0.2311  0.5629  0.2791
 4513TIP3    H135030   0.841   4.289   4.849 -0.3986  1.1220 -0.7762
 4513TIP3    H235031   0.784   4.325   4.985  1.5598  0.4180  0.2654
 4514TIP3   OH235032   5.688   6.552  13.087 -0.3089  0.4173  0.0258
 4514TIP3    H135033   5.615   6.536  13.027 -0.6364  0.8300  0.3075
 4514TIP3    H235034   5.654   6.616  13.149 -1.2020 -2.7534  2.9113
 4515TIP3   OH235035   2.254   4.344   0.715  0.5262  0.3700 -0.0168
 4515TIP3    H135036   2.197   4.267   0.706  0.5772  0.2111  0.9441
 4515TIP3    H235037   2.195   4.413   0.746  0.5135  0.6811 -0.7216
 4516TIP3   OH235038   2.096   4.807  15.936 -0.0491  1.4004  0.4368
 4516TIP3    H135039   2.171   4.754  15.962 -1.5178  0.4267  2.8221
 4516TIP3    H235040   2.053   4.755  15.868 -0.0198  0.7651  0.8989
 4517TIP3   OH235041   0.259   5.127   0.015 -0.5564  0.8143  0.0952
 4517TIP3    H135042   0.186   5.184  -0.009 -0.2745  1.0472 -0.2077
 4517TIP3    H235043   0.259   5.128   0.111 -3.3766 -2.2466  0.2098
 4518TIP3   OH235044   5.922   2.932   1.170  0.2567  0.0012  0.5022
 4518TIP3    H135045   6.010   2.945   1.204 -0.1082  1.9873  0.7536
 4518TIP3    H235046   5.903   2.839   1.186  0.8146  0.4288  3.9856
 4519TIP3   OH235047   2.078   2.196  14.473 -0.2530  0.2054 -0.4048
 4519TIP3    H135048   2.025   2.148  14.536 -1.8962 -1.5056 -3.0097
 4519TIP3    H235049   2.161   2.212  14.518 -0.9592 -1.9770  1.7534
 4520TIP3   OH235050   4.912   4.444   5.445 -0.6445 -0.0197 -0.1204
 4520TIP3    H135051   4.945   4.361   5.408  1.3398  0.4000  0.6277
 4520TIP3    H235052   4.867   4.486   5.372 -0.2198 -0.9975 -0.9653
 4521TIP3   OH235053   3.806   4.549  14.704 -0.2082 -0.2653 -0.2027
 4521TIP3    H135054   3.757   4.490  14.761  2.0955 -0.9798  1.1185
 4521TIP3    H235055   3.816   4.500  14.622 -0.4711 -0.6898  0.0178
 4522TIP3   OH235056   4.392   0.803  13.513  0.2013  0.5435  0.7434
 4522TIP3    H135057   4.483   0.833  13.504  0.3647 -0.0148  0.4620
 4522TIP3    H235058   4.346   0.843  13.440  0.4283  0.0797  0.3388
 4523TIP3   OH235059   2.016   0.799   0.172  0.4761  0.2661 -0.2910
 4523TIP3    H135060   2.068   0.876   0.196 -0.9136  0.5996  1.7633
 4523TIP3    H235061   1.947   0.833   0.116  0.5326  0.3259 -0.3247
 4524TIP3   OH235062   1.046   0.433  15.005 -0.0183  0.2187  0.0329
 4524TIP3    H135063   1.018   0.362  15.063  1.6233 -0.3914  0.1155
 4524TIP3    H235064   1.054   0.391  14.919  0.8196  0.3377  0.0513
 4525TIP3   OH235065   0.308   4.275   3.411  0.2020 -0.0195  0.3386
 4525TIP3    H135066   0.283   4.354   3.362  1.6029 -1.0358 -2.1065
 4525TIP3    H235067   0.236   4.214   3.397  0.3453 -0.1123  0.0075
 4526TIP3   OH235068   4.931   1.323   1.799 -0.0152  0.0752 -0.0083
 4526TIP3    H135069   4.957   1.308   1.890 -1.0080  0.9304  0.4303
 4526TIP3    H235070   4.917   1.418   1.794 -1.6050 -0.1794 -0.5951
 4527TIP3   OH235071   3.481   1.654  16.235  0.1763  0.0629 -0.0054
 4527TIP3    H135072   3.522   1.630  16.318  0.5931 -1.0119 -0.5143
 4527TIP3    H235073   3.478   1.572  16.185 -0.2934  0.6514 -0.9540
 4528TIP3   OH235074   5.230   0.257   0.481 -0.1261 -0.2369  0.2104
 4528TIP3    H135075   5.282   0.280   0.558 -1.9187  1.6576  0.8910
 4528TIP3    H235076   5.283   0.288   0.407  0.5531 -0.0025  0.7870
 4529TIP3   OH235077   5.150   0.745   1.396 -0.7174 -0.6445 -0.1947
 4529TIP3    H135078   5.087   0.816   1.412 -3.0234 -2.1450 -2.1367
 4529TIP3    H235079   5.112   0.670   1.442  0.1433 -1.3194 -0.5812
 4530TIP3   OH235080   0.647   1.953   4.803  0.6031 -0.0338  0.3786
 4530TIP3    H135081   0.711   1.977   4.869  1.4620  0.2360 -0.5344
 4530TIP3    H235082   0.606   1.873   4.835 -0.1308  0.9677  2.0034
 4531TIP3   OH235083   5.225   1.066  12.628 -0.2575  0.7434  0.2948
 4531TIP3    H135084   5.195   0.981  12.596 -1.7354  1.4683 -0.2698
 4531TIP3    H235085   5.151   1.102  12.675 -0.3159  2.5696 -1.1364
 4532TIP3   OH235086   0.428   5.897  12.643  0.2862  0.7671 -0.2774
 4532TIP3    H135087   0.436   5.992  12.633 -1.7772  1.1032  1.1075
 4532TIP3    H235088   0.502   5.873  12.699  1.7660  1.2989 -1.9416
 4533TIP3   OH235089   6.135   6.681   2.013 -0.2266 -0.2473  0.1897
 4533TIP3    H135090   6.165   6.591   2.027  0.4232 -0.0736 -0.0729
 4533TIP3    H235091   6.068   6.694   2.080 -0.3738 -0.9516  0.1833
 4534TIP3   OH235092   1.616   0.382   6.587  0.0551  0.0413  0.1204
 4534TIP3    H135093   1.586   0.321   6.655 -2.5500  3.4277  2.1838
 4534TIP3    H235094   1.564   0.358   6.510 -0.1430 -1.0442  0.5694
 4535TIP3   OH235095   4.452   0.109   2.345 -0.2527  0.5807  0.3768
 4535TIP3    H135096   4.409   0.107   2.431  2.2801 -1.2666  1.7074
 4535TIP3    H235097   4.541   0.140   2.364  0.3649  0.0706 -1.5572
 4536TIP3   OH235098   1.727   1.984   5.434 -0.1175 -0.2749  0.0239
 4536TIP3    H135099   1.784   1.907   5.441  2.6054  1.8494  2.5697
 4536TIP3    H235100   1.665   1.975   5.507  0.5850  0.2060  0.6911
 4537TIP3   OH235101   4.979   5.660   3.348 -0.3042 -0.0755  0.0222
 4537TIP3    H135102   4.998   5.591   3.284  2.7046 -1.8345  2.6870
 4537TIP3    H235103   5.049   5.724   3.336 -2.3891  1.9752 -1.5800
 4538TIP3   OH235104   2.578   2.590   6.564 -0.1759 -0.2484 -0.1676
 4538TIP3    H135105   2.657   2.543   6.592  1.0740  1.3978 -0.8633
 4538TIP3    H235106   2.523   2.593   6.643  2.0600  1.8106  1.4064
 4539TIP3   OH235107   2.894   4.125  14.764 -0.1398 -0.1163 -0.0037
 4539TIP3    H135108   2.904   4.122  14.859 -2.1432  2.2464  0.3576
 4539TIP3    H235109   2.799   4.129  14.750  0.1087 -0.8453 -2.1289
 4540TIP3   OH235110   3.116   4.505  13.293 -0.2082 -0.6942 -0.3708
 4540TIP3    H135111   3.047   4.552  13.246  0.5909  1.1351  0.2485
 4540TIP3    H235112   3.078   4.485  13.379  0.2734  1.0147  0.2616
 4541TIP3   OH235113   0.222   3.146   5.704 -0.7681 -0.3088  0.4359
 4541TIP3    H135114   0.259   3.169   5.789 -1.2479 -2.1684  1.1708
 4541TIP3    H235115   0.251   3.056   5.689 -0.2425  0.1833 -1.6290
 4542TIP3   OH235116   4.953   2.278   5.098 -0.2626 -0.0652 -0.0677
 4542TIP3    H135117   4.883   2.222   5.064  1.5922 -2.5854  0.1387
 4542TIP3    H235118   4.949   2.266   5.193 -0.7110  1.2194  0.0842
 4543TIP3   OH235119   2.293   2.485  13.423 -0.6286 -0.5311  0.7576
 4543TIP3    H135120   2.241   2.466  13.345  1.8013 -2.2882 -0.4740
 4543TIP3    H235121   2.357   2.550  13.395  0.5397 -1.4894  1.1314
 4544TIP3   OH235122   5.737   0.324  15.306  0.1712 -0.1529  0.4534
 4544TIP3    H135123   5.704   0.384  15.239 -0.7318 -2.3616 -1.1502
 4544TIP3    H235124   5.661   0.303  15.360  0.5508  0.3904  1.1998
 4545TIP3   OH235125   1.461   6.436  15.754  0.5024  0.3727  0.1301
 4545TIP3    H135126   1.498   6.383  15.684  0.1366 -0.3374  0.4706
 4545TIP3    H235127   1.535   6.453  15.812  0.2794 -1.1745  0.8886
 4546TIP3   OH235128   0.036   5.191   1.699 -0.2729  0.3213 -0.5280
 4546TIP3    H135129   0.127   5.176   1.676  0.0103 -0.3113  0.9137
 4546TIP3    H235130   0.012   5.272   1.654  1.7010  1.7458  0.8770
 4547TIP3   OH235131   5.891   5.187   2.506  0.4589 -0.1335 -0.1709
 4547TIP3    H135132   5.937   5.269   2.525  1.1722 -0.0612 -2.1015
 4547TIP3    H235133   5.956   5.132   2.463 -0.7316 -0.7307 -1.2617
 4548TIP3   OH235134   5.997   1.981   5.148 -0.3797 -0.0604 -0.4172
 4548TIP3    H135135   6.021   1.939   5.066 -1.7665  0.0461 -0.8971
 4548TIP3    H235136   6.000   2.075   5.129  0.1797 -0.0043 -0.0801
 4549TIP3   OH235137   4.418   4.952   0.722  0.2134  0.1094 -0.5368
 4549TIP3    H135138   4.468   4.906   0.789  1.3483 -0.2249 -1.5966
 4549TIP3    H235139   4.396   5.036   0.762  0.2635 -0.3639  0.5120
 4550TIP3   OH235140   4.305   4.656   5.289 -0.2428 -0.0252  0.5073
 4550TIP3    H135141   4.310   4.704   5.206  2.0713  0.4250  0.8675
 4550TIP3    H235142   4.217   4.675   5.322  0.1555  2.9411  0.0140
 4551TIP3   OH235143   5.379   2.447   1.676 -0.1775  0.3949 -1.1284
 4551TIP3    H135144   5.466   2.481   1.659 -0.7472  2.7917  0.4714
 4551TIP3    H235145   5.358   2.478   1.764 -2.8494  0.2838 -1.6815
 4552TIP3   OH235146   0.764   3.883  17.027  0.5208  0.3050  0.7181
 4552TIP3    H135147   0.798   3.824  17.094 -0.3794 -0.0217  0.8920
 4552TIP3    H235148   0.754   3.829  16.949  3.6448  1.1563 -0.3536
 4553TIP3   OH235149   5.911   6.476  14.331  0.4844 -0.0380  0.1078
 4553TIP3    H135150   5.997   6.514  14.316  1.9808 -3.2139  0.3687
 4553TIP3    H235151   5.855   6.517  14.265  2.2573  1.7036 -0.3755
 4554TIP3   OH235152   1.197   2.681  14.842  0.3382  0.5614  0.0259
 4554TIP3    H135153   1.136   2.744  14.881 -0.5477 -0.6634  0.6643
 4554TIP3    H235154   1.140   2.623  14.790  1.1952  0.5971 -0.9519
 4555TIP3   OH235155   3.543   1.272   1.862 -0.0331 -0.6378 -0.1466
 4555TIP3    H135156   3.560   1.184   1.830 -0.5355  0.0683 -2.5213
 4555TIP3    H235157   3.593   1.279   1.943  2.2062 -2.2085 -1.3207
 4556TIP3   OH235158   1.577   1.128  11.118  0.0773 -0.1310 -0.1261
 4556TIP3    H135159   1.663   1.168  11.117  0.4410 -0.7896  1.8063
 4556TIP3    H235160   1.516   1.201  11.118  0.5895  0.3202 -2.8556
 4557TIP3   OH235161   5.331   4.726  16.451 -0.0292  0.3755 -0.1795
 4557TIP3    H135162   5.410   4.692  16.493  0.2681  0.0226 -0.9996
 4557TIP3    H235163   5.302   4.654  16.394  0.8465  1.6012 -2.2590
 4558TIP3   OH235164   2.167   1.695  13.040 -0.1713 -0.3046  0.1061
 4558TIP3    H135165   2.241   1.754  13.028  0.2778 -0.8436  0.1885
 4558TIP3    H235166   2.120   1.697  12.956 -0.4092  0.5015  0.2549
 4559TIP3   OH235167   0.342   5.327   2.705  1.0967  0.2171  0.0855
 4559TIP3    H135168   0.325   5.260   2.771  1.7019  1.5816  1.6603
 4559TIP3    H235169   0.414   5.379   2.741 -0.5347  2.8055 -0.2644
 4560TIP3   OH235170   4.300   2.745  15.486 -0.5166 -0.3973 -0.3411
 4560TIP3    H135171   4.234   2.799  15.530 -0.4072  0.5511 -1.3000
 4560TIP3    H235172   4.275   2.655  15.504 -1.3197 -0.0289  0.3975
 4561TIP3   OH235173   4.998   0.115  13.572 -0.4214 -0.3639 -0.2071
 4561TIP3    H135174   5.018   0.167  13.494  1.5032  2.6973  2.1864
 4561TIP3    H235175   5.080   0.071  13.592 -0.7463 -0.6881  0.3994
 4562TIP3   OH235176   2.935   0.149   2.227 -0.4536 -0.7967 -0.4166
 4562TIP3    H135177   2.930   0.235   2.270 -0.8927 -1.0594  0.0650
 4562TIP3    H235178   3.026   0.143   2.198 -0.9358  0.7218 -2.3383
 4563TIP3   OH235179   3.993   5.311  11.764  0.1099 -0.8387 -0.5457
 4563TIP3    H135180   3.944   5.296  11.845  0.5416 -2.2224 -0.5277
 4563TIP3    H235181   4.049   5.386  11.782  0.5843 -1.4689  0.6119
 4564TIP3   OH235182   5.431   2.680   0.529  0.3599 -0.1263  0.2894
 4564TIP3    H135183   5.354   2.629   0.554 -0.8041  0.4867 -1.9703
 4564TIP3    H235184   5.494   2.615   0.497 -0.2375 -0.3697 -0.3897
 4565TIP3   OH235185   4.044   3.162  14.882  0.3399 -0.1774  0.2173
 4565TIP3    H135186   4.042   3.172  14.787  0.6648 -1.4619  0.0619
 4565TIP3    H235187   3.984   3.229  14.915  1.0803  1.0266 -0.8266
 4566TIP3   OH235188   2.259   6.694  14.061 -0.2380  0.2023  0.2642
 4566TIP3    H135189   2.271   6.759  14.130  0.7911 -0.2315  0.4990
 4566TIP3    H235190   2.347   6.674  14.032 -0.6596  0.2727 -1.0890
 4567TIP3   OH235191   4.036   3.252  16.325  0.3933 -0.1429  0.4189
 4567TIP3    H135192   4.108   3.298  16.282  0.2624 -0.7086 -0.4201
 4567TIP3    H235193   3.972   3.320  16.343 -0.4390 -0.1732 -2.1456
 4568TIP3   OH235194   0.330   0.169   1.791  0.8990 -0.1683  0.4330
 4568TIP3    H135195   0.372   0.224   1.857 -0.4078 -1.2813  2.2393
 4568TIP3    H235196   0.353   0.079   1.816  0.3983 -0.5918 -0.6147
 4569TIP3   OH235197   4.463   6.161   0.752 -0.5618 -0.2849  0.2226
 4569TIP3    H135198   4.382   6.113   0.764 -0.4992 -0.4764 -0.1151
 4569TIP3    H235199   4.458   6.234   0.814 -0.9327 -0.3718  0.2904
 4570TIP3   OH235200   6.520   0.636  13.162  0.3719  0.0103 -0.0309
 4570TIP3    H135201   6.606   0.635  13.206 -0.2306  1.3796  1.2195
 4570TIP3    H235202   6.521   0.716  13.110 -0.4462  0.4345  0.6030
 4571TIP3   OH235203   3.284   0.180   5.975 -0.6167  0.1150 -0.2327
 4571TIP3    H135204   3.231   0.109   6.011 -0.2847 -0.6033 -1.1480
 4571TIP3    H235205   3.286   0.246   6.045 -2.3213 -0.0502 -0.0085
 4572TIP3   OH235206   2.593   0.396  11.452 -0.0960 -0.5515 -0.1724
 4572TIP3    H135207   2.620   0.360  11.367  0.9807 -1.5784  0.5860
 4572TIP3    H235208   2.609   0.490  11.444 -2.0669 -0.3153 -1.8558
 4573TIP3   OH235209   2.915   6.185  17.118 -0.1335  0.3881  0.7090
 4573TIP3    H135210   2.872   6.105  17.150 -0.4571 -0.1994 -1.0957
 4573TIP3    H235211   3.007   6.161  17.111 -0.1797  0.2753  0.4828
 4574TIP3   OH235212   4.598   1.393   4.850  0.3582 -0.0284 -0.3613
 4574TIP3    H135213   4.519   1.356   4.889  0.7399 -0.5680 -0.0868
 4574TIP3    H235214   4.638   1.444   4.921  0.3923  0.0219 -0.4172
 4575TIP3   OH235215   5.181   3.823   1.267 -0.1268 -0.1667 -0.0669
 4575TIP3    H135216   5.122   3.852   1.337 -0.2328  0.3104 -0.3479
 4575TIP3    H235217   5.242   3.763   1.310  0.8157  1.3530  0.7789
 4576TIP3   OH235218   0.104   3.521  11.611  0.0615 -0.5826 -0.0445
 4576TIP3    H135219   0.109   3.603  11.562  1.6382  0.1231  1.2400
 4576TIP3    H235220   0.013   3.492  11.602 -1.0315  2.3159  1.0911
 4577TIP3   OH235221   2.659   3.895   0.866  0.2454  0.3003  0.5050
 4577TIP3    H135222   2.696   3.982   0.852  0.7837  0.0471  0.3700
 4577TIP3    H235223   2.588   3.910   0.929  0.4476  0.8130  0.6160
 4578TIP3   OH235224   0.924   4.253  11.532 -0.2214 -0.1601  0.2230
 4578TIP3    H135225   1.017   4.257  11.510 -0.0776  0.5672  0.9635
 4578TIP3    H235226   0.902   4.160  11.524  0.7155 -0.4227  0.6705
 4579TIP3   OH235227   0.773   5.929   1.309  0.3590  0.0087  0.4898
 4579TIP3    H135228   0.755   6.009   1.358  2.2376  0.1690  0.9700
 4579TIP3    H235229   0.771   5.860   1.375 -0.9891 -0.3127  0.1211
 4580TIP3   OH235230   2.946   5.147  12.951  0.0414 -0.1682  0.6125
 4580TIP3    H135231   2.859   5.187  12.964  0.6249  0.7596  1.7562
 4580TIP3    H235232   2.964   5.160  12.858 -1.0574 -0.3758  0.3683
 4581TIP3   OH235233   4.560   6.549   0.753  0.0442  0.3718  0.6815
 4581TIP3    H135234   4.649   6.516   0.761  0.9159  1.6352 -2.8321
 4581TIP3    H235235   4.537   6.533   0.661 -2.6684  1.7218  1.0797
 4582TIP3   OH235236   1.204   2.155   6.105 -0.2575  0.5306  0.4595
 4582TIP3    H135237   1.262   2.147   6.181  0.3765  0.5453 -0.0153
 4582TIP3    H235238   1.116   2.156   6.141  0.0800  1.5339  1.2794
 4583TIP3   OH235239   0.511   3.435   3.017  0.4783 -0.2130 -0.9162
 4583TIP3    H135240   0.527   3.525   3.044 -2.1010  0.5207 -1.6620
 4583TIP3    H235241   0.428   3.439   2.969  0.0929 -3.0580 -0.5656
 4584TIP3   OH235242   6.505   2.554   5.097  0.3058 -0.4021 -0.1400
 4584TIP3    H135243   6.420   2.594   5.076  0.6568 -0.2391 -1.2647
 4584TIP3    H235244   6.522   2.495   5.024  1.9148  0.7618 -0.7327
 4585TIP3   OH235245   4.204   6.455   2.964  0.3423  0.1120  0.1371
 4585TIP3    H135246   4.127   6.478   3.016  0.5741 -2.8083  1.8720
 4585TIP3    H235247   4.202   6.360   2.960  3.5104  0.0304 -0.3424
 4586TIP3   OH235248   6.240   6.687   5.841  0.3600 -0.0399 -0.6929
 4586TIP3    H135249   6.162   6.670   5.788  0.1204  0.2632 -0.4416
 4586TIP3    H235250   6.312   6.688   5.778  0.2828 -1.2752 -0.8004
 4587TIP3   OH235251   1.221   0.012   0.969  0.1435  0.8591 -0.1583
 4587TIP3    H135252   1.311  -0.010   0.995 -0.1390  1.3236  1.2665
 4587TIP3    H235253   1.220   0.107   0.965  0.2778  0.7842 -2.3068
 4588TIP3   OH235254   5.899   2.275  16.476 -0.1652  0.3856 -0.1631
 4588TIP3    H135255   5.896   2.188  16.517 -0.6291  0.6052  0.2796
 4588TIP3    H235256   5.989   2.284  16.445 -0.1573 -0.3180 -0.3539
 4589TIP3   OH235257   3.543   2.559  12.430  0.0861  0.4090 -0.2365
 4589TIP3    H135258   3.461   2.587  12.471  0.6909  0.3737  1.0361
 4589TIP3    H235259   3.517   2.529  12.343 -1.0016  1.9956 -0.4837
 4590TIP3   OH235260   6.460   0.277   5.576 -0.4352  0.1204 -0.0022
 4590TIP3    H135261   6.526   0.327   5.530 -0.1318 -0.4946 -0.2433
 4590TIP3    H235262   6.434   0.209   5.514 -1.4503  0.4884  0.0088
 4591TIP3   OH235263   5.561   0.858   5.051  0.6550  0.7331  0.1027
 4591TIP3    H135264   5.499   0.810   4.997  1.7248 -1.0155  0.4136
 4591TIP3    H235265   5.510   0.884   5.128 -0.3601  1.5756 -0.8380
 4592TIP3   OH235266   4.440   4.455  16.661  0.2000 -0.5889  0.6499
 4592TIP3    H135267   4.363   4.400  16.642  1.0161 -0.7998 -2.3167
 4592TIP3    H235268   4.406   4.524  16.717 -2.4619 -0.0359 -1.5398
 4593TIP3   OH235269   1.225   4.670  14.434  0.3750  0.2326 -0.3681
 4593TIP3    H135270   1.198   4.608  14.367  0.6559 -0.7264  0.3968
 4593TIP3    H235271   1.318   4.651  14.448  1.0561  2.3588 -1.7633
 4594TIP3   OH235272   1.985   0.773  16.545 -0.2684 -0.0446 -0.4807
 4594TIP3    H135273   1.956   0.689  16.510 -1.7060  0.6900 -1.1123
 4594TIP3    H235274   1.995   0.759  16.639 -1.7175 -0.5926 -0.4055
 4595TIP3   OH235275   4.137   0.174   3.732  0.0158 -0.8028  0.5712
 4595TIP3    H135276   4.148   0.224   3.651 -0.1398 -1.7194 -0.0268
 4595TIP3    H235277   4.169   0.233   3.801  1.6281 -0.5852 -0.3262
 4596TIP3   OH235278   5.299   0.340   0.178  0.3044 -0.2515 -0.1381
 4596TIP3    H135279   5.378   0.371   0.220  0.7990  0.1833 -1.3535
 4596TIP3    H235280   5.315   0.247   0.161  0.3329 -0.2936  0.1275
 4597TIP3   OH235281   5.331   2.485   5.815 -0.5881 -0.1004 -0.9865
 4597TIP3    H135282   5.313   2.443   5.899 -1.0155 -0.2955 -1.1695
 4597TIP3    H235283   5.299   2.423   5.750 -0.5802  0.2008 -1.2820
 4598TIP3   OH235284   3.232   4.365  11.424 -0.2737  0.5039  0.2324
 4598TIP3    H135285   3.214   4.275  11.399  2.2888 -0.0360  0.1967
 4598TIP3    H235286   3.235   4.413  11.341 -0.4489  0.3850  0.1570
 4599TIP3   OH235287   2.065   3.893  15.299  0.7108 -0.1898 -0.2312
 4599TIP3    H135288   2.146   3.914  15.253  0.5412  1.4435  0.1995
 4599TIP3    H235289   2.094   3.872  15.388  0.7489 -0.5799 -0.3332
 4600TIP3   OH235290   6.544   3.837  17.078  0.3742  0.4409 -0.0259
 4600TIP3    H135291   6.452   3.857  17.098  0.0269 -1.5969  0.5727
 4600TIP3    H235292   6.555   3.865  16.987 -0.4762  1.8757  0.3076
 4601TIP3   OH235293   5.124   0.928   0.391 -1.5723  0.0216  0.1671
 4601TIP3    H135294   5.199   0.880   0.354 -0.7476  0.4912  1.2175
 4601TIP3    H235295   5.162   0.983   0.459 -2.8870  0.2493  0.7294
 4602TIP3   OH235296   2.727   2.438   4.288  0.0754 -0.6492  0.1674
 4602TIP3    H135297   2.696   2.486   4.365  2.0592  1.0103 -0.0010
 4602TIP3    H235298   2.810   2.399   4.316  2.3361  2.3834 -1.8632
 4603TIP3   OH235299   4.183   3.131   1.492 -0.5474 -0.0503  0.1075
 4603TIP3    H135300   4.173   3.174   1.407  0.0877  0.6917  0.3988
 4603TIP3    H235301   4.226   3.197   1.547  0.8632 -1.2242  0.4321
 4604TIP3   OH235302   2.078   0.032  12.643  0.3897  0.3202  0.3141
 4604TIP3    H135303   2.155   0.034  12.586  1.2483 -3.5868  1.1746
 4604TIP3    H235304   2.005   0.014  12.585  0.9106 -1.1967  0.1092
 4605TIP3   OH235305   5.978   0.488   7.043 -0.1887  0.1886  0.2736
 4605TIP3    H135306   6.043   0.422   7.018  0.7152  0.3838  2.0287
 4605TIP3    H235307   5.911   0.482   6.975  0.9480 -1.0245 -0.7814
 4606TIP3   OH235308   5.766   6.792   5.028 -0.7299 -0.4338  0.1117
 4606TIP3    H135309   5.723   6.876   5.013 -2.0591 -0.8310  1.5807
 4606TIP3    H235310   5.770   6.784   5.123 -0.0151 -1.7456 -0.0159
 4607TIP3   OH235311   4.537   4.576   5.747 -0.0699  0.9115 -0.0302
 4607TIP3    H135312   4.580   4.497   5.712  0.1180  1.2871 -0.6529
 4607TIP3    H235313   4.543   4.566   5.842  0.4928  0.4653 -0.1056
 4608TIP3   OH235314   2.986   4.027  11.484  0.1602  0.2093  0.2033
 4608TIP3    H135315   2.896   3.996  11.490 -0.6807  2.1641 -1.7368
 4608TIP3    H235316   2.982   4.101  11.422  3.1858 -0.0952 -0.4176
 4609TIP3   OH235317   2.701   1.069   2.339 -0.0495  0.4723 -0.0469
 4609TIP3    H135318   2.656   0.998   2.385  0.1330 -0.5598 -1.4227
 4609TIP3    H235319   2.714   1.136   2.406  0.0440 -0.9036  1.3613
 4610TIP3   OH235320   3.083   1.465   3.423 -0.2441 -0.5834 -0.1845
 4610TIP3    H135321   3.019   1.518   3.471 -1.7189 -1.3792 -1.2143
 4610TIP3    H235322   3.166   1.479   3.469 -1.1931  0.3413  1.2791
 4611TIP3   OH235323   2.854   1.371  12.877 -0.2013 -0.3990  0.4523
 4611TIP3    H135324   2.894   1.424  12.946  1.7118  1.6287 -2.1030
 4611TIP3    H235325   2.915   1.298  12.864 -0.7274 -0.9588  1.1348
 4612TIP3   OH235326   4.870   0.036   2.105  0.0016  0.8190 -0.7737
 4612TIP3    H135327   4.822  -0.031   2.057 -1.8148 -0.0955  2.1548
 4612TIP3    H235328   4.942  -0.012   2.147 -0.4585  0.9113  0.1532
 4613TIP3   OH235329   3.591   1.433   2.367  0.0410 -0.3627 -0.3431
 4613TIP3    H135330   3.546   1.354   2.336  0.7584 -0.7354 -0.4440
 4613TIP3    H235331   3.674   1.434   2.319  0.7138 -0.3787  0.7957
 4614TIP3   OH235332   3.972   4.386  13.138 -0.1483  0.2730  0.0751
 4614TIP3    H135333   4.024   4.311  13.110 -0.9656 -1.1847  2.4114
 4614TIP3    H235334   4.005   4.408  13.225 -2.2585  0.4333  0.8654
 4615TIP3   OH235335   2.802   3.014  16.373 -0.0414 -0.3224  0.2896
 4615TIP3    H135336   2.760   3.053  16.450  0.3211  0.9332 -0.1457
 4615TIP3    H235337   2.895   3.010  16.395  0.0340 -0.1625 -0.0026
 4616TIP3   OH235338   0.671   1.635  11.696 -0.3374  0.0153 -0.2522
 4616TIP3    H135339   0.581   1.637  11.665 -0.9335  1.1803  1.4933
 4616TIP3    H235340   0.715   1.705  11.648 -0.8409  0.7044  0.2867
 4617TIP3   OH235341   1.418   5.651   0.384  1.4730  0.0404  0.3314
 4617TIP3    H135342   1.490   5.701   0.346  2.3840 -0.4591  1.3665
 4617TIP3    H235343   1.412   5.681   0.474 -0.4894  1.0130 -0.0997
 4618TIP3   OH235344   3.418   3.884  14.974  0.6339 -0.1982  0.2065
 4618TIP3    H135345   3.356   3.812  14.958 -0.0280  0.3569  0.2700
 4618TIP3    H235346   3.453   3.905  14.888  2.7331 -2.2840  0.4882
 4619TIP3   OH235347   0.107   6.019  12.433 -0.4832  0.0621 -0.1550
 4619TIP3    H135348   0.189   6.061  12.459 -0.6968  0.4663 -0.1228
 4619TIP3    H235349   0.112   5.930  12.469  0.2614 -0.1556 -0.7913
 4620TIP3   OH235350   5.535   5.056  16.842  0.2678 -0.0637  0.3313
 4620TIP3    H135351   5.510   4.993  16.774 -0.2083  0.6299 -0.1374
 4620TIP3    H235352   5.465   5.049  16.907  0.6230 -0.5850  0.6657
 4621TIP3   OH235353   4.545   1.670  13.234 -0.4394  0.6378  0.1562
 4621TIP3    H135354   4.453   1.657  13.212 -0.6320  0.8354  0.8274
 4621TIP3    H235355   4.543   1.726  13.312  0.2871  2.2092 -0.9165
 4622TIP3   OH235356   2.320   4.625  15.992 -0.1446 -0.1470  0.2332
 4622TIP3    H135357   2.397   4.573  16.017  0.7518  0.6438 -0.8088
 4622TIP3    H235358   2.301   4.597  15.903  0.4553  1.3939 -0.4099
 4623TIP3   OH235359   1.138   2.339   5.163 -0.0032 -0.5083 -0.2759
 4623TIP3    H135360   1.134   2.340   5.259 -0.7873  0.7196 -0.3068
 4623TIP3    H235361   1.231   2.352   5.143 -0.0080  0.4658  0.3076
 4624TIP3   OH235362   3.162   0.608  15.747 -0.3400  0.0913 -0.4577
 4624TIP3    H135363   3.089   0.669  15.739 -0.0944  0.4388 -0.1046
 4624TIP3    H235364   3.156   0.576  15.837 -0.4287 -0.3558 -0.6230
 4625TIP3   OH235365   0.840   0.824  14.905 -0.2061 -0.0437 -0.0912
 4625TIP3    H135366   0.755   0.782  14.912 -0.3032 -0.3064 -2.3194
 4625TIP3    H235367   0.821   0.917  14.894 -0.0773  0.3008  2.4234
 4626TIP3   OH235368   3.278   5.108   5.627  0.3058  0.2652 -0.1696
 4626TIP3    H135369   3.249   5.027   5.585 -2.3239  0.5671  0.9671
 4626TIP3    H235370   3.203   5.136   5.679  1.9665  2.2453  1.2400
 4627TIP3   OH235371   5.937   5.328  13.817  0.4111 -0.3080  0.0792
 4627TIP3    H135372   5.870   5.264  13.790 -0.1698 -0.3746  1.6205
 4627TIP3    H235373   5.904   5.364  13.898  0.6001  2.2265 -0.9330
 4628TIP3   OH235374   1.054   0.908  16.119  0.5288  0.2792  0.7249
 4628TIP3    H135375   1.111   0.961  16.175  0.2171  2.9515 -1.3745
 4628TIP3    H235376   1.073   0.938  16.030 -0.1209 -2.7638 -0.5150
 4629TIP3   OH235377   4.991   6.170  16.052  0.5735 -0.1600 -0.1902
 4629TIP3    H135378   5.064   6.149  16.110  0.5431 -0.8833 -0.4159
 4629TIP3    H235379   4.915   6.177  16.110  0.6522 -0.3008 -0.0722
 4630TIP3   OH235380   5.485   4.209  12.837  0.2496  0.1382 -0.5524
 4630TIP3    H135381   5.459   4.193  12.747 -0.0424 -1.3781 -0.2100
 4630TIP3    H235382   5.414   4.263  12.873 -0.1159 -0.0770 -0.9511
 4631TIP3   OH235383   3.340   3.188   0.065  0.1623  0.0149 -0.3285
 4631TIP3    H135384   3.360   3.181  -0.028 -2.1157  1.6348 -0.9799
 4631TIP3    H235385   3.270   3.125   0.080  1.1392 -0.9030  0.5232
 4632TIP3   OH235386   1.628   4.557   4.989  0.5509 -0.2502  0.0913
 4632TIP3    H135387   1.602   4.612   4.915 -0.4188 -0.5808  0.1831
 4632TIP3    H235388   1.664   4.619   5.053 -0.8088  0.3139  0.3149
 4633TIP3   OH235389   0.912   2.428  15.326  0.7911 -0.1465  0.1811
 4633TIP3    H135390   0.926   2.448  15.418  1.2287 -0.9899  0.3082
 4633TIP3    H235391   0.849   2.355  15.326  0.9983 -0.3314 -0.1705
 4634TIP3   OH235392   5.153   3.244   4.265  0.0748 -0.1088 -0.3306
 4634TIP3    H135393   5.092   3.183   4.223 -0.1969  0.2065 -0.3902
 4634TIP3    H235394   5.152   3.217   4.357 -0.6805  0.3341 -0.2043
 4635TIP3   OH235395   2.518   5.094   3.513  0.0077 -0.1030 -0.3550
 4635TIP3    H135396   2.503   5.045   3.594 -2.0001  1.3719  0.2114
 4635TIP3    H235397   2.610   5.118   3.516  0.0981 -0.5706  1.2233
 4636TIP3   OH235398   5.062   4.942  14.994  0.5369  0.1028  0.3672
 4636TIP3    H135399   5.136   4.916  15.048 -0.5160 -1.6741  0.9678
 4636TIP3    H235400   5.067   4.886  14.917 -1.2138 -1.2941  1.2394
 4637TIP3   OH235401   2.149   1.238  12.058  0.3237 -0.1121  0.4992
 4637TIP3    H135402   2.081   1.233  12.124  0.4902 -0.6402  0.6292
 4637TIP3    H235403   2.178   1.329  12.061  0.4322 -0.1685  1.2531
 4638TIP3   OH235404   1.631   1.822   3.645 -0.1342  0.2899  0.0628
 4638TIP3    H135405   1.665   1.795   3.560  1.2389 -0.5990  0.8808
 4638TIP3    H235406   1.708   1.828   3.701 -0.8610  2.1236  0.9305
 4639TIP3   OH235407   4.988   0.319   4.024 -0.0381  0.1576 -0.1549
 4639TIP3    H135408   4.948   0.326   4.111 -1.0539  1.3554 -0.7100
 4639TIP3    H235409   4.941   0.247   3.982  1.7107 -1.6730  0.9266
 4640TIP3   OH235410   2.849   5.522   2.849 -0.0340  0.1736  0.6433
 4640TIP3    H135411   2.756   5.529   2.872 -0.0995 -0.4667  0.5742
 4640TIP3    H235412   2.895   5.536   2.932 -0.2427 -1.2003  0.9995
 4641TIP3   OH235413   4.397   5.940   5.806 -0.4664 -0.1094 -0.2036
 4641TIP3    H135414   4.467   5.895   5.853  0.0083  0.9806  0.1708
 4641TIP3    H235415   4.351   5.871   5.758  0.3435 -0.9495  0.2122
 4642TIP3   OH235416   0.364   2.658  12.673 -0.1703 -0.7831 -0.5309
 4642TIP3    H135417   0.344   2.679  12.582 -0.6902 -0.4048 -0.3286
 4642TIP3    H235418   0.418   2.579  12.668  0.9554  0.0073 -1.2356
 4643TIP3   OH235419   1.642   2.786  11.339  0.1588  0.7453 -0.3529
 4643TIP3    H135420   1.668   2.869  11.300  1.3446 -0.3046 -1.8218
 4643TIP3    H235421   1.700   2.774  11.414  1.1290  0.4312 -1.1496
 4644TIP3   OH235422   0.140   4.503  15.897 -0.2009 -0.5035  0.6538
 4644TIP3    H135423   0.186   4.585  15.882 -2.3418  0.3073 -1.8090
 4644TIP3    H235424   0.099   4.514  15.983 -2.1691  1.8633 -0.5479
 4645TIP3   OH235425   3.003   1.508  15.661  0.2106  0.0219 -0.7865
 4645TIP3    H135426   2.924   1.476  15.618  0.2158 -1.7764  0.5029
 4645TIP3    H235427   3.066   1.520  15.589 -0.7466  0.0277 -1.6384
 4646TIP3   OH235428   5.213   2.963   6.128  0.4660  0.1583 -0.0244
 4646TIP3    H135429   5.237   3.050   6.161 -0.2597 -0.4625  2.2389
 4646TIP3    H235430   5.121   2.954   6.150  1.3448 -2.4846  2.8146
 4647TIP3   OH235431   1.661   2.433   0.328 -0.1473  0.9879 -0.0731
 4647TIP3    H135432   1.571   2.406   0.307  0.1001  0.8128 -0.9191
 4647TIP3    H235433   1.652   2.488   0.406 -0.7331 -1.0783  1.3825
 4648TIP3   OH235434   3.150   3.707   4.765  0.7265  0.1939  0.2204
 4648TIP3    H135435   3.113   3.674   4.682 -0.8545 -1.1061  1.4112
 4648TIP3    H235436   3.229   3.655   4.778 -0.1912 -1.1507  0.6025
 4649TIP3   OH235437   1.515   4.083   4.701  0.0268 -0.1245  0.0093
 4649TIP3    H135438   1.539   4.172   4.726  0.1683 -0.4703  1.1551
 4649TIP3    H235439   1.447   4.094   4.635  1.3209  0.8353 -1.1714
 4650TIP3   OH235440   6.525   5.764  17.000 -0.3188 -0.0729  0.2270
 4650TIP3    H135441   6.433   5.738  16.992 -0.5106  0.2441  1.3240
 4650TIP3    H235442   6.553   5.725  17.083  0.6944 -0.6277 -0.3711
 4651TIP3   OH235443   2.115   0.463   3.505 -0.5424  0.3989  0.1697
 4651TIP3    H135444   2.209   0.478   3.499 -0.0387 -2.6377 -0.3171
 4651TIP3    H235445   2.107   0.380   3.552 -2.9612  0.3745 -0.2177
 4652TIP3   OH235446   1.320   4.332   1.770  0.7008 -0.5998 -0.7783
 4652TIP3    H135447   1.364   4.251   1.795  0.3798 -0.8597 -1.0577
 4652TIP3    H235448   1.336   4.391   1.844  2.0869 -0.4659 -1.1673
 4653TIP3   OH235449   4.296   0.985   0.845 -0.1957 -0.6797  0.0192
 4653TIP3    H135450   4.342   0.914   0.801 -2.1337 -1.9232 -0.0798
 4653TIP3    H235451   4.237   1.021   0.778 -1.2824 -0.8770  0.8502
 4654TIP3   OH235452   2.422   3.033   3.604  0.8593  0.5204 -0.0563
 4654TIP3    H135453   2.501   2.995   3.642  1.9513  2.7326 -0.0209
 4654TIP3    H235454   2.450   3.068   3.519 -1.0364 -2.3592 -1.9690
 4655TIP3   OH235455   2.864   1.613   3.109  0.2139 -0.0050 -0.0379
 4655TIP3    H135456   2.951   1.629   3.145 -0.5173 -0.1193  1.8207
 4655TIP3    H235457   2.840   1.696   3.069  0.9042  0.2281  0.0150
 4656TIP3   OH235458   3.766   2.696  12.405  0.0506 -0.2472 -0.3957
 4656TIP3    H135459   3.748   2.751  12.329 -0.5140 -0.5420 -0.4872
 4656TIP3    H235460   3.685   2.645  12.416  0.6800 -1.2953 -0.5242
 4657TIP3   OH235461   3.740   6.516   4.329 -1.1260 -0.4710 -0.0678
 4657TIP3    H135462   3.808   6.453   4.305 -1.8680 -1.2014 -0.2962
 4657TIP3    H235463   3.776   6.601   4.306 -0.4155 -0.8785 -0.4691
 4658TIP3   OH235464   1.509   1.472  12.659  0.1630  0.0179  0.2369
 4658TIP3    H135465   1.503   1.538  12.728  2.0063  0.9211 -0.4256
 4658TIP3    H235466   1.482   1.518  12.579  1.0451 -0.1247 -0.1561
 4659TIP3   OH235467   6.424   2.722  12.485  0.8250 -0.2913  0.0277
 4659TIP3    H135468   6.500   2.671  12.458  0.6703 -1.9242  2.5366
 4659TIP3    H235469   6.429   2.726  12.580 -0.4304  2.4667  0.0511
 4660TIP3   OH235470   3.859   2.810   0.996 -0.2568 -0.2964 -0.5503
 4660TIP3    H135471   3.804   2.769   1.064 -1.8102 -0.1082 -1.6810
 4660TIP3    H235472   3.878   2.739   0.935  1.9274 -0.6932  0.5358
 4661TIP3   OH235473   3.525   1.386  14.649  0.3743  0.4756  0.2318
 4661TIP3    H135474   3.451   1.366  14.590  0.6737  1.3841 -0.4751
 4661TIP3    H235475   3.484   1.429  14.724  0.2163  1.4767 -0.4052
 4662TIP3   OH235476   5.042   6.210   1.752 -0.7081  0.7021  0.0516
 4662TIP3    H135477   5.068   6.262   1.829 -2.4940 -1.0710  1.9290
 4662TIP3    H235478   5.081   6.124   1.767 -1.7366  0.1085 -0.6372
 4663TIP3   OH235479   0.270   0.654  16.955  0.2887 -0.3518 -0.6266
 4663TIP3    H135480   0.301   0.725  17.012  0.0985 -0.6030 -0.2112
 4663TIP3    H235481   0.306   0.676  16.869 -0.8042  0.9251 -0.7788
 4664TIP3   OH235482   0.796   6.271  12.391 -0.0442 -0.0245  0.0149
 4664TIP3    H135483   0.828   6.308  12.309 -0.6515  2.0748  0.6966
 4664TIP3    H235484   0.754   6.344  12.436  1.2956 -0.8136  2.7161
 4665TIP3   OH235485   6.511   6.608   1.884 -0.2270 -0.0483  0.4181
 4665TIP3    H135486   6.466   6.621   1.967 -1.1741  1.4694 -0.3088
 4665TIP3    H235487   6.596   6.571   1.908 -0.9266 -0.6681  1.9710
 4666TIP3   OH235488   4.646   2.790  17.127 -0.2081  0.2086  0.1969
 4666TIP3    H135489   4.710   2.789  17.056  0.0182 -1.6399  0.4017
 4666TIP3    H235490   4.579   2.852  17.097 -0.5804 -1.2044 -2.0851
 4667TIP3   OH235491   4.809   4.507   0.575 -0.5979 -0.6658 -0.0066
 4667TIP3    H135492   4.771   4.510   0.487 -0.6784 -1.1393  0.0081
 4667TIP3    H235493   4.864   4.585   0.580 -1.3393 -0.1359 -0.1314
 4668TIP3   OH235494   5.075   2.710   2.799 -0.0880 -0.1917 -0.0278
 4668TIP3    H135495   5.024   2.630   2.788  0.3191 -0.6234  1.1261
 4668TIP3    H235496   5.038   2.751   2.877 -1.1594  1.4252 -1.3721
 4669TIP3   OH235497   1.746   6.242   3.930 -0.5197  0.0256  0.6754
 4669TIP3    H135498   1.719   6.320   3.881  0.2624 -0.7356 -0.9933
 4669TIP3    H235499   1.823   6.271   3.979 -0.0731  0.2312 -0.1406
 4670TIP3   OH235500   2.013   2.100   0.853  0.0256 -0.1254 -0.6607
 4670TIP3    H135501   2.046   2.122   0.765 -2.5411 -0.1112 -1.6531
 4670TIP3    H235502   1.947   2.167   0.871 -0.1890 -0.7267  0.8616
 4671TIP3   OH235503   4.714   5.505  11.768 -0.0303 -0.4417 -0.6552
 4671TIP3    H135504   4.642   5.551  11.724 -0.4210 -0.7714 -0.3650
 4671TIP3    H235505   4.751   5.571  11.827  0.7465  0.1155 -1.7477
 4672TIP3   OH235506   0.990   3.619  14.419  0.3458  0.3077  0.0328
 4672TIP3    H135507   1.066   3.657  14.374  1.1261 -0.0523  1.0190
 4672TIP3    H235508   1.028   3.552  14.476 -0.9411 -1.4361 -1.1197
 4673TIP3   OH235509   2.963   3.479  15.257 -0.6380  0.2925 -0.0684
 4673TIP3    H135510   2.878   3.516  15.281  0.1193  1.0399  1.5216
 4673TIP3    H235511   2.971   3.401  15.313 -0.6048 -0.2163 -0.7743
 4674TIP3   OH235512   5.428   4.079   2.347 -0.2878  0.3923 -0.0021
 4674TIP3    H135513   5.393   4.153   2.298  0.6472  1.5287  1.0209
 4674TIP3    H235514   5.466   4.118   2.426  2.2253 -0.8963 -0.5105
 4675TIP3   OH235515   2.768   0.583  16.051  0.0586 -0.1064  0.1598
 4675TIP3    H135516   2.701   0.559  15.987  0.8540  0.6954 -1.0127
 4675TIP3    H235517   2.723   0.638  16.115 -0.9303 -1.5924  0.7574
 4676TIP3   OH235518   2.087   6.392   1.710 -0.7156 -0.2398  0.1250
 4676TIP3    H135519   2.120   6.461   1.653  2.2668 -1.0140  0.8468
 4676TIP3    H235520   2.052   6.326   1.651 -0.2796  0.2695 -0.7018
 4677TIP3   OH235521   0.882   5.660  16.693  0.0700  0.0484  0.1472
 4677TIP3    H135522   0.825   5.606  16.748  0.3358  1.6642  2.0816
 4677TIP3    H235523   0.877   5.747  16.733  1.2507  0.9711 -1.6864
 4678TIP3   OH235524   2.378   0.666   4.676 -0.0217 -0.3964 -0.6422
 4678TIP3    H135525   2.443   0.735   4.689 -0.2837 -0.2464 -0.1651
 4678TIP3    H235526   2.431   0.588   4.659  0.2911 -0.3288  0.0050
 4679TIP3   OH235527   0.937   5.790   1.847  0.6841 -0.4832  0.0761
 4679TIP3    H135528   0.957   5.718   1.788 -0.4677 -0.4104 -0.4053
 4679TIP3    H235529   0.881   5.848   1.796  0.2925 -0.0494  0.9894
 4680TIP3   OH235530   3.027   3.725   1.249 -0.7996 -0.4998 -0.1301
 4680TIP3    H135531   3.115   3.730   1.213  0.3064  1.4961  2.7290
 4680TIP3    H235532   2.979   3.670   1.187  1.9799 -0.2282 -2.6143
 4681TIP3   OH235533   5.508   5.882  11.753 -0.0890 -0.5138  0.2384
 4681TIP3    H135534   5.560   5.959  11.733 -0.5368 -0.3289 -0.2263
 4681TIP3    H235535   5.417   5.912  11.749 -0.2969 -1.2096 -0.6069
 4682TIP3   OH235536   5.771   0.969  17.045 -0.3224 -0.4800  0.4788
 4682TIP3    H135537   5.697   0.974  17.106 -0.9667  0.6364 -0.3810
 4682TIP3    H235538   5.839   1.022  17.085 -0.6395  0.0088  0.3696
 4683TIP3   OH235539   0.877   1.567   2.471 -0.6179  0.3874  0.2261
 4683TIP3    H135540   0.909   1.642   2.420 -0.0473 -0.7492 -1.1310
 4683TIP3    H235541   0.783   1.583   2.480 -0.0723  2.6444  2.3456
 4684TIP3   OH235542   3.710   0.598  12.971 -0.1438  0.4198  0.0456
 4684TIP3    H135543   3.768   0.674  12.968 -0.3131  0.5021 -2.3766
 4684TIP3    H235544   3.754   0.536  13.030  1.6511  1.1002 -0.5500
 4685TIP3   OH235545   0.794   0.181   3.677 -0.0863  0.0841  0.2674
 4685TIP3    H135546   0.815   0.243   3.748 -1.3087  0.1343  0.6016
 4685TIP3    H235547   0.717   0.219   3.634 -1.5578 -1.7560  1.1882
 4686TIP3   OH235548   1.816   3.702   1.365 -0.1618 -0.1310  0.3658
 4686TIP3    H135549   1.802   3.751   1.284 -4.2700 -1.8894 -0.0979
 4686TIP3    H235550   1.824   3.611   1.337 -0.3945 -0.6129  1.8354
 4687TIP3   OH235551   0.414   6.649   6.671  0.4649  0.3295 -0.2124
 4687TIP3    H135552   0.348   6.621   6.735  0.9403  0.2785  0.2583
 4687TIP3    H235553   0.446   6.567   6.633  0.6708  0.3210 -0.0226
 4688TIP3   OH235554   5.528   5.875   4.263 -0.0844  0.0174  0.2894
 4688TIP3    H135555   5.454   5.818   4.243  0.7163 -0.6302 -0.8710
 4688TIP3    H235556   5.495   5.964   4.248 -1.3566 -0.1043  2.1650
 4689TIP3   OH235557   6.679   5.045   2.127  0.4229  0.5970 -0.2319
 4689TIP3    H135558   6.749   5.083   2.074  0.3032  2.4863  0.9377
 4689TIP3    H235559   6.719   5.028   2.212 -0.6192  2.1272  0.6004
 4690TIP3   OH235560   3.896   2.076  17.203 -0.1017  0.1499  0.0207
 4690TIP3    H135561   3.938   2.017  17.140 -3.0441 -3.6133  1.3885
 4690TIP3    H235562   3.907   2.034  17.288 -4.4686  0.1802  0.7194
 4691TIP3   OH235563   3.521   5.635  15.072 -0.1975  0.5660 -0.1219
 4691TIP3    H135564   3.433   5.629  15.033 -0.1762  1.2482 -0.2802
 4691TIP3    H235565   3.561   5.711  15.030 -0.1153  1.2215  1.1037
 4692TIP3   OH235566   0.613   3.444  11.835  0.2754 -0.4461 -0.1495
 4692TIP3    H135567   0.562   3.468  11.758 -0.2596  0.5031  0.4982
 4692TIP3    H235568   0.691   3.499  11.830  1.2834 -1.9119 -1.1475
 4693TIP3   OH235569   2.995   5.582  11.200  0.3420 -0.7271  0.0211
 4693TIP3    H135570   2.926   5.521  11.225  0.3153 -0.2379  1.2314
 4693TIP3    H235571   2.970   5.614  11.113 -0.9862 -0.5296  0.4636
 4694TIP3   OH235572   4.457   2.990  17.022  0.1251  0.3102 -0.2243
 4694TIP3    H135573   4.413   2.990  16.937 -0.3946 -2.3556 -0.0113
 4694TIP3    H235574   4.407   3.051  17.076 -0.2857  1.0726 -1.4564
 4695TIP3   OH235575   1.303   5.866  12.684  0.5399  0.4356  0.3442
 4695TIP3    H135576   1.391   5.896  12.704  0.9373 -0.2796 -0.2558
 4695TIP3    H235577   1.300   5.863  12.588  0.1408 -0.3158  0.3706
 4696TIP3   OH235578   3.361   4.597  13.188 -0.2923  0.2085  0.2430
 4696TIP3    H135579   3.281   4.566  13.231 -0.3636 -0.1836 -0.1681
 4696TIP3    H235580   3.400   4.518  13.151  0.1325  0.4436  0.1869
 4697TIP3   OH235581   3.433   5.892  16.302  0.2446 -0.2235  0.3892
 4697TIP3    H135582   3.515   5.939  16.288 -0.1666  0.3304 -0.2383
 4697TIP3    H235583   3.373   5.931  16.238 -0.2062 -1.3491  0.1218
 4698TIP3   OH235584   1.259   0.641   2.172 -0.1869  0.1624  0.3462
 4698TIP3    H135585   1.204   0.703   2.218  0.2577  0.4051  0.5519
 4698TIP3    H235586   1.339   0.690   2.152 -0.1971 -0.0719 -0.2825
 4699TIP3   OH235587   0.167   1.871   3.709 -0.3953  0.1855 -0.1891
 4699TIP3    H135588   0.175   1.959   3.748  0.6490  0.2744 -0.5956
 4699TIP3    H235589   0.257   1.838   3.706 -1.0718 -2.2573  3.0561
 4700TIP3   OH235590   1.448   1.850  14.331  0.4427 -0.3587 -0.2161
 4700TIP3    H135591   1.474   1.860  14.422  0.3334  1.0032 -0.3224
 4700TIP3    H235592   1.528   1.865  14.281  0.4902 -1.0390 -0.3512
 4701TIP3   OH235593   0.424   2.066   1.418 -0.0375  0.4326  0.0580
 4701TIP3    H135594   0.342   2.060   1.369 -0.4122 -0.9994  0.8232
 4701TIP3    H235595   0.418   2.149   1.466 -0.0937  1.3659 -1.5270
 4702TIP3   OH235596   3.946   3.724  13.140  0.5725  0.1658 -0.4861
 4702TIP3    H135597   4.006   3.759  13.074  1.5041  1.7760  1.1750
 4702TIP3    H235598   3.990   3.647  13.174  1.8922  1.5530  0.9846
 4703TIP3   OH235599   3.619   2.144   1.361 -0.2032  0.2480 -0.5421
 4703TIP3    H135600   3.551   2.165   1.297 -0.4857  0.4257 -0.1847
 4703TIP3    H235601   3.583   2.071   1.412  0.6761 -0.9744 -1.6209
 4704TIP3   OH235602   2.019   1.267   5.295 -0.4859 -0.0396 -0.2509
 4704TIP3    H135603   1.927   1.246   5.282 -0.9192  0.5334  1.7560
 4704TIP3    H235604   2.027   1.359   5.269  0.1688 -0.8747 -3.2418
 4705TIP3   OH235605   0.786   1.959  12.086  0.1361  0.0084  0.2999
 4705TIP3    H135606   0.745   1.892  12.031  1.4702 -0.9747  0.4710
 4705TIP3    H235607   0.718   1.984  12.148 -0.7627 -0.3034 -0.5567
 4706TIP3   OH235608   0.673   1.051   0.224  0.5787 -0.3686 -0.5055
 4706TIP3    H135609   0.679   1.045   0.319  2.0127 -3.1430 -0.7097
 4706TIP3    H235610   0.763   1.045   0.194  0.2024  1.2420 -2.0398
 4707TIP3   OH235611   1.109   3.488   0.354 -0.1286  0.5583 -0.3917
 4707TIP3    H135612   1.144   3.571   0.385 -0.3007  0.3670  0.3086
 4707TIP3    H235613   1.121   3.491   0.259  3.4346 -0.2906 -0.0191
 4708TIP3   OH235614   3.413   6.197  15.674 -0.4936  0.4358 -0.0542
 4708TIP3    H135615   3.465   6.276  15.662 -0.3566  0.5071  0.9059
 4708TIP3    H235616   3.468   6.126  15.640  1.0399  0.2758  2.5540
 4709TIP3   OH235617   3.912   2.327  11.196  0.1235 -0.0695  0.9229
 4709TIP3    H135618   3.836   2.277  11.165  0.1689 -0.0244  0.7377
 4709TIP3    H235619   3.978   2.314  11.128 -0.3072  1.3092  0.2400
 4710TIP3   OH235620   3.042   5.114  13.702 -0.4947  0.1534 -0.1191
 4710TIP3    H135621   3.073   5.124  13.612 -0.9754 -0.1605 -0.3247
 4710TIP3    H235622   3.073   5.193  13.747  0.1446  0.0904 -0.4419
 4711TIP3   OH235623   3.658   0.294   6.340  0.1336 -0.5264 -0.5374
 4711TIP3    H135624   3.703   0.211   6.358  1.4801  0.7235  1.9938
 4711TIP3    H235625   3.728   0.353   6.312 -0.8473 -0.2497 -2.5022
 4712TIP3   OH235626   0.503   3.945  15.082  0.1078 -0.3534 -0.2114
 4712TIP3    H135627   0.581   3.986  15.045 -0.5077  3.3823  2.3003
 4712TIP3    H235628   0.528   3.920  15.170 -0.8498 -1.2326 -0.1794
 4713TIP3   OH235629   2.534   2.244   1.107 -0.7968 -0.3058  0.3430
 4713TIP3    H135630   2.606   2.206   1.057 -3.0543 -5.1899  0.4928
 4713TIP3    H235631   2.472   2.273   1.040 -1.4688 -2.0303  0.1742
 4714TIP3   OH235632   4.901   1.244   5.200  0.4426  0.0717 -0.2847
 4714TIP3    H135633   4.973   1.197   5.241  1.1405  0.4146 -1.1044
 4714TIP3    H235634   4.853   1.177   5.152 -0.0682 -0.2387  0.6360
 4715TIP3   OH235635   1.477   2.271  16.742  0.5200  0.4207  0.3962
 4715TIP3    H135636   1.491   2.339  16.676 -0.3793  0.9775  0.7635
 4715TIP3    H235637   1.454   2.320  16.821 -0.4695 -0.3247  0.5735
 4716TIP3   OH235638   4.164   6.774  15.669 -0.4541 -0.1183 -0.3765
 4716TIP3    H135639   4.143   6.782  15.762 -2.3468  0.2299 -0.7994
 4716TIP3    H235640   4.148   6.861  15.634  1.3915  0.0569 -0.8378
 4717TIP3   OH235641   0.840   4.495   3.861  0.6378  0.3589  0.3255
 4717TIP3    H135642   0.864   4.577   3.904  0.1133 -0.4293  2.1946
 4717TIP3    H235643   0.804   4.521   3.777  2.5476  1.9124 -0.0590
 4718TIP3   OH235644   1.655   4.002   0.112  0.3952 -0.6453 -0.0850
 4718TIP3    H135645   1.646   4.032   0.021 -1.6221  0.5005  0.4406
 4718TIP3    H235646   1.657   4.083   0.163 -1.1778 -1.2943  1.0736
 4719TIP3   OH235647   5.932   0.022  13.887 -0.0624 -0.3831 -1.0488
 4719TIP3    H135648   5.957  -0.047  13.825 -0.4932 -0.3273 -1.2862
 4719TIP3    H235649   6.015   0.049  13.927  0.1023 -1.0818 -0.9059
 4720TIP3   OH235650   4.287   1.062  17.025  0.2101 -0.5388  0.2726
 4720TIP3    H135651   4.192   1.053  17.028 -0.1286  1.3562 -2.5776
 4720TIP3    H235652   4.309   1.112  17.104 -1.3713  0.6526 -0.0256
 4721TIP3   OH235653   5.582   0.843  16.461  0.1637 -0.1075  0.4532
 4721TIP3    H135654   5.641   0.918  16.465 -0.8061  0.6354  1.1207
 4721TIP3    H235655   5.606   0.789  16.536 -0.0366  0.2268  0.7602
 4722TIP3   OH235656   0.102   5.559  12.090 -0.0671  0.5117 -0.0077
 4722TIP3    H135657   0.012   5.576  12.062  0.3600  0.0372 -1.7375
 4722TIP3    H235658   0.156   5.594  12.019  1.1179  1.0863  1.1765
 4723TIP3   OH235659   1.643   5.078  11.208  0.4946  0.2954 -0.4315
 4723TIP3    H135660   1.581   5.023  11.159  1.4937 -1.3709  0.1436
 4723TIP3    H235661   1.591   5.154  11.235 -0.8093 -0.1597 -1.5916
 4724TIP3   OH235662   5.844   6.679  11.574 -0.3611 -0.0509  0.0200
 4724TIP3    H135663   5.873   6.754  11.524  1.6200 -0.2224  0.8503
 4724TIP3    H235664   5.885   6.690  11.660 -1.3748 -1.2348  0.6864
 4725TIP3   OH235665   2.804   2.788  15.025  0.0757 -0.1764 -0.4696
 4725TIP3    H135666   2.814   2.747  15.111 -1.4837  0.3505 -0.0128
 4725TIP3    H235667   2.806   2.882  15.043 -1.5394 -0.0546 -0.8195
 4726TIP3   OH235668   2.807   1.138  16.183 -0.0814  0.4275  0.0906
 4726TIP3    H135669   2.827   1.068  16.122 -2.2806 -0.9004  0.8172
 4726TIP3    H235670   2.720   1.169  16.157  0.2658  1.9199  0.6437
 4727TIP3   OH235671   1.480   5.227  14.820 -0.0171  0.6489 -0.5139
 4727TIP3    H135672   1.460   5.159  14.755 -0.7853 -0.6212  1.0147
 4727TIP3    H235673   1.575   5.219  14.834  0.1634  0.9662 -1.4926
 4728TIP3   OH235674   5.204   1.827  16.566 -0.0925  0.0276  0.0990
 4728TIP3    H135675   5.223   1.787  16.481 -0.6218  1.3560 -0.6471
 4728TIP3    H235676   5.108   1.831  16.570 -0.0339  2.2271 -0.3140
 4729TIP3   OH235677   5.524   2.931  16.483 -0.1775  0.3434 -0.5641
 4729TIP3    H135678   5.499   2.990  16.554  3.6673  0.5601  0.7241
 4729TIP3    H235679   5.589   2.981  16.433  1.6708 -2.0412 -0.6070
 4730TIP3   OH235680   0.774   4.680  14.610  0.7180  0.6002  0.8264
 4730TIP3    H135681   0.700   4.653  14.664 -0.5387  1.4704 -0.4328
 4730TIP3    H235682   0.807   4.760  14.651  0.6667  0.4817  1.1001
 4731TIP3   OH235683   6.255   4.376  12.525  0.6137  0.2973 -0.0111
 4731TIP3    H135684   6.222   4.287  12.537 -0.6665  0.7019 -0.5322
 4731TIP3    H235685   6.248   4.392  12.431  2.7922  0.2076 -0.2237
 4732TIP3   OH235686   3.002   2.668   3.572  0.2391  0.4289 -0.6518
 4732TIP3    H135687   3.057   2.745   3.556  1.1129 -0.3702 -1.5783
 4732TIP3    H235688   2.993   2.627   3.485  0.5550 -1.0163 -0.0201
 4733TIP3   OH235689   6.127   5.149  17.270  0.3059  0.1152 -0.1749
 4733TIP3    H135690   6.213   5.186  17.251  0.7699  0.3050  2.1114
 4733TIP3    H235691   6.071   5.225  17.286  0.4893 -0.0509  1.3749
 4734TIP3   OH235692   3.047   1.545   5.394 -0.0363 -0.5495  0.0695
 4734TIP3    H135693   3.071   1.595   5.472 -1.7039  2.3497 -1.1870
 4734TIP3    H235694   3.129   1.508   5.362  0.9247 -0.3289  2.2007
 4735TIP3   OH235695   4.578   6.503   3.969  0.0331  0.7720 -0.4796
 4735TIP3    H135696   4.519   6.579   3.969  1.2443  1.7366 -0.5153
 4735TIP3    H235697   4.637   6.519   3.896  0.0780 -0.3960 -0.7046
 4736TIP3   OH235698   1.668   3.539   2.556  0.0888 -0.1007 -0.8767
 4736TIP3    H135699   1.700   3.466   2.609  0.7138 -0.4047 -1.6779
 4736TIP3    H235700   1.746   3.591   2.537 -0.4686  1.2473  0.3974
 4737TIP3   OH235701   1.807   4.831  11.057  0.5239 -0.1939 -0.2883
 4737TIP3    H135702   1.837   4.917  11.088  0.4581 -0.3971  0.3487
 4737TIP3    H235703   1.721   4.820  11.099  1.1999 -1.2378  0.8631
 4738TIP3   OH235704   1.815   4.561   2.555  0.3438 -0.6366  0.5810
 4738TIP3    H135705   1.824   4.611   2.636 -0.2104 -0.5529  0.5905
 4738TIP3    H235706   1.905   4.536   2.532  0.6517  0.6544  0.3834
 4739TIP3   OH235707   4.505   1.698  15.123  0.4823 -0.1424  0.1940
 4739TIP3    H135708   4.415   1.724  15.144  0.3547 -0.1760 -0.3154
 4739TIP3    H235709   4.537   1.767  15.066  1.2300  0.5581  1.4393
 4740TIP3   OH235710   5.736   6.453  12.174  0.1088  0.5031 -0.2021
 4740TIP3    H135711   5.778   6.536  12.152  1.3609 -0.2266 -0.5764
 4740TIP3    H235712   5.805   6.401  12.214 -0.5318 -0.5704 -0.4917
 4741TIP3   OH235713   3.384   4.107  15.126  0.2516  0.0204 -0.4707
 4741TIP3    H135714   3.456   4.165  15.104  1.0289 -0.6261  0.3345
 4741TIP3    H235715   3.391   4.034  15.065 -0.9136  0.9160 -1.6887
 4742TIP3   OH235716   3.798   0.865   0.637  0.6379  0.3558  0.5238
 4742TIP3    H135717   3.765   0.778   0.663 -0.4111  0.6545  0.2218
 4742TIP3    H235718   3.744   0.889   0.561  2.3522  0.3473 -0.7302
 4743TIP3   OH235719   3.337   2.713  14.402  0.3196  0.7680  0.1603
 4743TIP3    H135720   3.257   2.671  14.434  0.6411 -1.1373 -1.4324
 4743TIP3    H235721   3.315   2.743  14.314  1.4587 -0.1327 -0.4447
 4744TIP3   OH235722   4.028   2.559   2.300 -0.2234 -0.0091  0.2904
 4744TIP3    H135723   3.961   2.500   2.334  0.8474 -0.9257  0.8857
 4744TIP3    H235724   4.026   2.547   2.205 -0.7555 -0.1763  0.3232
 4745TIP3   OH235725   5.297   0.810   0.207 -0.6061 -0.2908  0.1594
 4745TIP3    H135726   5.391   0.816   0.225 -1.1442  0.2986  3.0114
 4745TIP3    H235727   5.290   0.823   0.112  2.1961 -0.5545 -0.1330
 4746TIP3   OH235728   4.946   4.053  15.227 -0.0104 -0.0159 -0.1073
 4746TIP3    H135729   4.868   4.085  15.180  0.0223 -0.0650 -0.1944
 4746TIP3    H235730   5.016   4.057  15.162 -0.3796 -1.9837 -0.6626
 4747TIP3   OH235731   0.625   1.526  15.579  0.0362  0.6447 -0.1965
 4747TIP3    H135732   0.719   1.517  15.592 -0.1118  0.2412  0.5879
 4747TIP3    H235733   0.601   1.450  15.526  0.2425  1.0518 -0.8852
 4748TIP3   OH235734   1.430   4.650  12.828  0.1734  0.3858  0.3999
 4748TIP3    H135735   1.402   4.559  12.837  2.5526 -0.5324 -0.8206
 4748TIP3    H235736   1.480   4.667  12.908 -1.6560  1.1880  1.3946
 4749TIP3   OH235737   0.208   6.704  11.665 -0.1888  0.1265  0.0190
 4749TIP3    H135738   0.299   6.692  11.690 -0.2927  0.0787  0.3869
 4749TIP3    H235739   0.166   6.621  11.686 -0.4246  0.3253  0.3648
 4750TIP3   OH235740   2.759   5.220   2.145 -0.1247 -0.7543 -0.2851
 4750TIP3    H135741   2.807   5.226   2.228  1.4159 -1.8539 -1.0615
 4750TIP3    H235742   2.760   5.310   2.111  3.0816 -1.0235 -1.1478
 4751TIP3   OH235743   4.563   0.266   1.015  0.1888 -0.4931 -0.1305
 4751TIP3    H135744   4.622   0.284   0.941  0.9142 -2.1265  0.0301
 4751TIP3    H235745   4.620   0.230   1.083 -0.7576 -0.6092  0.6058
 4752TIP3   OH235746   6.163   1.559  14.095 -0.3897 -0.4871 -0.3757
 4752TIP3    H135747   6.142   1.606  14.014  0.0506  1.3726  0.5636
 4752TIP3    H235748   6.164   1.627  14.162  2.2444 -1.5422  0.6972
 4753TIP3   OH235749   4.423   0.339  11.283 -0.0547  0.7393  0.0168
 4753TIP3    H135750   4.460   0.260  11.245 -1.2248  0.3613 -0.3656
 4753TIP3    H235751   4.433   0.406  11.215 -1.8897  0.1333 -0.8975
 4754TIP3   OH235752   1.161   2.817   5.997  0.4690 -0.3355 -0.1096
 4754TIP3    H135753   1.123   2.893   5.954  0.9364  0.2749  0.5503
 4754TIP3    H235754   1.133   2.824   6.088  2.6870  0.4869  0.5475
 4755TIP3   OH235755   0.039   5.298  12.985 -0.4498  0.2090  0.2775
 4755TIP3    H135756  -0.023   5.261  13.047 -1.0035  1.1554  0.2983
 4755TIP3    H235757   0.070   5.224  12.934 -0.7516 -0.4282  1.0116
 4756TIP3   OH235758   1.546   3.846  10.755 -0.1271  0.1885  0.1266
 4756TIP3    H135759   1.563   3.921  10.698 -0.0050  0.7246  0.8611
 4756TIP3    H235760   1.624   3.792  10.749  0.6352  1.1477  1.1690
 4757TIP3   OH235761   5.172   3.464   5.970  0.2941 -0.1765  0.0898
 4757TIP3    H135762   5.245   3.485   6.030 -1.0428  3.8973  0.4464
 4757TIP3    H235763   5.202   3.495   5.885 -0.0638 -0.8035 -0.2659
 4758TIP3   OH235764   1.258   1.038  14.899 -0.2587 -0.0702  0.2790
 4758TIP3    H135765   1.187   1.004  14.953  0.1591  1.0636  1.5827
 4758TIP3    H235766   1.225   1.122  14.865 -0.0346 -0.1576 -0.1612
 4759TIP3   OH235767   2.003   3.521   5.395 -0.7465 -0.1108  0.2631
 4759TIP3    H135768   1.998   3.477   5.310 -0.7062  0.3053  0.0392
 4759TIP3    H235769   1.996   3.451   5.459  0.8356 -0.6046 -0.0831
 4760TIP3   OH235770   4.415   5.348  11.775  0.3978  0.6730 -0.3885
 4760TIP3    H135771   4.396   5.261  11.739  0.9490  0.4017 -0.0210
 4760TIP3    H235772   4.449   5.331  11.862  1.5685  1.2011 -0.7338
 4761TIP3   OH235773   3.506   6.171  14.683  0.1078  0.3671 -0.2949
 4761TIP3    H135774   3.569   6.173  14.755 -0.3010  0.5560  0.0564
 4761TIP3    H235775   3.535   6.241  14.624  0.5668  0.0741 -0.4189
 4762TIP3   OH235776   0.705   2.912   5.378 -0.0489 -0.3288  0.1469
 4762TIP3    H135777   0.782   2.861   5.403 -0.0642  0.4163  1.7356
 4762TIP3    H235778   0.631   2.867   5.421 -0.6133 -1.3964 -1.8522
 4763TIP3   OH235779   1.051   5.729   3.110 -0.2089 -0.0993 -0.7865
 4763TIP3    H135780   1.054   5.650   3.056 -1.0016 -2.0004  1.8739
 4763TIP3    H235781   0.962   5.763   3.098  0.0332  0.2287 -1.6878
 4764TIP3   OH235782   5.765   2.011  11.567  0.0531 -0.1601  0.3491
 4764TIP3    H135783   5.816   1.976  11.640  0.0469  0.1495  0.4989
 4764TIP3    H235784   5.795   1.961  11.491  0.4438 -0.1087  0.4694
 4765TIP3   OH235785   2.101   1.507   3.858  0.5195  0.3966  0.5964
 4765TIP3    H135786   2.078   1.462   3.939  0.5468 -0.7266 -0.0037
 4765TIP3    H235787   2.030   1.571   3.845 -0.4532 -0.6557  0.5817
 4766TIP3   OH235788   3.631   1.012   4.629 -0.6841  0.4299  0.0015
 4766TIP3    H135789   3.678   1.045   4.706  0.6592  0.9673 -1.0429
 4766TIP3    H235790   3.601   0.925   4.655  0.8717  0.0809  0.6952
 4767TIP3   OH235791   1.743   0.796   5.957  0.9933  0.0595  0.0612
 4767TIP3    H135792   1.671   0.734   5.953  0.6101  0.4678  0.5191
 4767TIP3    H235793   1.766   0.801   6.050  0.4321  1.2581  0.1447
 4768TIP3   OH235794   3.334   2.957   4.844  0.1221  0.0761 -0.0865
 4768TIP3    H135795   3.331   3.023   4.914  0.7815  1.5621 -1.4307
 4768TIP3    H235796   3.252   2.908   4.854  0.7959 -0.5964  2.5208
 4769TIP3   OH235797   4.262   4.011   4.741  0.0686  0.1348 -0.4261
 4769TIP3    H135798   4.242   4.026   4.833  0.5270  1.7375 -0.5633
 4769TIP3    H235799   4.314   3.931   4.740  1.4042  0.9498  0.8948
 4770TIP3   OH235800   4.892   4.345  13.467  0.3785  0.4843  0.8128
 4770TIP3    H135801   4.812   4.293  13.473  1.1463 -0.7735  0.2220
 4770TIP3    H235802   4.909   4.373  13.558  0.4396 -1.0408  1.2841
 4771TIP3   OH235803   4.365   4.435   3.153 -0.1736 -0.0202  0.0398
 4771TIP3    H135804   4.409   4.514   3.123 -0.7066 -0.2930 -1.5088
 4771TIP3    H235805   4.281   4.465   3.186 -0.1716  0.1312 -0.0910
 4772TIP3   OH235806   2.647   6.256  16.080 -0.2987 -0.0454 -0.5064
 4772TIP3    H135807   2.600   6.190  16.028 -1.1574 -0.0632  0.2893
 4772TIP3    H235808   2.665   6.212  16.163  1.6262 -0.2321 -1.0007
 4773TIP3   OH235809   0.407   6.208  14.733 -0.3692  0.6020 -0.4643
 4773TIP3    H135810   0.464   6.267  14.685  0.4709  0.5241  0.4351
 4773TIP3    H235811   0.321   6.250  14.730  0.4377  2.4527  1.1074
 4774TIP3   OH235812   2.628   2.302  15.025 -0.2205 -0.4900 -0.0121
 4774TIP3    H135813   2.671   2.364  15.084  0.7939  0.2209 -1.4658
 4774TIP3    H235814   2.660   2.216  15.054 -1.4016 -0.3456  1.8161
 4775TIP3   OH235815   0.568   3.060   1.777  0.1313 -0.6397  0.0328
 4775TIP3    H135816   0.550   3.054   1.683 -0.5907 -0.4859  0.1631
 4775TIP3    H235817   0.663   3.074   1.782 -0.0508  0.9237 -0.7407
 4776TIP3   OH235818   0.756   3.615  15.754  0.1755  0.1099 -0.3762
 4776TIP3    H135819   0.823   3.546  15.757  0.4566  0.4168  0.5014
 4776TIP3    H235820   0.738   3.634  15.846 -1.3991 -0.2406 -0.5965
 4777TIP3   OH235821   4.738   3.424  14.010 -0.8163 -0.0602  0.0425
 4777TIP3    H135822   4.811   3.419  13.949 -0.4045  0.2964  0.4934
 4777TIP3    H235823   4.677   3.485  13.969 -2.2138 -2.5308 -1.7055
 4778TIP3   OH235824   5.658   4.962  11.842  0.5921 -0.1286 -0.3342
 4778TIP3    H135825   5.716   4.927  11.910 -1.2860 -1.5347  0.6066
 4778TIP3    H235826   5.664   5.057  11.852 -0.6732 -0.3083  2.7273
 4779TIP3   OH235827   3.313   2.531  13.898 -0.5942 -0.1457  0.4454
 4779TIP3    H135828   3.364   2.603  13.863  0.3689 -1.1313 -0.1923
 4779TIP3    H235829   3.360   2.504  13.978 -0.7643 -0.2873  0.5000
 4780TIP3   OH235830   2.231   0.461   0.044  0.5262  0.0262  0.3156
 4780TIP3    H135831   2.298   0.471   0.111  2.0297  2.2535 -1.4453
 4780TIP3    H235832   2.275   0.414  -0.028 -0.1178  0.4898 -0.3941
 4781TIP3   OH235833   6.015   4.295   4.918 -0.1836  0.2610  0.1164
 4781TIP3    H135834   5.994   4.340   4.836 -0.3083  0.9713  0.5344
 4781TIP3    H235835   6.067   4.219   4.891 -1.8950 -0.6320 -0.8004
 4782TIP3   OH235836   3.855   0.147  12.133  0.0435 -0.8134 -0.2008
 4782TIP3    H135837   3.821   0.080  12.074 -1.1503  0.1742 -0.6571
 4782TIP3    H235838   3.787   0.159  12.199  0.0277  0.2973 -0.4090
 4783TIP3   OH235839   6.434   4.750   0.916 -0.4660  0.1455 -0.3771
 4783TIP3    H135840   6.472   4.789   0.995  2.2603  0.0671 -1.6016
 4783TIP3    H235841   6.439   4.656   0.932 -2.0984  0.1643  0.3233
 4784TIP3   OH235842   0.091   1.980  14.405  0.0089 -0.0023  0.2756
 4784TIP3    H135843  -0.004   1.974  14.399 -0.0879  0.7393  0.9786
 4784TIP3    H235844   0.108   2.069  14.437  0.9698  0.1587 -0.6373
 4785TIP3   OH235845   1.733   0.860   4.728  0.2311  0.2445  0.5929
 4785TIP3    H135846   1.752   0.918   4.801 -0.6692  2.3198 -0.7590
 4785TIP3    H235847   1.756   0.911   4.650 -0.8227 -1.1082 -0.6426
 4786TIP3   OH235848   3.245   5.465   4.029  0.6427 -0.5897 -0.1733
 4786TIP3    H135849   3.237   5.418   4.111  1.2325  1.1898  0.9417
 4786TIP3    H235850   3.339   5.477   4.016  0.5618 -0.9536 -1.1588
 4787TIP3   OH235851   2.801   4.487  14.990 -0.6423 -0.1037 -0.6224
 4787TIP3    H135852   2.751   4.405  14.987  1.5539 -1.4867 -0.0872
 4787TIP3    H235853   2.892   4.461  14.978  0.1147  2.2634 -0.3599
 4788TIP3   OH235854   3.844   5.686   4.125 -0.5544  0.7506  0.0663
 4788TIP3    H135855   3.768   5.733   4.158 -1.7963 -0.4526 -1.0403
 4788TIP3    H235856   3.874   5.739   4.051  0.5723  1.9840  1.3784
 4789TIP3   OH235857   0.397   1.634  16.468 -0.5761 -0.5011  0.1941
 4789TIP3    H135858   0.490   1.631  16.491 -0.8905  2.6473  2.1444
 4789TIP3    H235859   0.388   1.716  16.419 -2.6358  0.0359  1.4623
 4790TIP3   OH235860   0.703   0.353   1.292 -0.6576  0.1279 -0.1224
 4790TIP3    H135861   0.790   0.351   1.333  0.1206 -0.6687 -1.7831
 4790TIP3    H235862   0.704   0.282   1.229 -3.3300 -1.3475  1.3909
 4791TIP3   OH235863   0.704   2.527  13.562  0.0061  0.2036  0.4028
 4791TIP3    H135864   0.727   2.549  13.472 -1.4254 -0.4496 -0.1351
 4791TIP3    H235865   0.746   2.595  13.615  1.0851  0.4343 -0.7253
 4792TIP3   OH235866   1.569   0.512  16.206 -0.1100  0.2697 -0.0750
 4792TIP3    H135867   1.619   0.507  16.124  1.6051 -0.4251  0.9836
 4792TIP3    H235868   1.551   0.421  16.229  0.5757  0.3937  0.9956
 4793TIP3   OH235869   2.272   5.788  14.039  0.0981 -0.2452 -0.6639
 4793TIP3    H135870   2.265   5.781  13.944  2.9015  0.4639 -0.9818
 4793TIP3    H235871   2.289   5.880  14.056  1.7593 -0.7040  0.3396
 4794TIP3   OH235872   0.712   6.160  15.526 -0.1809  0.1991 -0.0449
 4794TIP3    H135873   0.779   6.227  15.530 -1.0103  1.0085  0.4849
 4794TIP3    H235874   0.636   6.204  15.489 -0.7588 -0.4156  0.3853
 4795TIP3   OH235875   2.440   0.782   1.860 -0.1565 -0.1479 -0.0651
 4795TIP3    H135876   2.438   0.877   1.849  0.0154  0.1538  2.3181
 4795TIP3    H235877   2.350   0.759   1.885 -0.1453 -0.5881 -0.4204
 4796TIP3   OH235878   3.081   2.528  10.818 -0.0817 -0.0864  0.1729
 4796TIP3    H135879   2.995   2.530  10.859 -0.4220  0.5831 -0.5602
 4796TIP3    H235880   3.093   2.437  10.791 -0.8287 -0.0575 -0.2742
 4797TIP3   OH235881   3.766   2.690  17.092 -0.2741  0.0405  0.6471
 4797TIP3    H135882   3.842   2.715  17.040 -0.0616 -0.0597  0.9079
 4797TIP3    H235883   3.793   2.610  17.137 -1.9543 -2.4413 -2.5223
 4798TIP3   OH235884   0.723   4.702   4.257 -0.3166 -0.3437 -0.4188
 4798TIP3    H135885   0.791   4.769   4.260 -2.1423  1.5170  0.2924
 4798TIP3    H235886   0.742   4.644   4.331 -0.3434  1.0012  0.6537
 4799TIP3   OH235887   5.758   3.037  14.610  0.0251  0.1334 -0.3899
 4799TIP3    H135888   5.810   2.957  14.612 -0.1253  0.0086 -1.3079
 4799TIP3    H235889   5.821   3.106  14.630  0.5515 -0.0224 -1.4679
 4800TIP3   OH235890   3.042   4.635   1.708 -0.1177 -0.1819  0.2531
 4800TIP3    H135891   2.992   4.665   1.632 -0.9054  0.5557  1.0653
 4800TIP3    H235892   2.978   4.627   1.778  1.1032  2.1169  1.6982
 4801TIP3   OH235893   6.257   3.000   2.266 -0.2156 -0.8079 -0.5957
 4801TIP3    H135894   6.334   2.977   2.214 -0.8577  1.8028 -2.7734
 4801TIP3    H235895   6.189   2.940   2.236  0.0560 -0.8846 -1.0613
 4802TIP3   OH235896   5.866   2.826  12.991  0.1996 -0.0267  0.7246
 4802TIP3    H135897   5.779   2.823  13.030 -0.4071 -1.5430 -0.7197
 4802TIP3    H235898   5.891   2.734  12.981  1.1792  0.3743 -0.6113
 4803TIP3   OH235899   0.021   5.808  12.781  0.0651  0.1811 -0.1321
 4803TIP3    H135900   0.020   5.721  12.819  2.5850 -0.0074 -0.4061
 4803TIP3    H235901   0.093   5.806  12.717 -0.0466  2.3469 -0.3776
 4804TIP3   OH235902   6.205   0.454   0.137  0.3975  0.2778  0.2555
 4804TIP3    H135903   6.241   0.540   0.159 -0.5738  1.0961 -1.2985
 4804TIP3    H235904   6.187   0.458   0.043  1.0644 -1.9017 -0.0058
 4805TIP3   OH235905   3.089   3.625  12.948 -0.2520 -0.3166  0.5457
 4805TIP3    H135906   3.028   3.619  13.021  1.6628 -0.0199  2.1821
 4805TIP3    H235907   3.156   3.560  12.966  0.4151 -0.0225 -0.7945
 4806TIP3   OH235908   1.747   1.140  11.453 -0.4128 -0.0821 -0.1810
 4806TIP3    H135909   1.661   1.182  11.455 -1.1724 -1.6558  1.0906
 4806TIP3    H235910   1.743   1.081  11.378 -0.5637 -0.4058  0.0820
 4807TIP3   OH235911   1.897   5.641  11.926  0.4129  0.1383 -0.6448
 4807TIP3    H135912   1.924   5.587  11.852  1.8128  0.3564 -0.3073
 4807TIP3    H235913   1.866   5.722  11.887  1.9549  0.5859 -0.9525
 4808TIP3   OH235914   1.237   2.611  14.257  0.1348  0.0923  0.3564
 4808TIP3    H135915   1.320   2.569  14.283 -0.2205  0.0654  1.4790
 4808TIP3    H235916   1.180   2.598  14.333 -1.5549 -1.6309 -1.1599
 4809TIP3   OH235917   4.852   4.163  16.273 -0.0205 -0.0839  0.5956
 4809TIP3    H135918   4.894   4.077  16.282  0.7683  0.2006 -0.3156
 4809TIP3    H235919   4.913   4.215  16.221 -1.4593  0.3667 -0.6982
 4810TIP3   OH235920   5.066   4.861  12.703 -0.1702  0.2444 -0.5522
 4810TIP3    H135921   5.105   4.800  12.642 -0.9396 -0.7658 -0.0547
 4810TIP3    H235922   5.010   4.807  12.759  0.9786  1.0467  1.4314
 4811TIP3   OH235923   5.903   5.572  13.100 -0.0722  0.2026 -0.5304
 4811TIP3    H135924   5.918   5.646  13.040  0.7134 -0.6927 -1.4637
 4811TIP3    H235925   5.991   5.544  13.125 -0.3971  0.5604  1.0577
 4812TIP3   OH235926   3.856   0.211   7.090 -0.0517 -0.6203  0.1757
 4812TIP3    H135927   3.871   0.252   7.005 -0.1765 -0.5527  0.1876
 4812TIP3    H235928   3.816   0.127   7.069 -0.5471 -0.3868  0.1957
 4813TIP3   OH235929   4.463   2.623  10.793 -0.8430  1.0169  0.0647
 4813TIP3    H135930   4.469   2.692  10.728 -0.0689 -0.7880 -1.8544
 4813TIP3    H235931   4.549   2.581  10.791 -2.1074 -1.6555 -0.7667
 4814TIP3   OH235932   1.950   1.191  15.328  0.0364 -0.2099 -0.3771
 4814TIP3    H135933   1.926   1.261  15.267 -0.7214 -0.8499 -0.8262
 4814TIP3    H235934   2.044   1.201  15.341 -0.2677  1.6965  0.5869
 4815TIP3   OH235935   5.496   1.739   2.100 -0.0665 -0.2891 -0.7563
 4815TIP3    H135936   5.529   1.654   2.071  1.5508  0.3309 -0.8194
 4815TIP3    H235937   5.407   1.721   2.130  0.7949 -2.3336  0.7336
 4816TIP3   OH235938   1.227   4.277  13.075 -0.0341 -0.0185 -0.4211
 4816TIP3    H135939   1.256   4.187  13.087 -0.7724 -0.1585  0.4216
 4816TIP3    H235940   1.152   4.270  13.016  0.6287  0.1703 -1.2893
 4817TIP3   OH235941   3.324   3.304   1.508  0.0832 -0.1115 -0.4039
 4817TIP3    H135942   3.368   3.318   1.592 -2.4525 -1.2772  1.1797
 4817TIP3    H235943   3.395   3.304   1.443  2.1314  0.3901  1.7713
 4818TIP3   OH235944   4.068   0.255   0.949 -0.3907  0.8062  0.7902
 4818TIP3    H135945   4.157   0.220   0.943 -0.1505  1.3334  1.3473
 4818TIP3    H235946   4.079   0.349   0.960 -1.0236  0.8878  0.7613
 4819TIP3   OH235947   2.616   3.841  13.409 -0.2794  0.2335 -0.2044
 4819TIP3    H135948   2.549   3.821  13.474  0.6683 -1.5926  0.2660
 4819TIP3    H235949   2.697   3.850  13.460  0.1400  0.6581 -0.9320
 4820TIP3   OH235950   6.195   3.578  12.059 -1.0410 -0.1703  0.1997
 4820TIP3    H135951   6.143   3.549  11.983  2.5447 -0.4546 -2.2799
 4820TIP3    H235952   6.209   3.499  12.110  0.9109 -1.0954 -1.6727
 4821TIP3   OH235953   5.011   2.386  11.400 -0.4682  0.0845  0.6664
 4821TIP3    H135954   4.918   2.375  11.417 -0.6727 -0.8645 -0.9900
 4821TIP3    H235955   5.050   2.300  11.419 -0.4689 -0.5409 -1.9347
 4822TIP3   OH235956   1.208   3.979   3.629 -0.0693 -0.2469  0.1844
 4822TIP3    H135957   1.160   3.897   3.617 -1.6814  0.6087  0.6304
 4822TIP3    H235958   1.191   4.029   3.549  0.9200 -0.3455 -0.0934
 4823TIP3   OH235959   1.326   3.315  16.969 -0.0365 -0.0923 -0.1731
 4823TIP3    H135960   1.276   3.242  16.932 -0.1415 -0.3500  0.4728
 4823TIP3    H235961   1.272   3.392  16.953  0.2366 -0.0999 -1.1738
 4824TIP3   OH235962   1.842   5.873   3.537  0.1527  0.0907  0.4859
 4824TIP3    H135963   1.850   5.917   3.621  0.4527 -1.4904  1.2958
 4824TIP3    H235964   1.748   5.866   3.522  0.1000  0.3544  0.6913
 4825TIP3   OH235965   4.856   6.509   4.864  0.2478  0.1199  0.1940
 4825TIP3    H135966   4.838   6.439   4.927 -2.5560  0.8295  0.2289
 4825TIP3    H235967   4.868   6.464   4.781 -0.2248 -0.5158  0.4666
 4826TIP3   OH235968   0.771   5.252  16.789  0.4708  0.3321  0.7817
 4826TIP3    H135969   0.694   5.218  16.833 -1.0200 -0.3451 -2.1940
 4826TIP3    H235970   0.830   5.177  16.781 -1.0971 -0.6597 -2.1481
 4827TIP3   OH235971   4.919   5.236   5.144 -0.2895 -0.0406 -0.0168
 4827TIP3    H135972   4.990   5.178   5.115  0.3014  1.2740 -1.2724
 4827TIP3    H235973   4.964   5.318   5.167 -1.3284  0.5936 -0.2207
 4828TIP3   OH235974   0.681   2.733  14.745  0.3986 -0.6581  0.3807
 4828TIP3    H135975   0.648   2.807  14.796  2.5400  0.5060  0.1315
 4828TIP3    H235976   0.675   2.762  14.654  0.2840 -1.1886  0.2186
 4829TIP3   OH235977   0.406   1.855   2.756  0.7016 -0.9675  0.0744
 4829TIP3    H135978   0.328   1.836   2.704  0.2735  1.9704 -0.4623
 4829TIP3    H235979   0.475   1.867   2.691  1.2914 -2.1231  0.4736
 4830TIP3   OH235980   4.856   5.868   5.498 -0.4127  0.1192 -0.1485
 4830TIP3    H135981   4.774   5.910   5.524  1.2728  3.5800 -0.1370
 4830TIP3    H235982   4.835   5.820   5.418 -2.6633  0.1305  0.4113
 4831TIP3   OH235983   3.768   2.533  15.195 -0.5867 -0.4127 -0.8628
 4831TIP3    H135984   3.762   2.446  15.234  2.2768 -0.2515  0.0460
 4831TIP3    H235985   3.798   2.518  15.106  1.5584 -0.2963 -0.1832
 4832TIP3   OH235986   5.475   1.894  15.698  0.2479 -0.3226  0.2235
 4832TIP3    H135987   5.533   1.884  15.773  0.5129 -1.1928 -0.0925
 4832TIP3    H235988   5.392   1.925  15.736  0.7988  0.5814  0.7097
 4833TIP3   OH235989   6.158   1.255  15.481 -0.0197  0.1581 -0.4952
 4833TIP3    H135990   6.218   1.330  15.487  1.9357 -1.3726 -0.2890
 4833TIP3    H235991   6.154   1.235  15.388 -1.1161  0.9416 -0.6288
 4834TIP3   OH235992   2.759   2.390   5.070 -0.0887 -0.6843 -0.1950
 4834TIP3    H135993   2.714   2.321   5.120  0.8153 -0.8143  0.4635
 4834TIP3    H235994   2.852   2.373   5.086  0.1483  0.4998 -0.2888
 4835TIP3   OH235995   0.955   2.796   5.400 -0.0809 -0.4577 -0.2012
 4835TIP3    H135996   0.933   2.727   5.338  0.5923 -0.4331 -0.4663
 4835TIP3    H235997   1.027   2.760   5.451  0.1557 -0.0177 -0.2230
 4836TIP3   OH235998   1.185   2.244   1.651  1.1174  0.0742 -0.2005
 4836TIP3    H135999   1.097   2.279   1.663  0.2315 -1.7183 -1.2460
 4836TIP3    H236000   1.185   2.161   1.700  2.5027  0.4759  0.5076
 4837TIP3   OH236001   4.807   1.714  13.596  0.1387  0.0127 -0.6269
 4837TIP3    H136002   4.770   1.651  13.534  0.9904  1.4789 -2.6876
 4837TIP3    H236003   4.886   1.746  13.553  1.8046 -0.3458  2.0941
 4838TIP3   OH236004   4.124   1.789   6.142  0.2413 -0.1084 -0.2107
 4838TIP3    H136005   4.168   1.705   6.125  0.1683  0.1948 -1.9715
 4838TIP3    H236006   4.045   1.786   6.088 -0.3737  0.6088  0.6362
 4839TIP3   OH236007   0.294   1.554  13.898  0.3978  0.7663  0.9276
 4839TIP3    H136008   0.305   1.574  13.805  0.0870  0.0085  0.7194
 4839TIP3    H236009   0.210   1.595  13.921  0.3487  0.7351  0.8074
 4840TIP3   OH236010   0.410   2.795   5.168  0.1474 -0.1725  0.2172
 4840TIP3    H136011   0.425   2.890   5.175 -1.9835  0.2547 -0.6968
 4840TIP3    H236012   0.487   2.762   5.123  0.1657  1.3864 -0.9637
 4841TIP3   OH236013   5.827   0.062   6.030  0.4350  0.7143 -0.0346
 4841TIP3    H136014   5.921   0.070   6.048  0.5987  2.9494 -1.7300
 4841TIP3    H236015   5.787   0.135   6.078 -0.3860  0.0949  0.2304
 4842TIP3   OH236016   5.903   2.994   0.034 -0.1095  0.6703  0.0335
 4842TIP3    H136017   5.932   2.926   0.095 -1.8933 -1.2749 -1.1864
 4842TIP3    H236018   5.963   3.066   0.048  1.4106 -0.8876  1.9037
 4843TIP3   OH236019   6.117   5.319  13.564 -0.1959  0.7686  0.1005
 4843TIP3    H136020   6.091   5.258  13.495 -1.0149  0.4359  0.6986
 4843TIP3    H236021   6.042   5.322  13.623  0.3309  1.3902  0.7473
 4844TIP3   OH236022   2.427   4.187   0.252 -0.9364  0.0846  0.4068
 4844TIP3    H136023   2.424   4.093   0.266  0.1837 -0.0988 -0.5522
 4844TIP3    H236024   2.473   4.221   0.329 -0.4687 -0.2585  0.2808
 4845TIP3   OH236025   6.769   4.360   2.105 -0.4257  0.2234 -0.3130
 4845TIP3    H136026   6.821   4.329   2.180 -0.5667  0.3495 -0.1628
 4845TIP3    H236027   6.710   4.425   2.142 -0.6760  0.0981 -0.4882
 4846TIP3   OH236028   1.057   1.333   3.277 -0.6920 -0.0268 -0.2490
 4846TIP3    H136029   0.988   1.310   3.216 -0.7932 -0.9592  0.2141
 4846TIP3    H236030   1.132   1.279   3.251 -0.5543 -0.0040  0.0945
 4847TIP3   OH236031   4.060   6.464  13.035 -0.1194  0.1536  0.2385
 4847TIP3    H136032   4.049   6.374  13.003 -0.2609  0.3809 -0.3490
 4847TIP3    H236033   4.155   6.478  13.033 -0.0748 -0.0736  0.5913
 4848TIP3   OH236034   0.095   6.631  13.305 -0.1664 -0.1645  0.0611
 4848TIP3    H136035   0.163   6.611  13.371  0.2861 -0.3915 -0.4698
 4848TIP3    H236036   0.133   6.701  13.252  0.1164 -1.0580 -0.9358
 4849TIP3   OH236037   1.127   1.579   1.581  0.3819  0.4482  0.5392
 4849TIP3    H136038   1.036   1.597   1.554  0.3512 -2.5340 -1.5380
 4849TIP3    H236039   1.180   1.626   1.516  0.3094 -0.8574 -0.4739
 4850TIP3   OH236040   3.302   3.858  13.720 -0.2501  0.1246  0.2672
 4850TIP3    H136041   3.266   3.873  13.808 -0.2497 -0.6812  0.4072
 4850TIP3    H236042   3.281   3.938  13.672 -2.3156 -0.3626  0.3086
 4851TIP3   OH236043   5.900   1.041   1.254 -0.3665 -0.3777  0.4970
 4851TIP3    H136044   5.971   1.001   1.203 -0.1404 -0.2698  0.7273
 4851TIP3    H236045   5.820   1.015   1.208 -0.1606 -0.2378  0.0548
 4852TIP3   OH236046   0.354   1.518   3.606 -0.0040 -0.2959  0.1659
 4852TIP3    H136047   0.374   1.437   3.653 -1.0003  0.0677  1.2268
 4852TIP3    H236048   0.387   1.588   3.663 -0.1028  0.0876 -0.2452
 4853TIP3   OH236049   0.404   5.715   1.253 -0.2150 -0.1696 -0.1341
 4853TIP3    H136050   0.468   5.742   1.187  0.0389  1.2999  0.7038
 4853TIP3    H236051   0.456   5.695   1.331 -0.5235 -1.7834 -0.3329
 4854TIP3   OH236052   5.798   4.004  11.238  0.2239  0.5017  0.4173
 4854TIP3    H136053   5.813   4.026  11.146  0.7602 -2.4140 -0.2395
 4854TIP3    H236054   5.884   3.980  11.271 -0.4168 -1.2194  0.8898
 4855TIP3   OH236055   4.946   2.320   6.180 -0.4353 -0.1333 -0.0251
 4855TIP3    H136056   4.912   2.237   6.215  1.5060 -0.3422  1.4609
 4855TIP3    H236057   5.027   2.335   6.228 -2.3354  4.3099  2.1899
 4856TIP3   OH236058   0.571   5.521  16.502 -0.6592  0.5873  0.0015
 4856TIP3    H136059   0.564   5.523  16.598 -0.0430 -0.5681  0.0783
 4856TIP3    H236060   0.488   5.484  16.473 -0.2814 -0.4376  0.1837
 4857TIP3   OH236061   3.044   4.600  14.743  0.1733 -0.3838 -0.8547
 4857TIP3    H136062   2.952   4.614  14.721 -0.1180  0.5672  0.8669
 4857TIP3    H236063   3.060   4.508  14.724 -1.6684 -1.0348  0.6732
 4858TIP3   OH236064   2.627   0.699   2.156 -0.1239 -0.1284 -0.1330
 4858TIP3    H136065   2.586   0.687   2.242 -0.8230 -1.9800 -0.7014
 4858TIP3    H236066   2.566   0.752   2.106  0.2898  0.9636  0.5081
 4859TIP3   OH236067   5.203   6.315  13.307 -0.0887 -0.0397  0.8811
 4859TIP3    H136068   5.113   6.345  13.300  0.5417  1.3274 -2.2208
 4859TIP3    H236069   5.255   6.387  13.273  1.9199 -2.2201 -0.8684
 4860TIP3   OH236070   2.829   3.752   4.017  0.3985  0.2746  0.1250
 4860TIP3    H136071   2.886   3.742   3.940 -1.7345  3.0508 -1.9253
 4860TIP3    H236072   2.843   3.842   4.045  0.2442 -0.3498  2.3080
 4861TIP3   OH236073   0.352   1.830   0.100 -0.7627 -0.2930  0.0444
 4861TIP3    H136074   0.265   1.853   0.066  0.0618  2.2699 -0.3788
 4861TIP3    H236075   0.353   1.865   0.189  0.2829  0.7642 -0.3821
 4862TIP3   OH236076   3.914   1.202   2.703 -0.1048 -0.4021  0.0773
 4862TIP3    H136077   3.872   1.184   2.787  1.1221 -1.7820  0.4064
 4862TIP3    H236078   3.945   1.292   2.711 -1.0281 -0.1223  0.6575
 4863TIP3   OH236079   0.149   1.088   0.213 -0.0891  0.0117 -0.2856
 4863TIP3    H136080   0.126   1.036   0.136  1.2639 -0.7510 -0.1813
 4863TIP3    H236081   0.174   1.023   0.279 -1.5925  0.6352  0.9378
 4864TIP3   OH236082   2.593   4.577  11.003 -0.1046 -0.3495 -0.3703
 4864TIP3    H136083   2.504   4.560  11.033 -0.1968  3.2184  1.6618
 4864TIP3    H236084   2.589   4.568  10.907 -2.5237 -0.6644 -0.2589
 4865TIP3   OH236085   0.542   2.313  16.095 -0.0305  0.2481  0.1292
 4865TIP3    H136086   0.632   2.320  16.065  0.3885  0.1984  1.3399
 4865TIP3    H236087   0.497   2.387  16.055  0.2284 -0.4935 -1.5790
 4866TIP3   OH236088   6.489   5.448  14.075 -0.1019  0.3981 -0.1572
 4866TIP3    H136089   6.516   5.436  14.166 -0.7647 -0.7825 -0.1082
 4866TIP3    H236090   6.401   5.487  14.081  0.6092  2.0836 -0.3104
 4867TIP3   OH236091   1.803   0.749   5.150 -0.2302  0.7991  0.3380
 4867TIP3    H136092   1.847   0.678   5.102 -1.1071  0.5951 -0.1826
 4867TIP3    H236093   1.804   0.823   5.090 -0.0118  0.9923  0.5790
 4868TIP3   OH236094   5.614   6.651  17.047 -0.1893  0.2917 -0.2764
 4868TIP3    H136095   5.589   6.572  17.096 -0.0225  1.3080  1.4759
 4868TIP3    H236096   5.696   6.679  17.087  0.1867  0.9121 -1.4428
 4869TIP3   OH236097   5.900   0.610  14.278  0.3064  0.4388  0.1793
 4869TIP3    H136098   5.923   0.517  14.282 -0.7127  0.1673 -0.2658
 4869TIP3    H236099   5.857   0.621  14.193  0.0690  1.2363  0.3973
 4870TIP3   OH236100   0.684   3.255   4.915  0.0575 -0.2275 -0.2403
 4870TIP3    H136101   0.597   3.294   4.927 -0.7331 -1.3910 -1.9515
 4870TIP3    H236102   0.674   3.164   4.943  0.5395 -0.5368 -1.0421
 4871TIP3   OH236103   4.714   4.679  16.350 -0.1560  0.2665 -0.6587
 4871TIP3    H136104   4.703   4.611  16.284  0.3612 -0.5836  0.1094
 4871TIP3    H236105   4.671   4.645  16.428 -0.7350  1.2447 -0.5456
 4872TIP3   OH236106   2.949   3.812  14.323  0.3720  0.1354 -0.4880
 4872TIP3    H136107   3.010   3.757  14.372 -1.0590 -0.1798  0.9742
 4872TIP3    H236108   2.961   3.900  14.359  0.5675  0.2336 -0.7905
 4873TIP3   OH236109   2.090   4.612   1.492 -0.5065  0.0092  0.2719
 4873TIP3    H136110   2.164   4.671   1.506  0.4865 -1.3865  1.0234
 4873TIP3    H236111   2.128   4.534   1.451 -1.7784 -0.1666 -0.6071
 4874TIP3   OH236112   5.218   5.966   5.866 -0.4336 -0.4416 -0.3229
 4874TIP3    H136113   5.169   5.970   5.948  0.3841  1.3838  0.1148
 4874TIP3    H236114   5.160   5.920   5.806 -3.1269  2.4175 -0.0752
 4875TIP3   OH236115   0.570   1.533  15.041  0.7269 -0.4167  0.0739
 4875TIP3    H136116   0.638   1.561  14.980 -0.7969 -1.3302 -2.0777
 4875TIP3    H236117   0.514   1.475  14.991  0.4776 -2.7165  2.8707
 4876TIP3   OH236118   2.931   5.044  15.156  0.7097 -0.8761 -0.4381
 4876TIP3    H136119   2.919   4.950  15.173 -1.0440 -0.8557 -1.4655
 4876TIP3    H236120   3.013   5.049  15.106  0.0613 -2.0066 -1.6349
 4877TIP3   OH236121   0.825   5.083   1.023  0.3031 -0.4533 -0.4631
 4877TIP3    H136122   0.794   5.043   0.941 -1.6823 -1.0857  0.5494
 4877TIP3    H236123   0.857   5.010   1.075 -1.8908 -0.5649  0.7780
 4878TIP3   OH236124   1.806   2.857   4.952 -0.3388 -0.6128 -0.1897
 4878TIP3    H136125   1.730   2.830   5.003 -2.6581  0.8650 -2.6851
 4878TIP3    H236126   1.833   2.941   4.991 -0.6960 -0.5944  0.0163
 4879TIP3   OH236127   6.543   4.241  13.074  0.7396  0.2066 -0.7141
 4879TIP3    H136128   6.582   4.173  13.130 -1.4319 -1.1767 -0.8356
 4879TIP3    H236129   6.595   4.238  12.994  0.8001 -1.1774 -0.6391
 4880TIP3   OH236130   6.786   1.720   1.621 -0.3840  0.2671 -0.1397
 4880TIP3    H136131   6.752   1.794   1.571 -1.0357 -1.0457 -1.6992
 4880TIP3    H236132   6.764   1.740   1.712  0.9958  2.7895 -0.3404
 4881TIP3   OH236133   0.872   5.770  15.247  0.2429 -0.3262 -0.4570
 4881TIP3    H136134   0.872   5.725  15.332 -0.1300  2.1951  0.9041
 4881TIP3    H236135   0.953   5.741  15.205  1.4130 -0.0853  1.5710
 4882TIP3   OH236136   1.887   4.115  17.137 -0.3237  0.1896  0.2173
 4882TIP3    H136137   1.807   4.075  17.171 -0.1088  0.5420  1.1557
 4882TIP3    H236138   1.958   4.063  17.176 -0.0917 -1.0688 -1.7797
 4883TIP3   OH236139   5.393   6.311  17.064  0.0305  0.0260  0.8815
 4883TIP3    H136140   5.373   6.402  17.044 -0.3986 -0.1266  0.6188
 4883TIP3    H236141   5.320   6.261  17.028 -0.3442 -0.3234  2.0981
 4884TIP3   OH236142   3.662   4.373   4.535  0.4472 -0.6040 -0.1421
 4884TIP3    H136143   3.717   4.369   4.457  0.9396  1.3258  0.0803
 4884TIP3    H236144   3.696   4.304   4.592  1.7508 -0.3462 -0.5845
 4885TIP3   OH236145   3.558   0.215  16.055  0.0371  0.0583 -1.1931
 4885TIP3    H136146   3.608   0.276  16.000 -1.3480  2.2072 -0.1503
 4885TIP3    H236147   3.490   0.181  15.998 -1.7658  2.7383 -0.7380
 4886TIP3   OH236148   1.378   3.116  14.227  0.4874  0.0490 -0.0951
 4886TIP3    H136149   1.455   3.094  14.173  0.9620  0.8755  0.2488
 4886TIP3    H236150   1.324   3.171  14.170  1.0117  0.9618  0.2838
 4887TIP3   OH236151   6.528   0.671   4.024 -0.1202  0.1549 -0.1600
 4887TIP3    H136152   6.456   0.624   4.065 -1.0431  1.3189 -0.4307
 4887TIP3    H236153   6.490   0.710   3.945  0.6349  1.2692  0.0091
 4888TIP3   OH236154   0.880   1.153  11.041 -0.0510  0.0403 -0.0789
 4888TIP3    H136155   0.882   1.237  10.995 -0.3588 -0.1531 -0.4507
 4888TIP3    H236156   0.935   1.095  10.988 -0.0725 -0.0699  0.0197
 4889TIP3   OH236157   3.410   2.246   2.223 -0.4911 -0.9957 -0.4076
 4889TIP3    H136158   3.399   2.296   2.303  0.4816 -1.2728 -0.0906
 4889TIP3    H236159   3.329   2.260   2.174 -0.2011  0.9750 -0.3691
 4890TIP3   OH236160   6.618   5.552   4.105 -0.5472  0.7258 -0.1382
 4890TIP3    H136161   6.544   5.507   4.146  2.1146  0.3558  4.5729
 4890TIP3    H236162   6.629   5.632   4.156  2.8845  0.3256 -0.1734
 4891TIP3   OH236163   5.402   2.777   6.698  0.2523 -0.5703 -0.3322
 4891TIP3    H136164   5.472   2.713   6.683  0.2357 -0.6322 -0.1493
 4891TIP3    H236165   5.440   2.840   6.760  0.9546  0.7169 -2.0245
 4892TIP3   OH236166   6.727   6.275  16.436 -0.2227  0.4073  0.1687
 4892TIP3    H136167   6.673   6.323  16.374  0.4366  0.5594 -0.2952
 4892TIP3    H236168   6.666   6.246  16.504 -0.9752  0.0944 -0.6378
 4893TIP3   OH236169   3.191   0.744   1.720  0.2692 -0.5354 -0.7040
 4893TIP3    H136170   3.254   0.673   1.729  0.8664 -0.1757 -1.9455
 4893TIP3    H236171   3.243   0.824   1.728 -0.3069 -0.2211  0.0602
 4894TIP3   OH236172   1.905   2.563   3.346  0.6419  0.7044  0.3540
 4894TIP3    H136173   1.838   2.623   3.313  0.6013  0.6665  0.3679
 4894TIP3    H236174   1.863   2.516   3.417 -0.2759 -1.4256 -1.5339
 4895TIP3   OH236175   4.301   5.613  15.543  0.2745  0.2659 -0.3192
 4895TIP3    H136176   4.244   5.648  15.474  0.3145  0.1280 -0.4236
 4895TIP3    H236177   4.362   5.556  15.496 -0.4413 -0.7528 -0.0323
 4896TIP3   OH236178   6.237   3.842  15.989 -0.2402 -0.1767 -0.6369
 4896TIP3    H136179   6.220   3.904  15.918 -2.1994  0.9419  0.7474
 4896TIP3    H236180   6.152   3.801  16.006  0.5190 -1.4727  0.0906
 4897TIP3   OH236181   6.639   4.688   1.191 -0.2221  0.6607 -0.3710
 4897TIP3    H136182   6.611   4.703   1.281 -0.7805 -2.1428 -0.0174
 4897TIP3    H236183   6.638   4.593   1.182  3.7111  0.7109 -2.1260
 4898TIP3   OH236184   0.496   4.897   3.568  0.1529 -0.2523  0.6414
 4898TIP3    H136185   0.456   4.971   3.614  0.6723 -0.7682  1.9533
 4898TIP3    H236186   0.475   4.821   3.622 -0.8982 -1.1812 -1.0040
 4899TIP3   OH236187   1.496   1.168   2.916 -0.4947 -0.0333  0.4854
 4899TIP3    H136188   1.453   1.083   2.905 -0.6740  0.1084  0.1019
 4899TIP3    H236189   1.583   1.146   2.949  0.5652 -0.5653 -2.4840
 4900TIP3   OH236190   6.497   5.634  12.254 -0.1098 -0.3517 -0.3191
 4900TIP3    H136191   6.533   5.676  12.176  2.4149  0.7231  1.3677
 4900TIP3    H236192   6.553   5.558  12.269 -1.1840 -1.1199 -0.0976
 4901TIP3   OH236193   2.388   2.270   5.932 -0.2225 -0.0881 -0.2009
 4901TIP3    H136194   2.478   2.271   5.962 -0.9289  0.8093  2.0194
 4901TIP3    H236195   2.341   2.324   5.996 -2.5263 -1.5666 -0.5787
 4902TIP3   OH236196   6.405   2.794   6.869 -0.5280 -0.2882 -0.6480
 4902TIP3    H136197   6.386   2.792   6.775 -1.2822 -0.8626 -0.4869
 4902TIP3    H236198   6.324   2.763   6.910  0.2124 -1.2108  0.1258
 4903TIP3   OH236199   0.501   1.023  16.286  0.4118 -0.0051  0.4175
 4903TIP3    H136200   0.538   1.110  16.274  1.4006 -0.2806  1.3575
 4903TIP3    H236201   0.420   1.037  16.335  0.0720  0.4691 -0.2822
 4904TIP3   OH236202   2.261   0.804  17.114 -0.1651 -0.2383  0.1546
 4904TIP3    H136203   2.343   0.792  17.067  0.0637  2.1897 -0.0962
 4904TIP3    H236204   2.262   0.895  17.142 -2.3177 -0.4568  1.0325
 4905TIP3   OH236205   3.851   4.911   5.821 -0.5122 -0.3169 -0.6036
 4905TIP3    H136206   3.926   4.872   5.775 -1.4337 -0.3980 -2.0656
 4905TIP3    H236207   3.793   4.838   5.838 -0.6617 -0.1156 -0.2540
 4906TIP3   OH236208   3.713   2.377  11.411  0.2368 -0.4696  0.6037
 4906TIP3    H136209   3.779   2.377  11.341 -1.0596 -0.2679 -0.6422
 4906TIP3    H236210   3.676   2.289  11.408 -1.7320  0.3631 -0.8359
 4907TIP3   OH236211   2.914   6.669  17.274  0.1588  0.3460  0.3090
 4907TIP3    H136212   2.944   6.760  17.274 -2.1908  1.1710 -1.8027
 4907TIP3    H236213   2.825   6.673  17.241 -0.5385 -2.5902  1.6197
 4908TIP3   OH236214   3.550   0.558  16.909  0.0644 -0.2236  0.2697
 4908TIP3    H136215   3.553   0.550  16.814 -0.2038 -1.4267  0.3569
 4908TIP3    H236216   3.461   0.589  16.927  0.3914  0.8301  0.0703
 4909TIP3   OH236217   5.839   6.670   1.672  0.0842 -0.2661 -0.2819
 4909TIP3    H136218   5.801   6.662   1.584 -0.0013  0.5313 -0.3137
 4909TIP3    H236219   5.791   6.605   1.724 -0.7070  0.1042 -0.5366
 4910TIP3   OH236220   0.442   5.666  10.587  0.5870 -0.3652 -0.7847
 4910TIP3    H136221   0.538   5.669  10.585  0.5510  1.8200 -0.3083
 4910TIP3    H236222   0.418   5.622  10.506  2.0117 -1.3041 -0.7144
 4911TIP3   OH236223   2.758   6.476   1.851  0.4121  0.5975  0.2663
 4911TIP3    H136224   2.848   6.510   1.855  0.2774  0.8171  1.8757
 4911TIP3    H236225   2.741   6.443   1.939 -0.7482 -0.3612 -0.2940
 4912TIP3   OH236226   0.779   0.885  13.962 -0.9714 -0.1370 -0.4795
 4912TIP3    H136227   0.719   0.956  13.940 -0.9825  0.3154  0.9683
 4912TIP3    H236228   0.829   0.917  14.037  0.2041 -1.0038 -0.8752
 4913TIP3   OH236229   5.309   0.329   1.923  0.7505 -0.0529  0.4127
 4913TIP3    H136230   5.290   0.400   1.862  0.1282  1.4071  2.2393
 4913TIP3    H236231   5.369   0.368   1.986 -1.6864 -0.2849  2.9919
 4914TIP3   OH236232   2.848   6.470   2.907 -0.4228  0.2160  0.3599
 4914TIP3    H136233   2.921   6.529   2.888 -0.0316 -0.2895  0.2850
 4914TIP3    H236234   2.825   6.488   2.998 -1.1209  1.3630 -0.0294
 4915TIP3   OH236235   2.075   0.394  15.742 -0.7145 -0.1153  0.7866
 4915TIP3    H136236   2.138   0.393  15.669 -1.2753  0.6844  0.2883
 4915TIP3    H236237   2.064   0.487  15.762 -2.2659 -0.2155  0.4239
 4916TIP3   OH236238   2.727   3.530  12.913  0.2476  0.2180  0.6833
 4916TIP3    H136239   2.819   3.504  12.912 -0.2534 -1.5402 -0.1297
 4916TIP3    H236240   2.714   3.565  13.001  1.2744 -1.0663  1.3683
 4917TIP3   OH236241   2.011   3.959   6.305 -0.2722  0.4291  0.0157
 4917TIP3    H136242   1.982   4.045   6.277 -0.3657  1.0394  1.8988
 4917TIP3    H236243   1.932   3.904   6.298 -0.8354  1.0758  1.0881
 4918TIP3   OH236244   4.360   6.689  14.912 -0.0558 -0.7533  1.1802
 4918TIP3    H136245   4.286   6.665  14.855  0.9161 -2.0077  0.4086
 4918TIP3    H236246   4.343   6.780  14.936  0.7917  0.6909 -3.2285
 4919TIP3   OH236247   4.370   2.837  13.067  0.8553  0.5923 -0.4635
 4919TIP3    H136248   4.348   2.744  13.071  1.1155  0.5418 -0.1720
 4919TIP3    H236249   4.405   2.858  13.154 -0.9048  1.3960  0.0743
 4920TIP3   OH236250   6.679   3.801  13.779  0.3936  0.1968 -0.4753
 4920TIP3    H136251   6.645   3.848  13.702 -1.2840 -0.9518 -0.4679
 4920TIP3    H236252   6.748   3.745  13.744 -0.0520  0.0198 -1.0837
 4921TIP3   OH236253   2.076   1.587  15.267  0.1446  0.5923 -0.3383
 4921TIP3    H136254   2.021   1.662  15.291  1.4909  0.8420  2.1455
 4921TIP3    H236255   2.126   1.568  15.346  0.3417 -2.5154 -1.1325
 4922TIP3   OH236256   5.653   1.352   2.450  0.6190 -0.2430 -0.9427
 4922TIP3    H136257   5.713   1.288   2.489 -0.0072 -0.3071 -0.0622
 4922TIP3    H236258   5.645   1.421   2.516 -0.0295 -0.0859 -1.1827
 4923TIP3   OH236259   1.117   0.827   1.112  0.2828  0.0851  0.2243
 4923TIP3    H136260   1.211   0.812   1.123 -0.0623 -1.1149  1.7679
 4923TIP3    H236261   1.101   0.812   1.018  1.3649 -1.3647  0.2511
 4924TIP3   OH236262   0.716   6.165  16.053 -0.3268  0.6778  0.3661
 4924TIP3    H136263   0.629   6.157  16.093 -0.4403 -1.4584 -0.2330
 4924TIP3    H236264   0.767   6.214  16.117 -1.6808  1.0027  1.2167
 4925TIP3   OH236265   2.536   0.583  16.801  0.0469  0.4727  0.7782
 4925TIP3    H136266   2.463   0.523  16.812  1.2999 -1.3550 -0.4887
 4925TIP3    H236267   2.496   0.669  16.788 -1.8250 -0.3518  1.0199
 4926TIP3   OH236268   5.940   4.403  16.415 -0.1742 -0.1205  0.0903
 4926TIP3    H136269   5.936   4.317  16.375 -0.5393  0.2883 -0.7658
 4926TIP3    H236270   5.977   4.460  16.347  1.7545  0.0447  1.2609
 4927TIP3   OH236271   6.706   4.318   3.496 -0.4294 -0.1168 -0.0179
 4927TIP3    H136272   6.619   4.285   3.517 -0.6603  0.7762  0.4721
 4927TIP3    H236273   6.726   4.378   3.568 -0.2267  1.1827 -1.1364
 4928TIP3   OH236274   1.997   3.825  13.156  0.5465  0.7485 -0.7635
 4928TIP3    H136275   2.065   3.869  13.106  0.6158  0.0379 -1.2985
 4928TIP3    H236276   1.999   3.735  13.126  0.1997  0.4411  0.1081
 4929TIP3   OH236277   4.701   5.450  13.203 -0.0199  0.2354  0.1950
 4929TIP3    H136278   4.704   5.527  13.145  0.2353  1.3793  1.6865
 4929TIP3    H236279   4.790   5.445  13.239  0.2531 -1.3888 -0.6694
 4930TIP3   OH236280   5.282   2.931  15.655 -0.1773 -0.6854 -0.2649
 4930TIP3    H136281   5.347   2.966  15.717  0.3584  1.2785 -1.8723
 4930TIP3    H236282   5.242   3.009  15.617 -3.2172 -1.8730  0.3767
 4931TIP3   OH236283   0.304   2.358  16.355  0.2331 -0.0644  0.5365
 4931TIP3    H136284   0.340   2.275  16.385  2.3657  1.1697  1.4806
 4931TIP3    H236285   0.247   2.335  16.282  2.5561 -2.1158 -0.6551
 4932TIP3   OH236286   0.002   2.238  15.487 -0.3903  0.2288  0.1075
 4932TIP3    H136287   0.053   2.256  15.566 -0.3732 -1.1383  0.4152
 4932TIP3    H236288   0.042   2.294  15.420 -0.4245  1.4262  1.0549
 4933TIP3   OH236289   1.683   5.429  16.488  0.2824 -0.2054 -0.3400
 4933TIP3    H136290   1.712   5.381  16.410  0.1362 -1.3015  0.2595
 4933TIP3    H236291   1.587   5.424  16.484  0.2848 -0.6417  0.1356
 4934TIP3   OH236292   5.846   2.518   3.474 -0.3229  0.0451 -0.1127
 4934TIP3    H136293   5.939   2.525   3.493  0.2581  3.3272 -3.6004
 4934TIP3    H236294   5.808   2.598   3.509 -1.0065  0.9205 -2.7110
 4935TIP3   OH236295   4.040   2.565   4.517 -0.4124  0.0133 -0.7907
 4935TIP3    H136296   4.050   2.602   4.604  1.3230  0.6421 -1.2287
 4935TIP3    H236297   4.126   2.527   4.497 -1.1071 -1.0738 -1.8007
 4936TIP3   OH236298   5.887   2.522  14.239  0.0576  0.1709 -0.0121
 4936TIP3    H136299   5.897   2.538  14.145 -0.9067  0.7526 -0.0220
 4936TIP3    H236300   5.961   2.566  14.279 -0.7817  1.8751 -0.3101
 4937TIP3   OH236301   3.894   5.686  11.161  0.2076  0.3350 -0.4125
 4937TIP3    H136302   3.857   5.704  11.074  0.6378 -0.8718 -0.8602
 4937TIP3    H236303   3.989   5.684  11.146  0.2978  0.4906  0.1558
 4938TIP3   OH236304   1.548   1.195   5.772 -0.2468  0.4434 -0.3038
 4938TIP3    H136305   1.630   1.243   5.782  0.2596 -0.7713  1.6910
 4938TIP3    H236306   1.557   1.150   5.688  0.3965  1.6897 -0.9098
 4939TIP3   OH236307   6.036   3.478  11.854  0.3189 -0.0872  0.0786
 4939TIP3    H136308   6.110   3.423  11.828  0.1553 -0.2423 -0.0595
 4939TIP3    H236309   5.961   3.441  11.808 -0.1446 -0.9386  1.5029
 4940TIP3   OH236310   2.466   4.564   5.000 -0.3369 -0.5323  0.1066
 4940TIP3    H136311   2.484   4.471   5.014 -0.0026 -0.5327 -0.3208
 4940TIP3    H236312   2.553   4.604   4.991 -0.5320 -0.4803 -1.6313
 4941TIP3   OH236313   0.050   2.867   2.919 -0.4654  0.4247  0.0404
 4941TIP3    H136314   0.130   2.817   2.938  0.0248  1.3020  0.3142
 4941TIP3    H236315  -0.019   2.820   2.966 -0.5025 -1.5973 -1.9298
 4942TIP3   OH236316   0.265   6.139   5.287 -0.2130 -0.4289  0.6214
 4942TIP3    H136317   0.348   6.099   5.311  0.5882  1.3627  0.9306
 4942TIP3    H236318   0.199   6.090   5.335  0.4055 -3.3925 -1.4133
 4943TIP3   OH236319   3.525   6.086   1.567  1.0999 -0.0277  0.2502
 4943TIP3    H136320   3.565   6.157   1.618  1.5419 -0.1000  0.0040
 4943TIP3    H236321   3.466   6.043   1.628  3.1428 -1.3938  1.2988
 4944TIP3   OH236322   2.255   0.026   1.825  0.6110 -0.5279  0.3567
 4944TIP3    H136323   2.268   0.093   1.757 -0.4938 -0.6739 -0.0056
 4944TIP3    H236324   2.162   0.005   1.820  0.3939 -0.1072  2.3340
 4945TIP3   OH236325   1.439   5.761  14.332  0.1455 -0.0033 -0.2976
 4945TIP3    H136326   1.491   5.766  14.252 -0.2440 -1.1662 -0.6319
 4945TIP3    H236327   1.411   5.670  14.337 -0.6928  0.2952  0.6264
 4946TIP3   OH236328   5.913   6.662   4.855 -0.3528 -0.7762 -0.0720
 4946TIP3    H136329   5.854   6.680   4.782 -0.9380 -1.8935  0.1202
 4946TIP3    H236330   5.872   6.705   4.930 -0.3155 -0.5535 -0.1802
 4947TIP3   OH236331   1.273   3.356  12.036  0.1999 -0.2401 -0.6423
 4947TIP3    H136332   1.337   3.380  11.969  2.3361 -0.2859  1.3127
 4947TIP3    H236333   1.205   3.308  11.988  1.4371  0.1053 -2.8271
 4948TIP3   OH236334   2.361   2.839   5.321 -0.0004 -0.0574  0.0185
 4948TIP3    H136335   2.411   2.776   5.373  0.5728  0.9552  0.7181
 4948TIP3    H236336   2.401   2.835   5.235  0.2020 -0.4579  0.1262
 4949TIP3   OH236337   4.191   3.766  15.009 -0.4956  0.3450 -0.3279
 4949TIP3    H136338   4.197   3.819  14.930 -0.3470  1.3624  0.3618
 4949TIP3    H236339   4.238   3.816  15.075  1.2219 -1.4804 -0.1059
 4950TIP3   OH236340   5.952   1.010   6.146 -0.4223  0.0335  0.2453
 4950TIP3    H136341   5.874   1.004   6.092 -1.1894  0.2311  1.3326
 4950TIP3    H236342   5.920   1.012   6.236  0.8733 -1.0956  0.7617
 4951TIP3   OH236343   6.240   6.210  15.597 -0.1811  0.3112  1.2685
 4951TIP3    H136344   6.313   6.151  15.578  0.8747  0.8678  3.5648
 4951TIP3    H236345   6.264   6.293  15.555 -0.2320  0.0555  0.7201
 4952TIP3   OH236346   3.847   3.998   5.099 -0.0321 -0.4397  0.0288
 4952TIP3    H136347   3.805   4.081   5.078 -0.8894 -1.2509 -1.5031
 4952TIP3    H236348   3.912   3.985   5.030  0.9805 -0.4480  0.9602
 4953TIP3   OH236349   0.883   1.260   0.404  0.2964  0.2133 -0.1559
 4953TIP3    H136350   0.971   1.297   0.412  0.3128 -0.0654  1.1440
 4953TIP3    H236351   0.825   1.335   0.400  0.6467  0.4087 -1.7919
 4954TIP3   OH236352   4.572   6.019   3.439  0.5421 -0.1254 -0.4317
 4954TIP3    H136353   4.646   6.002   3.498  0.3697 -3.3117 -1.0201
 4954TIP3    H236354   4.590   6.104   3.401  2.2384  0.6030  1.8992
 4955TIP3   OH236355   5.345   0.552  15.716 -0.1782 -0.4860 -0.1946
 4955TIP3    H136356   5.319   0.631  15.669  0.7919  0.6742  1.1650
 4955TIP3    H236357   5.439   0.546  15.702 -0.1197 -0.9268  0.3854
 4956TIP3   OH236358   6.512   1.358   4.081  0.0747  0.0473  0.1461
 4956TIP3    H136359   6.597   1.374   4.040  0.2861  2.6069  1.4994
 4956TIP3    H236360   6.510   1.417   4.157 -0.9404 -3.3830  2.9664
 4957TIP3   OH236361   0.013   6.255   0.146  0.2606 -0.3049  1.0659
 4957TIP3    H136362   0.020   6.347   0.172 -1.3380  0.3582 -0.7903
 4957TIP3    H236363  -0.055   6.254   0.079  2.7675 -2.2696 -1.5725
 4958TIP3   OH236364   0.006   4.760  12.544 -0.6052  0.3025  0.0009
 4958TIP3    H136365   0.003   4.817  12.467  0.1592  1.4814  0.8263
 4958TIP3    H236366   0.099   4.752  12.564 -0.8072  0.0316  0.8352
 4959TIP3   OH236367   0.114   2.185  17.172  0.2283 -0.2710  0.3002
 4959TIP3    H136368   0.076   2.240  17.102  0.5574  1.7730  1.6851
 4959TIP3    H236369   0.071   2.215  17.252  0.3274 -2.1567  1.0805
 4960TIP3   OH236370   5.701   5.829   5.191  0.5014  0.3124  0.1788
 4960TIP3    H136371   5.741   5.908   5.227 -0.2302  0.7726 -0.0037
 4960TIP3    H236372   5.675   5.854   5.102  1.8543 -0.6739 -0.5117
 4961TIP3   OH236373   3.691   1.814  15.843 -0.0161 -0.8232 -0.2818
 4961TIP3    H136374   3.753   1.772  15.902 -1.2453 -1.9214  0.2474
 4961TIP3    H236375   3.699   1.907  15.862  0.4507 -1.0687  0.7710
 4962TIP3   OH236376   2.114   5.782   3.608  0.1952  0.1284  1.0525
 4962TIP3    H136377   2.182   5.717   3.621 -0.8661 -1.5614 -1.5164
 4962TIP3    H236378   2.034   5.741   3.641 -0.9302 -0.8965 -2.7694
 4963TIP3   OH236379   2.989   4.187   1.912 -0.0446 -0.3282 -0.5674
 4963TIP3    H136380   3.025   4.275   1.906  2.2665 -1.2826 -1.2687
 4963TIP3    H236381   2.894   4.199   1.904  0.2030  2.1076 -0.2328
 4964TIP3   OH236382   2.082   5.783  12.404  0.1127 -0.0077 -0.0555
 4964TIP3    H136383   2.050   5.774  12.314  1.0655 -0.6833 -0.3232
 4964TIP3    H236384   2.098   5.694  12.433  1.6430  0.3252  0.1299
 4965TIP3   OH236385   4.683   2.647  12.022 -0.0139  0.1237 -0.3241
 4965TIP3    H136386   4.627   2.683  11.953 -0.0293  0.3155 -0.2100
 4965TIP3    H236387   4.717   2.565  11.985 -1.2771 -0.5718  0.0427
 4966TIP3   OH236388   0.427   2.978  17.101  0.1779 -0.0791  0.4300
 4966TIP3    H136389   0.438   2.935  17.016 -0.7511 -0.8289  0.6834
 4966TIP3    H236390   0.343   3.022  17.095  1.4528  2.3402 -0.0923
 4967TIP3   OH236391   5.666   6.718  11.927 -0.2539  0.6010  0.3169
 4967TIP3    H136392   5.635   6.706  11.837 -2.0353 -1.3651  1.1370
 4967TIP3    H236393   5.667   6.813  11.939 -1.6515  0.8546 -1.2469
 4968TIP3   OH236394   4.647   5.874  15.474  0.2764  0.7274 -0.6088
 4968TIP3    H136395   4.582   5.882  15.543 -0.3958 -0.4218 -1.1015
 4968TIP3    H236396   4.724   5.838  15.518  0.7711  2.5577  0.0753
 4969TIP3   OH236397   0.057   3.041   4.576  0.3773 -0.9341 -0.7507
 4969TIP3    H136398   0.046   2.954   4.537  1.1787 -1.6364  0.5209
 4969TIP3    H236399  -0.032   3.074   4.587  0.1302 -0.8647 -2.7997
 4970TIP3   OH236400   4.520   6.750  13.221  0.0714 -0.5687 -0.3442
 4970TIP3    H136401   4.446   6.778  13.167  1.4554 -0.6244 -2.3014
 4970TIP3    H236402   4.569   6.690  13.166  0.4268 -2.2237  1.7073
 4971TIP3   OH236403   5.522   2.799  13.457 -0.2688 -0.3205 -0.0913
 4971TIP3    H136404   5.596   2.751  13.494  0.3147 -0.3776 -1.3097
 4971TIP3    H236405   5.453   2.790  13.522  0.4035 -1.3129  0.5015
 4972TIP3   OH236406   6.626   2.876  14.384  0.2052 -0.9410  0.3012
 4972TIP3    H136407   6.589   2.959  14.415  1.1484  0.6384 -2.5344
 4972TIP3    H236408   6.554   2.834  14.337  0.3977 -0.4963 -0.4152
 4973TIP3   OH236409   5.448   0.798   3.618  0.0142 -0.1203 -0.1498
 4973TIP3    H136410   5.390   0.863   3.579  0.1052  0.6807  1.0362
 4973TIP3    H236411   5.485   0.841   3.695 -1.1243 -2.0866  1.5496
 4974TIP3   OH236412   6.425   3.145  14.817 -0.0753  0.0365 -0.3243
 4974TIP3    H136413   6.397   3.119  14.729  0.4292 -3.2561  0.3949
 4974TIP3    H236414   6.366   3.216  14.842 -1.8482 -0.6845 -2.3450
 4975TIP3   OH236415   5.088   2.735  15.707  0.3756  0.1942 -0.0876
 4975TIP3    H136416   5.033   2.803  15.746 -1.9381  0.7696 -4.0097
 4975TIP3    H236417   5.154   2.784  15.656  0.5310 -0.4822 -0.5460
 4976TIP3   OH236418   0.429   2.690  17.231  0.4846 -0.5013 -0.7434
 4976TIP3    H136419   0.375   2.728  17.301  0.4096  0.5287 -1.3349
 4976TIP3    H236420   0.519   2.709  17.257  0.4502  0.0490 -1.0007
 4977TIP3   OH236421   2.875   5.277   4.992  0.5390 -1.5124 -0.5846
 4977TIP3    H136422   2.830   5.305   4.912  0.1501 -0.2972  0.0424
 4977TIP3    H236423   2.936   5.348   5.011  0.5879 -1.7626  0.2309
 4978TIP3   OH236424   3.198   4.569  10.726 -0.1911 -0.4812 -0.2282
 4978TIP3    H136425   3.131   4.635  10.744 -0.1979 -0.9426  1.5885
 4978TIP3    H236426   3.274   4.598  10.776  0.5604 -0.6339 -1.2674
 4979TIP3   OH236427   2.485   2.596  15.597  0.3373 -0.3782  0.4339
 4979TIP3    H136428   2.459   2.666  15.657 -2.6863 -0.4249 -0.7268
 4979TIP3    H236429   2.479   2.516  15.649  0.2523 -0.1470  0.7801
 4980TIP3   OH236430   5.018   6.683   5.007 -0.8664 -0.7567  0.4091
 4980TIP3    H136431   4.988   6.635   4.929 -0.7351  1.4467 -1.0599
 4980TIP3    H236432   4.968   6.764   5.006  0.2548 -0.0189  1.7634
 4981TIP3   OH236433   2.538   3.934   5.946  0.2369  0.6890  0.1941
 4981TIP3    H136434   2.562   3.958   6.036 -0.7967 -0.0193  0.6728
 4981TIP3    H236435   2.552   3.840   5.942 -0.7773  0.5451 -0.0444
 4982TIP3   OH236436   1.126   4.310   3.837  0.4386 -0.6803 -0.0388
 4982TIP3    H136437   1.052   4.308   3.776  0.4088 -0.6783 -0.0030
 4982TIP3    H236438   1.106   4.383   3.896  1.4539  0.6139 -1.2520
 4983TIP3   OH236439   3.567   2.939   3.584 -0.1155 -0.4024  0.8992
 4983TIP3    H136440   3.554   2.857   3.536  0.0588  0.4200 -0.6074
 4983TIP3    H236441   3.479   2.967   3.610 -0.3140 -0.3865  0.2245
 4984TIP3   OH236442   0.746   6.256  13.572  0.2630 -0.3323  0.2587
 4984TIP3    H136443   0.679   6.319  13.598  1.6557  1.4121 -0.3461
 4984TIP3    H236444   0.780   6.221  13.654  0.3198  0.5720  0.6189
 4985TIP3   OH236445   0.354   3.311  14.510  0.1373 -0.3579  0.2171
 4985TIP3    H136446   0.417   3.379  14.486 -0.2493 -0.1129 -0.1071
 4985TIP3    H236447   0.326   3.274  14.426  0.0811 -0.6742  0.3755
 4986TIP3   OH236448   3.263   2.624  12.490  0.2070 -0.6374  0.2381
 4986TIP3    H136449   3.216   2.600  12.411 -0.6477 -0.0515  0.5665
 4986TIP3    H236450   3.232   2.712  12.512  2.0428  0.0914  0.0189
 4987TIP3   OH236451   1.443   1.430   5.235  0.7761 -0.0642 -0.2014
 4987TIP3    H136452   1.470   1.339   5.251 -0.2640 -0.5123 -0.9393
 4987TIP3    H236453   1.394   1.454   5.313 -0.7657 -0.8630 -0.9034
 4988TIP3   OH236454   5.051   2.774   5.168  0.1799  0.4680 -0.3972
 4988TIP3    H136455   5.141   2.804   5.183  0.8144 -1.4526 -0.2524
 4988TIP3    H236456   5.021   2.746   5.255 -0.4470  0.7662 -0.5131
 4989TIP3   OH236457   5.653   3.141   4.162  0.1543  0.1177  0.1782
 4989TIP3    H136458   5.703   3.220   4.184 -1.2966  0.8128  1.0675
 4989TIP3    H236459   5.675   3.124   4.070  0.4837  1.5654 -0.0260
 4990TIP3   OH236460   5.077   5.949  12.279  0.1401  0.7132  0.3446
 4990TIP3    H136461   5.096   5.856  12.296 -1.8298  0.1597 -0.2709
 4990TIP3    H236462   5.060   5.953  12.185  0.3212  1.7246  0.3509
 4991TIP3   OH236463   4.320   4.799  12.560  0.1298 -0.5386 -0.1420
 4991TIP3    H136464   4.386   4.765  12.500  0.8629 -0.7354  0.7474
 4991TIP3    H236465   4.284   4.876  12.517  1.2190 -0.2095 -0.4760
 4992TIP3   OH236466   5.704   3.076   1.178  0.0688  0.3574 -0.3506
 4992TIP3    H136467   5.787   3.028   1.178  0.1330  0.4700 -0.2735
 4992TIP3    H236468   5.661   3.048   1.258  0.6870  1.4489  0.3681
 4993TIP3   OH236469   2.217   4.824  13.057 -0.3638  0.0117  0.5645
 4993TIP3    H136470   2.215   4.888  12.986  0.2710 -0.5421  0.0435
 4993TIP3    H236471   2.125   4.804  13.073 -0.7298  2.6872  2.2393
 4994TIP3   OH236472   5.026   1.436  16.633  0.2488  0.0280 -0.1874
 4994TIP3    H136473   4.988   1.378  16.698  0.2712 -0.4239 -0.5771
 4994TIP3    H236474   5.034   1.521  16.678  1.8329 -0.6875  0.9410
 4995TIP3   OH236475   3.712   1.523  11.158 -0.2018 -0.3210 -0.7115
 4995TIP3    H136476   3.710   1.429  11.178  1.2805  0.0637  1.3831
 4995TIP3    H236477   3.734   1.526  11.064 -0.2521 -2.0657 -0.7990
 4996TIP3   OH236478   2.540   5.563   4.251 -0.0271 -0.2354 -0.4326
 4996TIP3    H136479   2.611   5.501   4.272  1.5547  1.7817  0.3348
 4996TIP3    H236480   2.534   5.560   4.156  3.0944  1.6745 -0.7543
 4997TIP3   OH236481   3.551   2.857   1.672 -0.5482 -0.2586 -0.2622
 4997TIP3    H136482   3.476   2.866   1.612 -1.8614 -0.1563  1.3747
 4997TIP3    H236483   3.535   2.922   1.740  0.2864 -1.2540  0.8944
 4998TIP3   OH236484   1.247   2.867  11.629  0.1026 -0.0149 -0.1912
 4998TIP3    H136485   1.294   2.865  11.546  2.8644  0.9360  1.2795
 4998TIP3    H236486   1.269   2.952  11.667 -1.6700 -0.1499  1.2347
 4999TIP3   OH236487   5.259   3.049   0.271  0.3467 -0.0448 -0.1414
 4999TIP3    H136488   5.346   3.009   0.273  0.3471 -0.0001  0.7176
 4999TIP3    H236489   5.242   3.076   0.361 -0.3817  0.3298 -0.3834
 5000TIP3   OH236490   2.257   3.701   5.907  0.3660  0.2652 -0.2722
 5000TIP3    H136491   2.280   3.610   5.928 -0.2253  0.4663  1.3385
 5000TIP3    H236492   2.194   3.726   5.975  0.5406  1.8868 -0.6903
 5001TIP3   OH236493   0.817   3.872   3.659 -0.4198 -0.4771 -0.1966
 5001TIP3    H136494   0.897   3.871   3.606 -0.3275  0.2865 -0.0780
 5001TIP3    H236495   0.820   3.790   3.709 -0.4067 -1.1070 -1.2152
 5002TIP3   OH236496   4.281   1.407   1.870  0.4929 -0.0161 -0.1883
 5002TIP3    H136497   4.199   1.426   1.825  0.4016 -0.1637 -0.0830
 5002TIP3    H236498   4.272   1.317   1.900  0.8027 -0.1203 -0.4111
 5003TIP3   OH236499   2.861   1.352   5.544  0.2875  0.1245  0.0217
 5003TIP3    H136500   2.932   1.320   5.599  0.3861  0.3156  0.0053
 5003TIP3    H236501   2.899   1.423   5.493  0.4815 -0.7968 -1.1171
 5004TIP3   OH236502   6.009   6.638   5.726  0.1206 -0.2867  0.3667
 5004TIP3    H136503   5.958   6.622   5.805  2.0706  1.3488  2.0091
 5004TIP3    H236504   5.953   6.692   5.671 -1.1261 -1.1772  0.7566
 5005TIP3   OH236505   2.102   2.877  15.195 -0.0835 -0.0322 -0.2049
 5005TIP3    H136506   2.173   2.814  15.209  0.6845  0.4418 -1.8348
 5005TIP3    H236507   2.054   2.877  15.278 -1.2581 -4.1772 -0.7643
 5006TIP3   OH236508   4.853   1.282   0.194 -0.3074 -0.2340  0.1890
 5006TIP3    H136509   4.792   1.325   0.254  1.7872  0.3585  1.9680
 5006TIP3    H236510   4.839   1.188   0.208 -1.3131 -0.1080  0.0411
 5007TIP3   OH236511   6.500   1.329   5.885 -0.1072  0.4237 -0.0845
 5007TIP3    H136512   6.419   1.281   5.905 -0.6872  2.7788  3.6396
 5007TIP3    H236513   6.569   1.263   5.889 -1.5092 -1.0845 -0.4467
 5008TIP3   OH236514   5.236   6.497   3.380  0.1181  0.4231  0.2148
 5008TIP3    H136515   5.283   6.414   3.393 -0.3171  0.4787  2.3579
 5008TIP3    H236516   5.295   6.563   3.416  0.1867  0.9893 -0.9167
 5009TIP3   OH236517   1.080   5.187   0.912  0.4739 -0.5421  0.2798
 5009TIP3    H136518   0.991   5.191   0.876  0.2747 -0.1498  0.8162
 5009TIP3    H236519   1.110   5.098   0.892  0.1121 -0.5472 -0.2605
 5010TIP3   OH236520   1.371   4.876   1.944 -0.1714  0.4714 -0.0779
 5010TIP3    H136521   1.381   4.817   2.019  0.2944  0.5781 -0.0588
 5010TIP3    H236522   1.276   4.891   1.940 -0.0776  1.5672  1.3471
 5011TIP3   OH236523   2.297   3.916  13.043 -0.3696 -0.1712 -0.5559
 5011TIP3    H136524   2.268   3.850  12.981 -1.5912 -1.0084  0.8787
 5011TIP3    H236525   2.387   3.891  13.065 -0.6182 -1.0200 -0.4845
 5012TIP3   OH236526   2.633   4.074   4.678 -0.1602  0.4322  0.6958
 5012TIP3    H136527   2.705   4.134   4.659 -0.7016  0.2068 -2.3578
 5012TIP3    H236528   2.673   4.002   4.727  1.7345  0.2124 -1.1488
 5013TIP3   OH236529   6.595   1.971   0.397  0.2722  0.0155 -0.0342
 5013TIP3    H136530   6.626   1.891   0.355 -2.2091 -0.8267 -0.3641
 5013TIP3    H236531   6.527   1.941   0.457  0.6165  1.6993  1.2296
 5014TIP3   OH236532   3.526   2.366   2.626  0.0208 -0.4759  0.0600
 5014TIP3    H136533   3.574   2.286   2.609  0.6601  0.3193 -1.9879
 5014TIP3    H236534   3.496   2.357   2.717  0.6839 -2.6883  0.0845
 5015TIP3   OH236535   1.016   0.919   5.984  0.1775  0.5213  0.4960
 5015TIP3    H136536   1.008   0.826   6.005 -0.7423  0.3411 -0.6068
 5015TIP3    H236537   0.927   0.954   5.994  0.6549  1.4581  1.6695
 5016TIP3   OH236538   0.719   6.375   6.752  0.2161 -0.2475  1.1901
 5016TIP3    H136539   0.656   6.411   6.690  2.7052  0.3075 -1.1280
 5016TIP3    H236540   0.747   6.449   6.805 -1.0279 -0.4948  2.2223
 5017TIP3   OH236541   0.003   2.340  12.905  0.1574  0.0120  0.1356
 5017TIP3    H136542   0.011   2.414  12.845 -0.3524  1.4145  1.7367
 5017TIP3    H236543  -0.078   2.296  12.880 -0.6685  1.2861  0.5171
 5018TIP3   OH236544   5.399   2.433   5.175  0.1764 -0.3906 -0.0600
 5018TIP3    H136545   5.309   2.449   5.145 -0.4555 -1.3366  1.3010
 5018TIP3    H236546   5.389   2.407   5.266  2.0031  1.5685  0.7224
 5019TIP3   OH236547   1.294   2.555  12.647  0.3972 -0.4382  0.4124
 5019TIP3    H136548   1.232   2.509  12.591 -0.4249  0.2080  0.7692
 5019TIP3    H236549   1.241   2.584  12.722  1.2975 -0.5391  1.0908
 5020TIP3   OH236550   4.523   2.332  12.478 -0.4500 -0.1009  0.0211
 5020TIP3    H136551   4.469   2.259  12.447  0.2182 -0.5775 -0.0234
 5020TIP3    H236552   4.461   2.389  12.525 -0.7870 -1.1976  0.9312
 5021TIP3   OH236553   5.895   1.897  13.621 -0.6343  0.1630 -0.3503
 5021TIP3    H136554   5.865   1.984  13.647  0.3763 -0.6645  3.9359
 5021TIP3    H236555   5.990   1.906  13.612 -0.6599 -0.2302 -1.0777
 5022TIP3   OH236556   6.253   3.375  12.217 -0.0289 -0.4896  0.0753
 5022TIP3    H136557   6.264   3.303  12.155 -1.6040 -0.7958  0.1281
 5022TIP3    H236558   6.253   3.334  12.303 -1.3137 -0.4992  0.0886
 5023TIP3   OH236559   1.397   3.505   2.448  0.5764  0.7550  0.4083
 5023TIP3    H136560   1.484   3.525   2.485  0.6773 -0.4430  0.8154
 5023TIP3    H236561   1.336   3.521   2.520  0.6520 -0.3762  0.7175
 5024TIP3   OH236562   0.475   2.193   6.324 -0.1102  0.1569 -0.4761
 5024TIP3    H136563   0.547   2.222   6.381 -0.1541  1.6225 -1.1399
 5024TIP3    H236564   0.403   2.175   6.384  0.3083  0.2539  0.0650
 5025TIP3   OH236565   6.729   4.459   0.919 -0.3610  0.2403  0.4591
 5025TIP3    H136566   6.794   4.392   0.900 -3.6988 -3.5427  1.6822
 5025TIP3    H236567   6.712   4.450   1.013 -0.1725  3.5426  0.8758
 5026TIP3   OH236568   6.614   1.334  14.123  0.2460  0.1850 -0.2666
 5026TIP3    H136569   6.607   1.407  14.062 -0.7878  0.1116 -0.2426
 5026TIP3    H236570   6.661   1.266  14.075 -0.0002  0.3640 -0.7594
 5027TIP3   OH236571   5.785   4.001   3.540 -0.6420 -0.4353 -0.2764
 5027TIP3    H136572   5.769   4.041   3.454 -0.7376 -0.9565 -0.5078
 5027TIP3    H236573   5.728   4.049   3.599  0.9133  1.2587 -0.1351
 5028TIP3   OH236574   6.488   3.315  12.686 -0.1812 -0.3384  0.3991
 5028TIP3    H136575   6.566   3.266  12.712 -0.0063  1.3456  3.2554
 5028TIP3    H236576   6.513   3.356  12.603  1.7727 -0.2789  0.9924
 5029TIP3   OH236577   4.740   4.584  16.818  0.0830 -0.9368 -0.2364
 5029TIP3    H136578   4.778   4.613  16.901  0.4302 -1.7719 -0.1006
 5029TIP3    H236579   4.808   4.530  16.777 -0.7266 -1.9586 -0.2649
 5030TIP3   OH236580   2.611   4.479   0.327 -0.1676 -0.0681  0.0289
 5030TIP3    H136581   2.550   4.531   0.380 -0.6670  0.3330 -0.9371
 5030TIP3    H236582   2.600   4.512   0.238  3.2796  1.8061  0.1908
 5031TIP3   OH236583   2.471   3.892  16.885  0.2220  0.2428  0.6036
 5031TIP3    H136584   2.493   3.965  16.943 -0.1723  1.1610 -0.3901
 5031TIP3    H236585   2.438   3.934  16.806  0.8882 -1.0090 -0.3335
 5032TIP3   OH236586   0.602   6.682  14.156 -0.8231 -0.1008 -0.0074
 5032TIP3    H136587   0.670   6.701  14.091 -0.3134 -0.4539  0.4249
 5032TIP3    H236588   0.579   6.768  14.192  1.2921 -0.2502  1.7563
 5033TIP3   OH236589   0.815   2.637   1.038  0.1706 -0.5195  0.0079
 5033TIP3    H136590   0.899   2.660   1.079 -0.4328  1.1073  0.3428
 5033TIP3    H236591   0.793   2.712   0.983 -0.5975 -1.3516 -0.8408
 5034TIP3   OH236592   6.235   2.034  11.187  0.1289 -0.1427  0.3987
 5034TIP3    H136593   6.144   2.033  11.217 -0.4974  2.0421 -1.2661
 5034TIP3    H236594   6.280   2.092  11.250 -0.8325  3.1034 -1.7730
 5035TIP3   OH236595   3.364   0.112   2.903  0.0775 -0.0485 -0.7755
 5035TIP3    H136596   3.454   0.141   2.885  0.5928 -1.1359 -0.0670
 5035TIP3    H236597   3.370   0.016   2.903 -1.2452 -0.1380 -1.4540
 5036TIP3   OH236598   1.481   3.402   3.968 -0.1422 -0.0842 -0.1375
 5036TIP3    H136599   1.398   3.371   4.004  0.4645 -1.0092  0.4788
 5036TIP3    H236600   1.479   3.373   3.877 -0.8144  0.5469 -0.3325
 5037TIP3   OH236601   1.871   6.146  16.663  0.0941 -0.7378 -0.1704
 5037TIP3    H136602   1.943   6.202  16.634 -1.4358  1.5088  0.2036
 5037TIP3    H236603   1.843   6.101  16.584  0.9347 -0.4956 -0.6209
 5038TIP3   OH236604   1.255   6.561   1.288  0.7171 -0.1721 -0.1383
 5038TIP3    H136605   1.272   6.511   1.208  0.4746  1.1630 -1.0464
 5038TIP3    H236606   1.217   6.643   1.256  1.3377  0.6776  1.3179
 5039TIP3   OH236607   3.238   6.070  11.402 -0.2749  0.0058 -0.0128
 5039TIP3    H136608   3.202   6.138  11.459  0.8731  0.5083  0.1361
 5039TIP3    H236609   3.330   6.064  11.427 -0.1363 -0.9265 -0.6985
 5040TIP3   OH236610   1.552   5.144  12.840 -0.4568 -0.1605  0.5744
 5040TIP3    H136611   1.460   5.134  12.817 -0.6621  1.1619  0.7745
 5040TIP3    H236612   1.599   5.088  12.778 -1.0925  2.2237 -2.1203
 5041TIP3   OH236613   2.767   0.780  11.841 -0.7641 -0.4882  0.9751
 5041TIP3    H136614   2.758   0.859  11.787  2.7080 -0.1049  0.8851
 5041TIP3    H236615   2.709   0.717  11.799 -2.3808  1.5008  0.1075
 5042TIP3   OH236616   2.551   4.102  10.205 -0.0115 -0.0964  0.5042
 5042TIP3    H136617   2.497   4.069  10.133  1.7560  0.4197 -1.0667
 5042TIP3    H236618   2.540   4.036  10.274 -1.3598 -0.8281 -0.3841
 5043TIP3   OH236619   1.540   2.984  15.110  0.6551  0.2758  0.1492
 5043TIP3    H136620   1.473   2.968  15.043  0.3664  0.3101  0.4323
 5043TIP3    H236621   1.600   2.910  15.102  0.8553  0.4918 -0.4351
 5044TIP3   OH236622   0.912   3.074  11.476  0.3691 -0.2528  0.0401
 5044TIP3    H136623   0.946   2.988  11.502 -1.4196 -1.4391 -1.4277
 5044TIP3    H236624   0.817   3.068  11.492  0.2967  1.6701  0.4977
 5045TIP3   OH236625   4.721   5.409   4.474 -0.1896  0.1684  0.2735
 5045TIP3    H136626   4.779   5.451   4.411 -0.2294  0.2852  0.3142
 5045TIP3    H236627   4.638   5.399   4.427 -0.2455  0.3349  0.3366
 5046TIP3   OH236628   0.177   2.352  14.784  0.5840 -0.3569  0.2716
 5046TIP3    H136629   0.136   2.302  14.855  0.0853  0.3989  0.5161
 5046TIP3    H236630   0.169   2.443  14.811  1.2770 -0.1281 -0.2954
 5047TIP3   OH236631   2.892   6.735   6.214  0.1138  0.6511  0.0846
 5047TIP3    H136632   2.921   6.665   6.273 -0.7023  0.3786  0.1635
 5047TIP3    H236633   2.875   6.690   6.131 -1.7046  0.5251  0.5096
 5048TIP3   OH236634   2.070   3.707  17.114 -0.4942 -0.3368 -0.2683
 5048TIP3    H136635   2.032   3.636  17.063  0.7007 -1.8069  0.8768
 5048TIP3    H236636   2.163   3.705  17.093 -0.3757  0.5921  0.1251
 5049TIP3   OH236637   0.323   2.846  16.391 -0.4771  0.3151 -0.0288
 5049TIP3    H136638   0.379   2.786  16.343  0.0241  1.0451 -0.3649
 5049TIP3    H236639   0.328   2.929  16.342  1.0754  1.4555  1.9605
 5050TIP3   OH236640   5.977   1.643   3.826 -0.7963  0.0311 -0.0357
 5050TIP3    H136641   5.886   1.664   3.851 -0.7972  2.0785 -1.6596
 5050TIP3    H236642   5.968   1.584   3.751 -0.7663 -1.6607  1.2618
 5051TIP3   OH236643   6.729   0.479  14.555  0.2602 -0.4878  0.0242
 5051TIP3    H136644   6.778   0.405  14.592  0.2393  0.2362  1.5506
 5051TIP3    H236645   6.645   0.476  14.600 -0.1707 -0.2214 -0.7624
 5052TIP3   OH236646   6.112   5.412  14.350 -0.1402  0.0258  0.6662
 5052TIP3    H136647   6.125   5.422  14.444 -0.2647  0.1840  0.6666
 5052TIP3    H236648   6.031   5.361  14.343 -0.5140  0.6228  0.6317
 5053TIP3   OH236649   6.458   5.824   0.660 -0.4643 -0.3615  0.7565
 5053TIP3    H136650   6.366   5.833   0.685 -0.7154  2.5142 -0.8907
 5053TIP3    H236651   6.490   5.915   0.655  1.8987 -1.2284 -0.6992
 5054TIP3   OH236652   0.016   1.127  13.157  0.6281 -0.2749  0.4178
 5054TIP3    H136653  -0.027   1.190  13.216  0.4021 -1.0417  1.0683
 5054TIP3    H236654   0.020   1.046  13.207  0.5114 -0.9073 -0.5917
 5055TIP3   OH236655   3.826   5.095   2.600 -0.1045  0.1699  0.3640
 5055TIP3    H136656   3.879   5.147   2.660  0.2694  1.0868 -0.7562
 5055TIP3    H236657   3.738   5.097   2.638 -0.0518  1.4401  0.4251
 5056TIP3   OH236658   4.910   2.916  15.836  0.5386 -0.3144 -0.1104
 5056TIP3    H136659   4.903   2.880  15.924  1.8526  0.3934  0.3130
 5056TIP3    H236660   4.824   2.903  15.797 -0.1326 -0.4201  1.3677
 5057TIP3   OH236661   1.580   2.547  16.750  0.1073  0.3939  0.5362
 5057TIP3    H136662   1.533   2.604  16.688 -0.4262 -1.1662 -0.5212
 5057TIP3    H236663   1.515   2.525  16.816 -0.4620 -1.0827 -0.4758
 5058TIP3   OH236664   3.794   5.142   5.673  0.5151 -0.2320  0.4500
 5058TIP3    H136665   3.822   5.052   5.689 -0.4635 -0.7698 -0.7775
 5058TIP3    H236666   3.705   5.146   5.708  0.3591  0.1048  0.0133
 5059TIP3   OH236667   4.146   1.636  16.738 -0.2925  0.0179  0.4616
 5059TIP3    H136668   4.224   1.623  16.683  0.8183  1.3864  1.6980
 5059TIP3    H236669   4.124   1.548  16.768 -0.0188 -0.5519 -0.9454
 5060TIP3   OH236670   6.046   2.458   0.151 -0.0530 -0.1009 -0.6815
 5060TIP3    H136671   5.984   2.400   0.106 -2.6620  1.0893  1.2886
 5060TIP3    H236672   6.049   2.537   0.096 -1.3009  0.3560 -0.0990
 5061TIP3   OH236673   4.192   3.850  14.361 -0.2239  0.1083 -0.0213
 5061TIP3    H136674   4.171   3.879  14.273 -2.0653  2.4787  1.1574
 5061TIP3    H236675   4.272   3.898  14.384 -0.0844 -0.0555 -0.1592
 5062TIP3   OH236676   1.740   5.555   0.125 -0.4254 -0.3579 -0.4248
 5062TIP3    H136677   1.760   5.553   0.032  0.7934  1.1748 -0.2115
 5062TIP3    H236678   1.768   5.469   0.158  0.1472 -0.4995 -1.2677
 5063TIP3   OH236679   4.037   6.071  11.110  0.1444  0.1387 -0.2354
 5063TIP3    H136680   4.054   5.982  11.079  2.3667  0.0831  1.0679
 5063TIP3    H236681   4.120   6.118  11.098  0.0868  1.0237  2.4137
 5064TIP3   OH236682   1.561   4.143  12.664  0.0308  0.0783 -0.4456
 5064TIP3    H136683   1.525   4.120  12.578 -1.5515  0.2910  0.1447
 5064TIP3    H236684   1.488   4.130  12.724  0.9335  0.6025  0.7719
 5065TIP3   OH236685   3.177   3.985   1.846 -0.2873  0.4738  0.0408
 5065TIP3    H136686   3.186   3.978   1.751  1.0186  0.0946  0.1763
 5065TIP3    H236687   3.090   4.022   1.859  0.5076  3.0260 -1.4097
 5066TIP3   OH236688   1.748   4.235   2.334  0.1943  0.0366  0.6823
 5066TIP3    H136689   1.737   4.253   2.428 -0.0892 -0.8281  0.8238
 5066TIP3    H236690   1.810   4.163   2.330  0.7247  0.5187  0.1677
 5067TIP3   OH236691   4.535   2.283   5.806  0.0022  0.6993  0.3293
 5067TIP3    H136692   4.558   2.364   5.851  1.5466  0.5064 -0.0733
 5067TIP3    H236693   4.500   2.311   5.722  2.7648  0.9431 -0.8148
 5068TIP3   OH236694   5.950   0.446  16.625  0.0458 -0.3063  0.3767
 5068TIP3    H136695   5.925   0.443  16.717 -0.0985  0.1660  0.3542
 5068TIP3    H236696   6.023   0.508  16.622  0.0700 -0.3439  0.1804
 5069TIP3   OH236697   4.571   3.691  16.808  0.2229 -0.0051 -0.1222
 5069TIP3    H136698   4.644   3.637  16.778 -0.4010 -0.4075 -0.9293
 5069TIP3    H236699   4.587   3.702  16.902  2.1595  1.2126 -0.5583
 5070TIP3   OH236700   5.565   0.432  14.102 -0.4493  0.1557  0.1948
 5070TIP3    H136701   5.551   0.526  14.091 -0.1124  0.0854 -0.8615
 5070TIP3    H236702   5.522   0.393  14.026 -0.0436 -0.5002  0.3058
 5071TIP3   OH236703   3.988   1.820   4.751  0.2398 -0.2160 -0.5424
 5071TIP3    H136704   3.946   1.811   4.836  0.2863  0.6568 -0.4229
 5071TIP3    H236705   4.066   1.873   4.768 -0.2037  0.6766 -1.2645
 5072TIP3   OH236706   5.203   3.472  16.851 -0.3969  0.2523  0.2980
 5072TIP3    H136707   5.259   3.510  16.918 -1.5101  2.7666 -0.1251
 5072TIP3    H236708   5.168   3.392  16.891  0.3473  0.7670  2.0387
 5073TIP3   OH236709   3.648   0.641  16.553  0.1610  0.2744  0.5034
 5073TIP3    H136710   3.636   0.720  16.606 -0.9126  0.7611 -0.4521
 5073TIP3    H236711   3.707   0.668  16.482 -0.6059  0.3694 -0.1119
 5074TIP3   OH236712   4.073   3.896   5.455  0.4337 -0.1657 -0.3698
 5074TIP3    H136713   3.995   3.841   5.449  0.6922 -0.5145 -0.5565
 5074TIP3    H236714   4.073   3.929   5.545  0.7774 -1.2206  0.0226
 5075TIP3   OH236715   0.391   4.174   3.078 -0.2116 -0.1622  0.1217
 5075TIP3    H136716   0.296   4.182   3.069 -0.3817 -1.8469  0.1291
 5075TIP3    H236717   0.426   4.185   2.990 -0.4091  0.4860  0.1247
 5076TIP3   OH236718   2.554   6.165  13.146 -0.1218  0.1952  0.6353
 5076TIP3    H136719   2.530   6.187  13.056  2.3289  2.2954  0.4151
 5076TIP3    H236720   2.627   6.104  13.137  0.9927  1.4204  1.1454
 5077TIP3   OH236721   5.875   1.859  16.252  0.2928  0.0905 -0.1491
 5077TIP3    H136722   5.865   1.806  16.173 -2.3222 -1.1191  0.9323
 5077TIP3    H236723   5.788   1.859  16.292  1.4872  0.9157  2.5754
 5078TIP3   OH236724   0.618   6.044   0.924  0.0914 -0.1164  0.3028
 5078TIP3    H136725   0.576   6.129   0.939 -0.1772 -0.4226  1.3520
 5078TIP3    H236726   0.627   6.038   0.829 -3.6708 -0.6870 -0.1291
 5079TIP3   OH236727   5.296   1.869  14.870  0.2455 -0.4966 -0.9164
 5079TIP3    H136728   5.228   1.825  14.920  1.0028 -1.4005 -0.6632
 5079TIP3    H236729   5.364   1.889  14.934  0.1972  0.4478 -1.1532
 5080TIP3   OH236730   4.218   5.590  17.020  0.0129  0.5045  0.5179
 5080TIP3    H136731   4.308   5.587  17.051 -0.2727 -1.5609  1.1709
 5080TIP3    H236732   4.220   5.547  16.935 -0.1702  1.4042  0.0549
 5081TIP3   OH236733   1.924   5.791  16.957  0.4563 -0.4703  0.3718
 5081TIP3    H136734   1.963   5.829  16.878 -0.0706 -0.5100  0.0907
 5081TIP3    H236735   1.983   5.719  16.981  2.1958  1.3313  1.6674
 5082TIP3   OH236736   5.721   4.667  16.196 -0.0386  0.1050  0.0200
 5082TIP3    H136737   5.660   4.650  16.268  0.9602 -1.0521  0.5872
 5082TIP3    H236738   5.733   4.762  16.198 -0.8405  0.2023  0.7083
 5083TIP3   OH236739   2.043   3.658  14.110  0.3836 -0.0242  0.1285
 5083TIP3    H136740   2.108   3.589  14.102  0.4851 -0.0701  1.3789
 5083TIP3    H236741   1.974   3.620  14.164  0.0157  0.5473  0.0621
 5084TIP3   OH236742   3.994   3.560   1.131 -0.4249 -0.1640 -0.2659
 5084TIP3    H136743   3.985   3.520   1.045 -0.5616 -1.9367  0.5450
 5084TIP3    H236744   4.087   3.583   1.137 -0.4178 -0.0133 -0.8898
 5085TIP3   OH236745   5.578   6.503   0.757 -0.1902  0.5341 -0.3386
 5085TIP3    H136746   5.500   6.534   0.802 -0.8581 -1.0936 -0.3448
 5085TIP3    H236747   5.640   6.482   0.827 -0.3825  0.2080 -0.2653
 5086TIP3   OH236748   1.624   0.943  15.059  0.2863  0.1806 -0.5300
 5086TIP3    H136749   1.605   0.922  14.968 -2.2197  0.3084 -0.0673
 5086TIP3    H236750   1.654   1.034  15.057 -0.3690  0.3829 -1.1702
 5087TIP3   OH236751   2.660   1.470  15.968  0.0552 -0.3731 -0.1258
 5087TIP3    H136752   2.713   1.391  15.952  0.0617  0.0261 -2.2304
 5087TIP3    H236753   2.710   1.540  15.927 -0.4528  0.5693  0.8586
 5088TIP3   OH236754   3.175   5.289   4.555 -0.2889 -0.0470 -0.2117
 5088TIP3    H136755   3.267   5.271   4.576 -0.3314 -3.8330 -2.8011
 5088TIP3    H236756   3.127   5.217   4.597 -2.0115  1.3843  0.3259
 5089TIP3   OH236757   0.472   4.916   5.000 -0.1007  0.6908  0.1505
 5089TIP3    H136758   0.403   4.864   5.041  0.1966  0.3071  0.1653
 5089TIP3    H236759   0.538   4.927   5.069  0.9622 -0.9760 -0.5655
 5090TIP3   OH236760   0.070   4.482   2.986 -0.3935 -0.3717 -0.1185
 5090TIP3    H136761   0.088   4.513   2.897  0.2490  0.9643  0.4610
 5090TIP3    H236762  -0.023   4.499   2.998 -0.4765 -0.5219 -0.5157
 5091TIP3   OH236763   4.570   5.408  13.775  0.2000  0.8608  0.3165
 5091TIP3    H136764   4.607   5.437  13.858  0.9698 -0.0076  0.2851
 5091TIP3    H236765   4.627   5.337  13.747 -0.2655  0.9158 -0.7836
 5092TIP3   OH236766   5.108   3.307   5.291  0.5284 -0.1232 -0.2220
 5092TIP3    H136767   5.082   3.397   5.309 -0.3114 -1.1149  4.0863
 5092TIP3    H236768   5.035   3.270   5.242  0.1911  1.0981 -0.6460
 5093TIP3   OH236769   6.115   4.643  12.627 -0.2675  0.2873  0.5499
 5093TIP3    H136770   6.072   4.558  12.631 -0.2479  0.2907  0.7998
 5093TIP3    H236771   6.176   4.635  12.553 -1.0240  0.4370 -0.1002
 5094TIP3   OH236772   2.282   3.263  11.720 -0.3759  0.1333  0.1395
 5094TIP3    H136773   2.211   3.206  11.749 -0.8695  1.2417  1.1173
 5094TIP3    H236774   2.251   3.297  11.635  0.0207 -1.2088 -0.5596
 5095TIP3   OH236775   2.512   4.399  12.172  0.0834  0.3489  0.0972
 5095TIP3    H136776   2.561   4.468  12.128  1.2665 -0.2236  0.4788
 5095TIP3    H236777   2.501   4.331  12.106 -2.4302  1.5108 -0.7412
 5096TIP3   OH236778   6.485   0.736   3.737  0.3091 -0.0857 -0.0808
 5096TIP3    H136779   6.555   0.671   3.743  0.2504 -0.1461 -0.0351
 5096TIP3    H236780   6.511   0.794   3.665 -0.0719 -0.6893 -0.7163
 5097TIP3   OH236781   6.297   1.472   1.836 -0.4607 -0.1127  0.3348
 5097TIP3    H136782   6.346   1.463   1.918 -1.9896 -0.9683  1.1853
 5097TIP3    H236783   6.346   1.420   1.773  1.1258  1.1427  0.5165
 5098TIP3   OH236784   4.182   5.139   2.567  0.0818 -0.4475 -0.3751
 5098TIP3    H136785   4.147   5.226   2.548 -0.6539 -0.8092 -0.7186
 5098TIP3    H236786   4.174   5.092   2.484  0.3713 -0.8774 -0.1616
 5099TIP3   OH236787   6.274   4.020   2.454 -0.0537 -0.4644  1.2968
 5099TIP3    H136788   6.227   4.103   2.461  1.6206  0.6848 -0.6257
 5099TIP3    H236789   6.259   3.992   2.364  0.8347 -1.3733  1.4329
 5100TIP3   OH236790   5.316   4.062  15.386  0.1094 -0.2362  0.0547
 5100TIP3    H136791   5.367   4.052  15.466  1.6062 -0.4926 -0.9040
 5100TIP3    H236792   5.321   3.977  15.343  0.0935  0.1610 -0.7533
 5101TIP3   OH236793   3.782   4.775  12.651  0.4527 -0.0030 -0.2514
 5101TIP3    H136794   3.689   4.782  12.629  0.4221 -0.7405 -0.3852
 5101TIP3    H236795   3.820   4.858  12.622 -0.0515  0.0511 -0.7754
 5102TIP3   OH236796   5.524   3.179  12.329  0.3712 -0.2858 -0.5207
 5102TIP3    H136797   5.445   3.155  12.377  1.1324  0.3400  1.0742
 5102TIP3    H236798   5.576   3.099  12.326  0.3279 -0.3233 -0.2892
 5103TIP3   OH236799   4.032   0.493  16.906 -0.0643 -0.4531 -0.3053
 5103TIP3    H136800   3.965   0.550  16.868  0.1088 -1.2178 -1.7973
 5103TIP3    H236801   4.079   0.548  16.968 -1.5509  0.3134  0.1434
 5104TIP3   OH236802   1.668   1.070   1.230 -0.2560 -1.0278  0.2201
 5104TIP3    H136803   1.703   1.031   1.150  0.3982 -1.4777  0.7135
 5104TIP3    H236804   1.740   1.123   1.265 -0.8768 -0.0136 -0.0200
 5105TIP3   OH236805   4.233   3.122   4.685 -0.0781  0.1418 -0.6548
 5105TIP3    H136806   4.165   3.055   4.673  0.2731 -0.0123 -1.8257
 5105TIP3    H236807   4.312   3.082   4.648  1.0766 -0.3661  2.2116
 5106TIP3   OH236808   2.899   3.878  15.856 -0.0183 -0.2600 -0.0421
 5106TIP3    H136809   2.945   3.794  15.861  1.3472  0.4623 -0.3647
 5106TIP3    H236810   2.945   3.927  15.788  0.7877  1.7368  1.8921
 5107TIP3   OH236811   2.709   0.782  13.296  0.1436  0.4730  0.8234
 5107TIP3    H136812   2.755   0.833  13.231 -0.0910  2.1750  1.9639
 5107TIP3    H236813   2.617   0.806  13.285 -0.0989 -0.4513  0.7264
 5108TIP3   OH236814   5.850   2.246   3.328 -0.5545 -0.3618 -0.0765
 5108TIP3    H136815   5.887   2.327   3.292 -1.8155  1.0744  1.7558
 5108TIP3    H236816   5.756   2.261   3.328 -0.8243 -2.0209 -0.1159
 5109TIP3   OH236817   5.035   2.779  16.761  0.3200  0.4983 -0.5505
 5109TIP3    H136818   5.030   2.866  16.723  3.1073  0.8817 -0.1706
 5109TIP3    H236819   5.095   2.731  16.704 -1.0043 -1.1354 -0.6366
 5110TIP3   OH236820   2.352   6.481   4.009 -0.1575  0.4012 -0.9850
 5110TIP3    H136821   2.389   6.496   4.096 -0.4874  1.3453 -0.9995
 5110TIP3    H236822   2.303   6.399   4.018  1.2430 -0.4227 -0.7506
 5111TIP3   OH236823   2.120   1.925  10.757  0.4243 -0.1705 -0.1424
 5111TIP3    H136824   2.200   1.963  10.720  0.5937 -0.7962 -0.4239
 5111TIP3    H236825   2.052   1.946  10.693  0.6504 -0.9437 -0.6423
 5112TIP3   OH236826   5.567   6.087  16.962 -0.1936 -0.2841  0.2852
 5112TIP3    H136827   5.532   6.035  17.035 -1.0162  0.4519  0.4313
 5112TIP3    H236828   5.498   6.083  16.896  0.6705 -1.1753 -0.5648
 5113TIP3   OH236829   2.348   1.903   0.517  0.2110  0.1953  0.5673
 5113TIP3    H136830   2.266   1.924   0.561  0.1328 -0.4265  0.7150
 5113TIP3    H236831   2.392   1.987   0.507 -1.5555  0.8937 -1.7297
 5114TIP3   OH236832   1.417   1.162  11.416 -0.0849 -0.9705 -0.1978
 5114TIP3    H136833   1.407   1.093  11.350 -0.3380 -0.1750 -1.0114
 5114TIP3    H236834   1.355   1.230  11.388 -1.6775 -1.4621  2.0005
 5115TIP3   OH236835   2.158   1.765   1.642 -0.3829 -0.4372 -0.4455
 5115TIP3    H136836   2.190   1.831   1.580 -0.3842 -1.4488 -1.5417
 5115TIP3    H236837   2.214   1.775   1.719 -0.0218  0.4697 -0.8220
 5116TIP3   OH236838   4.817   2.826  15.460  0.4393 -0.4207  0.0428
 5116TIP3    H136839   4.766   2.887  15.407  0.5149 -0.6036 -0.2408
 5116TIP3    H236840   4.897   2.874  15.482  0.5816 -0.4884 -0.3354
 5117TIP3   OH236841   3.603   0.227  11.835  0.6775 -0.1321  0.6227
 5117TIP3    H136842   3.568   0.140  11.858 -0.2445  0.1712  0.3900
 5117TIP3    H236843   3.666   0.210  11.765  0.4207 -0.6046  0.5058
 5118TIP3   OH236844   2.120   3.774   3.865 -0.4535 -0.4168 -0.0012
 5118TIP3    H136845   2.045   3.755   3.922 -0.7570  2.8168  0.7946
 5118TIP3    H236846   2.095   3.855   3.820  1.1484 -1.1803 -2.3127
 5119TIP3   OH236847   6.029   2.828  11.178  0.1475 -0.0152  0.0991
 5119TIP3    H136848   6.058   2.786  11.097 -0.6090  0.2936 -0.3356
 5119TIP3    H236849   6.071   2.914  11.177  0.3825 -0.1276  0.1891
 5120TIP3   OH236850   1.309   1.546  14.421 -0.1938 -0.1767  0.0291
 5120TIP3    H136851   1.397   1.565  14.389  0.1889 -1.1996  0.4613
 5120TIP3    H236852   1.255   1.616  14.384  0.5832 -0.2213 -1.2296
 5121TIP3   OH236853   3.057   0.986   5.778 -0.0567 -0.4633  0.6839
 5121TIP3    H136854   3.000   1.045   5.827  1.3299  1.2303  0.2838
 5121TIP3    H236855   3.017   0.981   5.691  1.1511  1.8624 -0.0387
 5122TIP3   OH236856   6.427   2.733   2.443  0.4485  0.1585  0.5105
 5122TIP3    H136857   6.378   2.759   2.365  1.9716  0.2810 -0.4311
 5122TIP3    H236858   6.517   2.759   2.425  1.5663 -3.2792  0.6564
 5123TIP3   OH236859   1.762   3.338  11.274  0.1135  0.0972 -0.0583
 5123TIP3    H136860   1.678   3.373  11.303  0.9765  2.5482 -0.4112
 5123TIP3    H236861   1.820   3.349  11.349  0.2209 -1.2817  0.0742
 5124TIP3   OH236862   5.687   2.705  12.319  0.4436 -0.9062  0.2450
 5124TIP3    H136863   5.597   2.733  12.331  0.6588 -0.0396 -0.1503
 5124TIP3    H236864   5.731   2.781  12.280  1.1100 -1.6703 -0.5024
 5125TIP3   OH236865   0.457   2.346  14.888  0.0843  0.2741  0.2440
 5125TIP3    H136866   0.392   2.390  14.833  0.3415 -0.3475 -0.5599
 5125TIP3    H236867   0.405   2.296  14.951 -0.2782 -1.9056 -1.7095
 5126TIP3   OH236868   3.485   2.469  14.102 -0.2189 -0.3074 -0.5179
 5126TIP3    H136869   3.576   2.498  14.105 -0.6723  1.2084 -0.8983
 5126TIP3    H236870   3.477   2.408  14.175  0.8489  0.2870  0.1064
 5127TIP3   OH236871   1.308   0.987  13.059 -0.1237  0.2622  0.0012
 5127TIP3    H136872   1.258   1.065  13.038  0.0553 -0.1745 -2.2296
 5127TIP3    H236873   1.249   0.914  13.036  0.5796 -0.2431 -0.2281
 5128TIP3   OH236874   0.331   1.962   1.764 -0.2990 -0.6317 -0.1669
 5128TIP3    H136875   0.416   1.951   1.719 -1.3826 -1.7418 -2.0358
 5128TIP3    H236876   0.304   1.873   1.785 -1.1236 -0.3032  0.1809
 5129TIP3   OH236877   6.592   6.612   6.122  0.0508 -0.4398 -0.3823
 5129TIP3    H136878   6.627   6.686   6.073  1.8714 -0.2887  1.1151
 5129TIP3    H236879   6.643   6.610   6.203 -1.2611 -2.1718  0.4363
 5130TIP3   OH236880   3.693   6.057  16.556  0.3465 -0.0051  0.2267
 5130TIP3    H136881   3.645   5.978  16.579  0.9456 -0.2203  0.7565
 5130TIP3    H236882   3.783   6.040  16.584  0.7261  0.4106 -0.6965
 5131TIP3   OH236883   0.751   6.170   1.476  0.1475 -0.4347 -0.0380
 5131TIP3    H136884   0.676   6.228   1.482  0.1464 -0.2614 -1.5460
 5131TIP3    H236885   0.821   6.224   1.441  1.3457 -0.2869  2.4620
 5132TIP3   OH236886   3.979   4.133  15.495  0.3586 -0.5974 -0.6482
 5132TIP3    H136887   3.912   4.097  15.552  1.7568 -2.4545 -0.1336
 5132TIP3    H236888   4.049   4.159  15.554  0.5522  0.3214 -1.2710
 5133TIP3   OH236889   0.486   0.893   2.411  0.3045  0.3378 -0.4367
 5133TIP3    H136890   0.538   0.952   2.357  2.1922  0.7711  1.7249
 5133TIP3    H236891   0.515   0.912   2.501 -1.5054 -1.4975  0.5713
 5134TIP3   OH236892   1.386   2.741  16.646 -0.6906 -0.7813 -0.3182
 5134TIP3    H136893   1.387   2.748  16.551 -0.6886 -0.3749 -0.2931
 5134TIP3    H236894   1.332   2.815  16.675 -1.5488 -1.5014 -0.0595
 5135TIP3   OH236895   5.916   4.377  13.350  0.3462  0.4162 -0.1497
 5135TIP3    H136896   5.906   4.305  13.287 -0.8107  0.3145  0.1361
 5135TIP3    H236897   5.997   4.421  13.323  0.8946 -0.7868 -0.5325
 5136TIP3   OH236898   1.440   1.281  16.461 -0.0876  0.5555  0.2053
 5136TIP3    H136899   1.385   1.219  16.510 -0.2145 -1.0360 -1.8527
 5136TIP3    H236900   1.393   1.363  16.463 -1.9638 -0.4743 -0.4328
 5137TIP3   OH236901   5.653   5.713  15.553 -0.2071 -0.5213  0.1030
 5137TIP3    H136902   5.737   5.736  15.592 -0.1991 -1.4734  0.6579
 5137TIP3    H236903   5.639   5.779  15.486  1.9892 -1.5721 -1.4417
 5138TIP3   OH236904   3.982   4.534  15.585  0.3888 -0.5319  0.1631
 5138TIP3    H136905   3.952   4.458  15.636 -1.0207 -0.3212 -0.3257
 5138TIP3    H236906   3.969   4.509  15.494  2.3332 -0.6680 -0.0905
 5139TIP3   OH236907   4.019   0.243   2.834  0.5459  0.1074 -0.3113
 5139TIP3    H136908   4.011   0.177   2.766 -0.3686 -0.5879  0.4602
 5139TIP3    H236909   3.941   0.232   2.888  2.0555 -0.4575  1.8352
 5140TIP3   OH236910   2.403   2.013  15.520 -0.3292  0.6592  0.3123
 5140TIP3    H136911   2.441   2.016  15.433 -0.2928  1.5226  0.3555
 5140TIP3    H236912   2.324   1.959  15.511  1.1247 -1.5329  0.3150
 5141TIP3   OH236913   5.708   4.742   0.624 -0.3038  0.1075 -0.2350
 5141TIP3    H136914   5.799   4.719   0.643 -0.2327  1.0343  0.5711
 5141TIP3    H236915   5.707   4.761   0.530  0.1174 -0.8850 -0.4489
 5142TIP3   OH236916   1.673   2.650   0.132 -0.6197 -0.1504 -0.3995
 5142TIP3    H136917   1.679   2.584   0.202 -1.3047 -0.8226 -0.9731
 5142TIP3    H236918   1.759   2.646   0.089  0.1437  0.9076  0.9578
 5143TIP3   OH236919   0.243   4.324  12.401 -0.4310  0.1817  0.5607
 5143TIP3    H136920   0.314   4.383  12.426  1.5371 -1.6157 -0.6517
 5143TIP3    H236921   0.258   4.244  12.452 -1.5645 -0.2419  0.2631
 5144TIP3   OH236922   6.809   4.941  16.245  0.3642  0.6062 -0.8182
 5144TIP3    H136923   6.884   4.888  16.271 -1.8316 -1.3739  1.7791
 5144TIP3    H236924   6.772   4.972  16.328 -1.5990  1.6642 -2.0439
 5145TIP3   OH236925   3.174   0.320  16.996  0.0738 -0.2898 -0.3403
 5145TIP3    H136926   3.191   0.391  16.934 -0.4201 -0.7589 -1.0184
 5145TIP3    H236927   3.240   0.254  16.975  1.9179  0.8396  1.6975
 5146TIP3   OH236928   3.521   4.515   0.670 -0.3578  0.1919  0.5057
 5146TIP3    H136929   3.612   4.534   0.690  0.4847 -0.2961 -2.5257
 5146TIP3    H236930   3.477   4.600   0.672  0.5174  0.6511  0.3123
 5147TIP3   OH236931   4.776   6.256   2.129  0.2798  0.4254 -0.3643
 5147TIP3    H136932   4.746   6.215   2.048 -1.0765  1.5849 -0.4624
 5147TIP3    H236933   4.700   6.251   2.188  1.8758 -2.3214  1.6077
 5148TIP3   OH236934   3.267   6.168  14.108 -0.2483 -0.2282 -0.0211
 5148TIP3    H136935   3.346   6.145  14.059 -0.2353 -2.0165  0.8156
 5148TIP3    H236936   3.198   6.170  14.041  0.6642  2.5422 -0.9682
 5149TIP3   OH236937   5.826   5.783   0.739  0.3585  0.0401 -0.3023
 5149TIP3    H136938   5.845   5.774   0.645 -1.5376  0.3333 -0.7203
 5149TIP3    H236939   5.748   5.730   0.754  0.2069  0.5996  0.9612
 5150TIP3   OH236940   1.795   2.494  13.780  0.0856  0.0309  0.4657
 5150TIP3    H136941   1.889   2.503  13.762  0.6329 -2.7906  1.5645
 5150TIP3    H236942   1.778   2.558  13.850  1.5141 -0.3530  1.2001
 5151TIP3   OH236943   5.556   4.771   1.047 -0.3364  0.4304 -0.1390
 5151TIP3    H136944   5.475   4.738   1.085  0.5622 -1.0836  0.5414
 5151TIP3    H236945   5.562   4.730   0.961 -1.2264  2.0522 -0.9995
 5152TIP3   OH236946   2.950   0.841   0.957 -0.2233  0.3176 -0.7826
 5152TIP3    H136947   2.931   0.881   0.871 -0.9666  1.5880 -0.0405
 5152TIP3    H236948   3.025   0.891   0.990 -1.2895  1.2559  0.2485
 5153TIP3   OH236949   1.851   6.058   2.848  0.4757  0.4685  0.2555
 5153TIP3    H136950   1.831   5.981   2.795  1.8624  0.5641 -0.4484
 5153TIP3    H236951   1.796   6.049   2.926 -1.1767  0.0277 -0.9311
 5154TIP3   OH236952   3.349   1.616  14.722 -0.7871  0.1173 -0.5567
 5154TIP3    H136953   3.364   1.710  14.714 -1.0145  0.1983 -0.0747
 5154TIP3    H236954   3.275   1.598  14.664  0.2861 -0.0506 -1.9053
 5155TIP3   OH236955   0.879   2.035  13.753 -0.2801  0.2622 -0.0404
 5155TIP3    H136956   0.895   2.044  13.847  0.2895  1.6975 -0.2551
 5155TIP3    H236957   0.951   1.980  13.721  0.1435  0.6764  0.1948
 5156TIP3   OH236958   1.233   5.493  14.530 -0.2085  0.0334  0.1024
 5156TIP3    H136959   1.156   5.550  14.527 -0.3447 -0.1399  0.2829
 5156TIP3    H236960   1.278   5.510  14.447  1.2610  2.4822  1.3380
 5157TIP3   OH236961   1.372   2.698   1.120  0.5886 -0.3360  0.0430
 5157TIP3    H136962   1.366   2.618   1.068  0.0456  0.1206 -0.6086
 5157TIP3    H236963   1.448   2.685   1.177 -0.4166 -1.9681  1.0511
 5158TIP3   OH236964   3.367   3.518   6.085 -0.1925 -0.0389 -0.5127
 5158TIP3    H136965   3.285   3.554   6.117 -1.0282 -1.8027 -0.6511
 5158TIP3    H236966   3.429   3.534   6.156 -0.4080  2.0831 -0.7551
 5159TIP3   OH236967   1.403   4.768  13.357  0.6810 -0.6026 -0.1311
 5159TIP3    H136968   1.344   4.726  13.420  0.3093 -0.2060 -0.2100
 5159TIP3    H236969   1.359   4.849  13.334  0.2334 -1.3160 -1.8403
 5160TIP3   OH236970   1.114   4.440   2.195 -0.0080 -0.2146 -0.2765
 5160TIP3    H136971   1.151   4.392   2.120 -2.9416 -1.5513 -0.9218
 5160TIP3    H236972   1.055   4.504   2.156  0.7396  1.1689  0.8066
 5161TIP3   OH236973   6.088   1.720   4.538  0.0078 -0.0005  0.1679
 5161TIP3    H136974   6.035   1.674   4.473  0.4447 -0.8248  0.3871
 5161TIP3    H236975   6.102   1.656   4.608 -0.2179  0.7845  0.9509
 5162TIP3   OH236976   0.831   2.016   1.237  0.7355 -0.0517 -0.4357
 5162TIP3    H136977   0.915   2.062   1.241  0.8166 -0.2067 -0.3585
 5162TIP3    H236978   0.833   1.956   1.311  0.1847  0.5777  0.0897
 5163TIP3   OH236979   6.236   0.169   4.178  0.0070 -0.6240  0.3569
 5163TIP3    H136980   6.212   0.131   4.093 -0.1201  0.7197 -0.2228
 5163TIP3    H236981   6.278   0.252   4.156 -1.2347  0.3778  1.6412
 5164TIP3   OH236982   3.599   2.543   1.808 -0.1341 -0.0187  0.2483
 5164TIP3    H136983   3.630   2.507   1.891 -2.3734  1.3694  1.7144
 5164TIP3    H236984   3.653   2.621   1.793  0.3382 -0.3293  0.3340
 5165TIP3   OH236985   5.246   0.682   4.405 -0.2783 -0.3297 -0.0680
 5165TIP3    H136986   5.167   0.635   4.433 -0.2723  1.0861  2.4463
 5165TIP3    H236987   5.218   0.772   4.394  0.8155  0.0290  0.0094
 5166TIP3   OH236988   4.643   6.368  15.225 -0.2463  0.5003 -0.4415
 5166TIP3    H136989   4.586   6.301  15.188 -0.1583  0.1744  0.0024
 5166TIP3    H236990   4.677   6.415  15.150 -0.0668 -0.1559 -0.7760
 5167TIP3   OH236991   5.797   0.436  16.154  0.0702  0.3928 -0.2216
 5167TIP3    H136992   5.887   0.430  16.186  0.2944 -0.4210 -0.9970
 5167TIP3    H236993   5.751   0.485  16.222  0.2491 -2.3718  1.9818
 5168TIP3   OH236994   4.395   6.671  14.491 -0.5036  0.0261  0.1727
 5168TIP3    H136995   4.304   6.673  14.460 -0.8532  0.9071  1.2021
 5168TIP3    H236996   4.394   6.611  14.565 -0.1509 -0.3203 -0.1047
 5169TIP3   OH236997   0.065   1.569  12.272 -0.0325 -0.3030  0.0329
 5169TIP3    H136998   0.101   1.526  12.349  0.7416 -0.4124 -0.3904
 5169TIP3    H236999   0.085   1.510  12.199  1.3061  0.8994 -0.5942
 5170TIP3   OH237000   3.613   2.118  15.356 -0.0981  0.2049 -0.2271
 5170TIP3    H137001   3.633   2.097  15.265 -1.0988  1.2391 -0.6934
 5170TIP3    H237002   3.675   2.188  15.378 -1.4908  1.6837 -0.9019
 5171TIP3   OH237003   2.486   3.400  14.659 -0.1559  0.0204 -0.1381
 5171TIP3    H137004   2.458   3.416  14.568  0.2425 -0.4033 -0.3400
 5171TIP3    H237005   2.502   3.487  14.695 -0.6344  0.2110 -0.3717
 5172TIP3   OH237006   6.532   5.197   1.924 -0.3648 -0.3211 -0.2907
 5172TIP3    H137007   6.536   5.119   1.870  0.6413  0.6424 -1.6512
 5172TIP3    H237008   6.577   5.172   2.005 -0.9026 -1.4285 -0.3243
 5173TIP3   OH237009   6.282   2.630   4.986  0.5407 -0.5853 -0.4487
 5173TIP3    H137010   6.278   2.616   4.891 -0.8613 -1.3061 -0.3038
 5173TIP3    H237011   6.206   2.686   5.005  1.1519  0.0456  0.1734
 5174TIP3   OH237012   3.862   5.847   5.824  0.0181 -0.5857 -0.3847
 5174TIP3    H137013   3.929   5.915   5.832 -1.2095  0.6125 -0.0404
 5174TIP3    H237014   3.878   5.789   5.898 -0.1662  0.4864  0.5295
 5175TIP3   OH237015   2.922   4.430   3.233  0.4994 -0.6047  0.6939
 5175TIP3    H137016   2.848   4.458   3.180 -0.4930 -3.8835  0.2135
 5175TIP3    H237017   2.888   4.357   3.285  2.8748 -0.9007  1.9052
 5176TIP3   OH237018   4.563   2.237   0.293 -0.0917  0.0894 -0.6453
 5176TIP3    H137019   4.607   2.215   0.210  0.3544  1.5306 -0.8075
 5176TIP3    H237020   4.612   2.189   0.359  0.6570  0.3220 -1.0257
 5177TIP3   OH237021   0.248   5.489   5.784 -0.0876  0.1467  0.3460
 5177TIP3    H137022   0.284   5.468   5.871  1.1926 -0.2368 -0.2567
 5177TIP3    H237023   0.287   5.423   5.726  0.1555  1.2364 -0.7467
 5178TIP3   OH237024   3.020   1.771  11.666 -0.7243 -0.2916 -0.0678
 5178TIP3    H137025   2.929   1.789  11.686 -0.7312  0.8481 -1.0566
 5178TIP3    H237026   3.046   1.841  11.605  0.5995 -0.9892 -0.3341
 5179TIP3   OH237027   5.416   0.465   1.425 -1.0544  0.5253 -0.1090
 5179TIP3    H137028   5.331   0.424   1.444 -0.7896 -0.4298 -0.9555
 5179TIP3    H237029   5.471   0.393   1.394  0.0144  1.1753  0.2425
 5180TIP3   OH237030   1.791   1.263  11.211 -0.2982  0.1516 -0.2195
 5180TIP3    H137031   1.749   1.342  11.245  1.0707  0.3312  1.0875
 5180TIP3    H237032   1.828   1.220  11.288 -2.3808 -2.6067 -0.6801
 5181TIP3   OH237033   4.454   3.405  12.528  0.1566  0.3910  0.2494
 5181TIP3    H137034   4.398   3.330  12.547 -1.6673  0.8074 -3.0592
 5181TIP3    H237035   4.431   3.470  12.593 -0.4631 -0.8117  1.2435
 5182TIP3   OH237036   5.485   1.502  13.798  0.0622  0.2252 -0.0906
 5182TIP3    H137037   5.408   1.506  13.742 -0.4866  1.1895  0.7053
 5182TIP3    H237038   5.506   1.409  13.804 -1.4804 -0.1107  0.2561
 5183TIP3   OH237039   3.280   4.460  11.173 -0.6729  0.4402  0.3789
 5183TIP3    H137040   3.309   4.394  11.110 -1.4729 -1.1986  1.6789
 5183TIP3    H237041   3.315   4.542  11.140  0.3272 -0.6323 -1.2956
 5184TIP3   OH237042   4.601   3.863  12.699 -0.1401  0.1016 -0.0536
 5184TIP3    H137043   4.528   3.853  12.638 -1.1501 -1.2861  1.3544
 5184TIP3    H237044   4.618   3.775  12.732  2.1903  0.4100 -0.3725
 5185TIP3   OH237045   0.914   5.754   1.018 -0.2884 -0.1423  0.3572
 5185TIP3    H137046   0.967   5.833   1.026  0.3493 -0.0390 -3.8110
 5185TIP3    H237047   0.978   5.683   1.013 -0.7173 -0.5159  0.1332
 5186TIP3   OH237048   6.155   2.772   0.323 -0.5413 -0.4913  0.3927
 5186TIP3    H137049   6.190   2.693   0.364  1.0713  0.2772  0.5474
 5186TIP3    H237050   6.164   2.840   0.390 -1.4334 -0.0669  0.0837
 5187TIP3   OH237051   0.723   5.758  11.588  0.1785 -0.5668  0.6118
 5187TIP3    H137052   0.813   5.727  11.587  1.2250  2.2983  1.0841
 5187TIP3    H237053   0.689   5.734  11.674  1.3952  0.7852  1.4740
 5188TIP3   OH237054   3.172   2.270   5.609 -0.2296 -0.4329 -0.0991
 5188TIP3    H137055   3.178   2.178   5.581 -1.0240 -0.3829 -0.4513
 5188TIP3    H237056   3.093   2.302   5.567 -0.0175  0.3863  0.1249
 5189TIP3   OH237057   0.930   6.232  14.993  0.1120 -0.2868 -0.1212
 5189TIP3    H137058   0.912   6.220  15.087 -1.2111 -0.0340 -0.3386
 5189TIP3    H237059   1.018   6.269  14.991 -0.2350  0.6363  1.0689
 5190TIP3   OH237060   0.477   5.064  16.592 -0.1593 -0.0592  0.7195
 5190TIP3    H137061   0.401   5.016  16.558  0.7736 -1.9469  1.2583
 5190TIP3    H237062   0.531   5.081  16.515 -1.4730  1.9673  0.2154
 5191TIP3   OH237063   0.258   1.690   1.548 -0.1675  0.2499 -0.6037
 5191TIP3    H137064   0.307   1.634   1.609  1.3111  1.8596 -0.2818
 5191TIP3    H237065   0.169   1.690   1.583 -0.3638 -2.4613 -1.0063
 5192TIP3   OH237066   6.258   1.081  13.128  0.4970 -0.1419  0.2574
 5192TIP3    H137067   6.191   1.073  13.196  1.2081  0.0343  0.9890
 5192TIP3    H237068   6.338   1.052  13.170  1.3239  1.8451  0.1047
 5193TIP3   OH237069   6.638   1.243  12.270 -0.0905  0.0402  0.1603
 5193TIP3    H137070   6.547   1.261  12.248  0.2016  0.3476 -0.8344
 5193TIP3    H237071   6.639   1.151  12.296 -0.9885  0.5110  1.9246
 5194TIP3   OH237072   5.089   6.531   3.684  0.1771  0.1112 -0.1463
 5194TIP3    H137073   5.053   6.616   3.657 -1.5155 -0.6446 -0.3396
 5194TIP3    H237074   5.184   6.543   3.680 -0.0322  1.9904 -0.1853
 5195TIP3   OH237075   0.976   1.667  14.172  0.2531  0.0647  0.1898
 5195TIP3    H137076   1.061   1.680  14.214 -0.5324  1.4631  1.4002
 5195TIP3    H237077   0.932   1.751  14.181 -1.1053 -0.5356 -0.7751
 5196TIP3   OH237078   0.832   2.882   3.893 -0.0907  0.2219 -0.2597
 5196TIP3    H137079   0.860   2.965   3.855  2.1873  0.4650  1.7718
 5196TIP3    H237080   0.819   2.901   3.986  2.1824 -1.9962  0.5931
 5197TIP3   OH237081   0.088   0.255   2.785 -0.2844  0.2805  0.2179
 5197TIP3    H137082   0.014   0.316   2.776 -0.2231  0.4974  1.0632
 5197TIP3    H237083   0.164   0.312   2.799 -0.1315  0.0226  0.4397
 5198TIP3   OH237084   0.596   3.355  10.939  0.1550  0.3375  0.0588
 5198TIP3    H137085   0.520   3.316  10.981  0.3036 -0.3248 -0.2787
 5198TIP3    H237086   0.570   3.445  10.920 -0.5705  0.0938 -0.1204
 5199TIP3   OH237087   0.672   2.505   3.797  0.1985 -0.0186 -0.4541
 5199TIP3    H137088   0.601   2.523   3.735  0.3933 -1.6497 -1.1964
 5199TIP3    H237089   0.739   2.569   3.776  0.4149 -0.7856 -2.2299
 5200TIP3   OH237090   2.494   0.989   4.686 -0.0092 -0.0879  0.0315
 5200TIP3    H137091   2.538   0.954   4.764 -1.8983 -0.8242  0.8247
 5200TIP3    H237092   2.500   1.084   4.696  1.9619 -0.1601 -0.2370
 5201TIP3   OH237093   2.237   6.135  12.469 -0.1967 -0.5356  0.5716
 5201TIP3    H137094   2.201   6.095  12.549  1.9540 -3.0732  0.3614
 5201TIP3    H237095   2.187   6.215  12.457 -0.6382 -0.1326  4.4474
 5202TIP3   OH237096   6.347   2.003   2.978 -0.8278 -0.1151 -0.3046
 5202TIP3    H137097   6.344   2.022   3.071 -0.4556  0.2784 -0.3729
 5202TIP3    H237098   6.304   1.918   2.969  0.5135 -0.8869  0.4188
 5203TIP3   OH237099   5.798   1.769   3.499  0.2115 -0.4626  0.3235
 5203TIP3    H137100   5.880   1.805   3.466 -1.0744  0.8136 -1.5646
 5203TIP3    H237101   5.755   1.733   3.422 -2.0625  0.9667  0.8838
 5204TIP3   OH237102   4.905   1.650   1.197  0.6568  0.1266 -0.0259
 5204TIP3    H137103   4.943   1.682   1.279  3.0612 -0.8786 -0.6719
 5204TIP3    H237104   4.928   1.717   1.132 -1.9140  1.3024  0.2221
 5205TIP3   OH237105   4.848   2.788   5.754  0.1079 -0.5983 -0.0631
 5205TIP3    H137106   4.828   2.882   5.751 -0.5354 -0.7020  0.7709
 5205TIP3    H237107   4.940   2.784   5.777  0.3226 -0.1613 -0.8110
 5206TIP3   OH237108   6.066   0.130  16.705  0.2026  0.1479 -0.4129
 5206TIP3    H137109   6.069   0.169  16.793  1.5233 -1.1076  0.1283
 5206TIP3    H237110   5.978   0.149  16.673  0.1106  1.6987  0.6804
 5207TIP3   OH237111   5.088   0.289   4.973  0.0291 -0.2201 -0.1490
 5207TIP3    H137112   5.035   0.303   4.895 -0.5367 -1.1038  0.0660
 5207TIP3    H237113   5.133   0.206   4.957  0.3904 -0.0903  0.1929
 5208TIP3   OH237114   4.502   2.735  11.777  0.6983  0.4055 -0.2141
 5208TIP3    H137115   4.486   2.646  11.745 -1.2015  0.3360  0.8973
 5208TIP3    H237116   4.514   2.786  11.697  1.8666 -0.8348 -0.8680
 5209TIP3   OH237117   2.168   3.278   3.035 -0.0138 -0.0745  0.3187
 5209TIP3    H137118   2.147   3.347   2.973  1.5766 -0.5867 -0.8376
 5209TIP3    H237119   2.141   3.312   3.120 -1.4781  0.9643 -0.5363
 5210TIP3   OH237120   2.320   2.281   5.084 -0.4080  0.4249  0.0168
 5210TIP3    H137121   2.363   2.335   5.151  0.2809 -0.0315 -0.0509
 5210TIP3    H237122   2.341   2.191   5.109 -0.5887  0.2316 -0.5242
 5211TIP3   OH237123   4.680   2.613   4.482 -0.3422  0.1755  0.0837
 5211TIP3    H137124   4.686   2.683   4.546  0.7029  0.2872 -0.1273
 5211TIP3    H237125   4.748   2.550   4.509 -0.0112  0.1447 -0.8021
 5212TIP3   OH237126   1.334   1.829   1.565  0.2682  0.3335  0.1410
 5212TIP3    H137127   1.260   1.854   1.509  0.8266  2.1337  0.1605
 5212TIP3    H237128   1.403   1.804   1.504  0.1220  0.0933  0.0769
 5213TIP3   OH237129   1.871   5.420  12.059 -0.1465  0.0464  0.5775
 5213TIP3    H137130   1.803   5.367  12.018  0.3236  0.9258 -1.3774
 5213TIP3    H237131   1.868   5.504  12.014  1.6610  0.3851  1.0276
 5214TIP3   OH237132   2.871   3.391  14.681 -0.2942  0.1373  0.6293
 5214TIP3    H137133   2.861   3.415  14.589  2.8258  1.7576  0.6618
 5214TIP3    H237134   2.848   3.298  14.684 -1.4126  0.3203 -1.5844
 5215TIP3   OH237135   2.492   0.811   4.990  0.0429  0.4876 -0.5994
 5215TIP3    H137136   2.513   0.718   4.981 -2.9417 -0.2813 -0.1139
 5215TIP3    H237137   2.520   0.833   5.079 -2.3141 -0.8905  0.5595
 5216TIP3   OH237138   6.178   6.113  15.941 -0.2029 -0.0570 -0.2677
 5216TIP3    H137139   6.101   6.092  15.994 -0.5304  1.9711  0.1195
 5216TIP3    H237140   6.142   6.152  15.861  0.3917  0.6058 -0.2203
 5217TIP3   OH237141   2.382   5.673   1.425  0.1336 -0.4320  0.2781
 5217TIP3    H137142   2.334   5.720   1.493 -1.2402 -0.8234 -0.4051
 5217TIP3    H237143   2.333   5.592   1.413 -0.6381  0.4086 -2.4220
 5218TIP3   OH237144   3.887   5.240  14.170 -0.2776 -0.2757 -0.4320
 5218TIP3    H137145   3.917   5.162  14.123  0.5075  0.3477 -0.9866
 5218TIP3    H237146   3.822   5.279  14.111  1.5047  1.1077 -1.5414
 5219TIP3   OH237147   1.913   4.403   5.535 -0.1803 -0.3242  0.3613
 5219TIP3    H137148   1.963   4.324   5.553  0.5670  0.4190  1.6659
 5219TIP3    H237149   1.874   4.427   5.619 -0.5179  0.6094 -0.0531
 5220TIP3   OH237150   2.806   1.842   2.569  0.1306  1.0534  0.2921
 5220TIP3    H137151   2.780   1.804   2.485  0.7581  1.5233 -0.1151
 5220TIP3    H237152   2.900   1.821   2.576 -0.2832 -0.4318  1.6366
 5221TIP3   OH237153   4.398   4.488   0.581  0.1834  0.0946  0.2761
 5221TIP3    H137154   4.449   4.513   0.657 -0.1342 -0.3824  0.6507
 5221TIP3    H237155   4.351   4.409   0.608  0.6550 -0.5245 -0.6620
 5222TIP3   OH237156   2.887   0.908   0.485 -0.2766  0.4140 -0.1295
 5222TIP3    H137157   2.970   0.871   0.457 -0.2915  0.6274 -0.4588
 5222TIP3    H237158   2.840   0.834   0.525  0.6102  0.5973  1.2987
 5223TIP3   OH237159   3.628   4.875   2.780 -0.3127 -0.0112 -0.2278
 5223TIP3    H137160   3.598   4.813   2.713 -0.1888 -0.4921  0.1537
 5223TIP3    H237161   3.601   4.961   2.748  0.1952 -0.1907 -1.1343
 5224TIP3   OH237162   5.689   2.141   3.536  0.2365  0.1870 -0.2686
 5224TIP3    H137163   5.617   2.105   3.484 -2.5123  1.5868  2.4230
 5224TIP3    H237164   5.697   2.231   3.506 -0.7104  0.7152  1.0483
 5225TIP3   OH237165   5.985   5.099   0.245  0.7024  0.6194 -0.1809
 5225TIP3    H137166   6.074   5.069   0.228  0.1438 -0.3034 -1.5572
 5225TIP3    H237167   5.944   5.103   0.159 -0.3342  1.8903  0.3464
 5226TIP3   OH237168   4.196   3.151   0.369 -0.3886 -0.2236 -0.0860
 5226TIP3    H137169   4.143   3.093   0.315 -0.7252  0.5746 -0.6335
 5226TIP3    H237170   4.153   3.236   0.362  0.5330  0.2669  0.0648
 5227TIP3   OH237171   0.439   0.001  13.162 -0.1905  0.1878  0.3232
 5227TIP3    H137172   0.414  -0.053  13.087  0.6228  0.3211 -0.0543
 5227TIP3    H237173   0.487  -0.058  13.220 -0.3503  0.2134  0.4821
 5228TIP3   OH237174   2.760   3.190  10.998  0.6990  0.0707  0.3230
 5228TIP3    H137175   2.689   3.181  11.062 -0.9116 -1.1276 -1.5780
 5228TIP3    H237176   2.716   3.217  10.917  2.4433 -0.4731 -0.8385
 5229TIP3   OH237177   4.483   0.312   3.766 -0.2983  0.0931 -0.1818
 5229TIP3    H137178   4.535   0.363   3.828  1.9018 -0.6823 -1.3113
 5229TIP3    H237179   4.454   0.377   3.701 -0.8563  0.5562  0.5284
 5230TIP3   OH237180   0.029   5.109  13.959 -0.1004 -0.0618 -0.4514
 5230TIP3    H137181  -0.044   5.169  13.944 -0.0078 -0.4766 -2.7139
 5230TIP3    H237182   0.103   5.148  13.913  0.3156 -1.2194 -0.7834
 5231TIP3   OH237183   5.022   6.730  11.852 -0.1003  0.3254 -0.6243
 5231TIP3    H137184   5.115   6.734  11.873 -0.1963  1.4832 -0.3914
 5231TIP3    H237185   4.978   6.720  11.937 -0.1139 -1.8465 -0.8573
 5232TIP3   OH237186   6.606   6.338  17.084  0.4746  0.0414 -0.3740
 5232TIP3    H137187   6.631   6.363  16.994  0.2802  0.2498 -0.3714
 5232TIP3    H237188   6.529   6.282  17.073 -1.0533  2.0521 -0.2218
 5233TIP3   OH237189   0.908   0.190   3.390 -0.1555  0.5844 -0.1268
 5233TIP3    H137190   0.840   0.194   3.457 -1.4342 -0.3719 -1.3144
 5233TIP3    H237191   0.952   0.106   3.406 -1.3402 -0.2844 -1.2598
 5234TIP3   OH237192   6.469   3.493   1.586  0.1289 -0.0599  0.3199
 5234TIP3    H137193   6.485   3.556   1.656  0.2208 -0.1901  0.4157
 5234TIP3    H237194   6.383   3.518   1.551  0.2253  0.2028  0.2676
 5235TIP3   OH237195   4.918   5.703   0.586 -0.2481  0.1316 -0.4398
 5235TIP3    H137196   4.889   5.695   0.495 -1.4656  0.5251 -0.1021
 5235TIP3    H237197   4.923   5.798   0.601 -3.1520  0.1546  0.8150
 5236TIP3   OH237198   6.105   1.144  12.899  0.2029  0.1613  0.0555
 5236TIP3    H137199   6.156   1.118  12.976  2.4689  0.2969 -1.3457
 5236TIP3    H237200   6.100   1.065  12.845  0.1924  0.5232 -0.4852
 5237TIP3   OH237201   1.674   1.245   6.598 -0.2155  0.0197 -0.0538
 5237TIP3    H137202   1.729   1.323   6.590 -0.1038 -0.1659 -1.2977
 5237TIP3    H237203   1.629   1.255   6.681  1.1185  0.5519  0.6085
 5238TIP3   OH237204   1.985   1.608   3.141 -0.2407  0.0964  0.1766
 5238TIP3    H137205   1.917   1.662   3.099 -0.5986 -0.4507  0.0466
 5238TIP3    H237206   1.974   1.624   3.234 -0.8087 -0.2969  0.1785
 5239TIP3   OH237207   4.510   1.985   1.579  0.2702 -0.2006 -0.2341
 5239TIP3    H137208   4.513   1.967   1.485 -0.0370 -0.4920 -0.1896
 5239TIP3    H237209   4.601   1.993   1.605  0.4933 -2.8132 -0.0346
 5240TIP3   OH237210   5.367   5.945   0.780  0.0770 -0.0876 -0.0565
 5240TIP3    H137211   5.328   5.996   0.710  0.1831  0.2393  0.1207
 5240TIP3    H237212   5.398   5.865   0.737  0.1338  0.1065 -0.3783
 5241TIP3   OH237213   5.821   2.290   0.754 -0.2241 -0.2783 -0.1730
 5241TIP3    H137214   5.816   2.232   0.830 -1.0908 -2.1487 -1.6213
 5241TIP3    H237215   5.884   2.358   0.780  1.3378 -2.2234  1.3336
 5242TIP3   OH237216   4.609   0.192  14.696  0.4042  0.9700 -0.0624
 5242TIP3    H137217   4.593   0.282  14.725 -0.9738  0.7572 -0.1134
 5242TIP3    H237218   4.521   0.157  14.679  0.9941 -0.0557 -1.0204
 5243TIP3   OH237219   0.866   3.058   2.335  0.8295  0.4114  0.0255
 5243TIP3    H137220   0.882   3.081   2.427  0.2035  0.2243  0.1825
 5243TIP3    H237221   0.788   3.108   2.311 -0.3272 -1.2347  0.2621
 5244TIP3   OH237222   6.709   4.113   0.147 -0.4188 -0.0841  0.5115
 5244TIP3    H137223   6.762   4.045   0.187  0.6706 -1.4077 -3.0560
 5244TIP3    H237224   6.771   4.183   0.125 -0.6883 -0.1316 -0.4437
 5245TIP3   OH237225   0.399   0.362  14.199 -0.0289  0.2042 -0.2301
 5245TIP3    H137226   0.332   0.423  14.229 -0.4448 -1.0304  1.4116
 5245TIP3    H237227   0.446   0.336  14.278  1.0852 -0.5144 -1.0970
 5246TIP3   OH237228   4.944   5.356   6.322 -0.2124 -0.5349  0.4637
 5246TIP3    H137229   4.868   5.313   6.283 -1.6094  1.5033  0.8528
 5246TIP3    H237230   4.949   5.323   6.411  0.7673 -2.4003 -0.2508
 5247TIP3   OH237231   4.517   2.894   1.376 -0.1068 -0.1302  0.3827
 5247TIP3    H137232   4.456   2.898   1.451 -2.5869  0.8410 -1.6058
 5247TIP3    H237233   4.573   2.970   1.388  0.4527 -0.7697  2.0069
 5248TIP3   OH237234   3.830   5.115  15.466  0.3488  0.5544  0.3452
 5248TIP3    H137235   3.740   5.149  15.470  0.1268 -0.1454  2.2140
 5248TIP3    H237236   3.870   5.160  15.392 -1.4846  1.0315 -0.3859
 5249TIP3   OH237237   1.008   3.993   1.655 -0.3112  0.2014 -0.2029
 5249TIP3    H137238   1.098   4.016   1.633 -0.5998  1.1255 -0.4220
 5249TIP3    H237239   0.954   4.036   1.589 -0.9517  0.1311  0.2617
 5250TIP3   OH237240   0.109   6.293  13.845 -0.0136 -0.5130  0.1788
 5250TIP3    H137241   0.095   6.363  13.782  0.2979 -0.7466 -0.1569
 5250TIP3    H237242   0.191   6.315  13.888  0.0700 -0.6593  0.0934
 5251TIP3   OH237243   1.667   2.620   5.911  0.0001 -0.0720 -0.0902
 5251TIP3    H137244   1.606   2.546   5.913  0.0645 -0.1697 -1.3703
 5251TIP3    H237245   1.734   2.594   5.848  0.1919  0.9492 -0.3093
 5252TIP3   OH237246   3.333   0.446   5.708  0.0708  0.7282  0.3472
 5252TIP3    H137247   3.282   0.377   5.751  0.5565  0.6982  0.8733
 5252TIP3    H237248   3.300   0.447   5.618  1.6972 -1.8385 -0.3315
 5253TIP3   OH237249   3.570   5.408  12.859  0.2977 -0.3768 -0.0975
 5253TIP3    H137250   3.652   5.376  12.895  0.8963 -1.0511 -1.9834
 5253TIP3    H237251   3.588   5.498  12.833  0.2606 -0.3217  0.0697
 5254TIP3   OH237252   2.291   3.295   5.789 -0.4469 -0.2760  0.1551
 5254TIP3    H137253   2.350   3.242   5.735  1.5624  1.4948  0.5782
 5254TIP3    H237254   2.238   3.344   5.725 -0.1840 -0.4740 -0.2166
 5255TIP3   OH237255   1.141   0.464   5.888 -0.1572 -0.8496 -0.0815
 5255TIP3    H137256   1.210   0.517   5.848 -0.2200 -0.5999  0.1408
 5255TIP3    H237257   1.117   0.401   5.820  0.8762 -1.4844  0.1307
 5256TIP3   OH237258   2.311   3.332   0.770  0.7574  0.5618 -0.6876
 5256TIP3    H137259   2.386   3.273   0.764  0.3703 -0.1759  1.2475
 5256TIP3    H237260   2.348   3.419   0.752  1.3883 -0.1889 -3.2149
 5257TIP3   OH237261   4.892   1.731  11.586 -0.9206 -0.2582  0.6009
 5257TIP3    H137262   4.975   1.715  11.541 -1.0384 -0.7441  0.5604
 5257TIP3    H237263   4.854   1.644  11.600  0.0799 -0.2582  3.5108
 5258TIP3   OH237264   3.015   1.252   6.452 -0.8781 -0.6728 -0.1080
 5258TIP3    H137265   3.066   1.174   6.473  1.0831  0.5446 -0.1952
 5258TIP3    H237266   3.002   1.248   6.358  0.1103 -0.3871 -0.2630
 5259TIP3   OH237267   1.860   6.645  15.771 -0.1516  0.1957  0.2280
 5259TIP3    H137268   1.922   6.647  15.698 -0.3351  1.7880  0.1056
 5259TIP3    H237269   1.873   6.559  15.811  0.7008 -0.2722 -1.0274
 5260TIP3   OH237270   2.080   5.639  13.421  0.0471  0.1841  0.5544
 5260TIP3    H137271   1.993   5.624  13.383  0.0494  2.3556 -0.3876
 5260TIP3    H237272   2.066   5.710  13.484  0.8155 -0.6583  1.6771
 5261TIP3   OH237273   0.550   1.625   5.602 -0.0348  0.5344 -0.5076
 5261TIP3    H137274   0.577   1.714   5.578 -2.1933  1.8767  1.7265
 5261TIP3    H237275   0.608   1.601   5.674 -0.2413  0.6377 -0.3048
 5262TIP3   OH237276   0.076   0.137  12.755  0.1901  0.5139 -0.4461
 5262TIP3    H137277   0.025   0.201  12.805 -0.7324  0.3707 -1.1906
 5262TIP3    H237278   0.165   0.147  12.788 -0.6307 -0.6175  2.3372
 5263TIP3   OH237279   2.912   4.077  14.148 -0.2571 -0.3769 -0.6691
 5263TIP3    H137280   2.908   4.173  14.154  1.4032 -0.3718  0.8571
 5263TIP3    H237281   2.821   4.049  14.155 -0.6266  1.0324  0.4821
 5264TIP3   OH237282   1.218   4.389   5.326 -0.3331  0.3819 -0.5340
 5264TIP3    H137283   1.296   4.398   5.271  2.2909 -2.9100  2.3675
 5264TIP3    H237284   1.222   4.464   5.385  0.8495  0.1190 -0.2568
 5265TIP3   OH237285   0.327   5.062  14.960  0.0563  0.1715  0.0687
 5265TIP3    H137286   0.311   5.045  14.867 -1.9052  1.9918  0.0292
 5265TIP3    H237287   0.399   5.004  14.983  0.0943 -0.8299 -2.4141
 5266TIP3   OH237288   3.538   4.700  12.580  0.3396  0.2787 -0.3192
 5266TIP3    H137289   3.581   4.626  12.623  0.9618  1.1330  0.5768
 5266TIP3    H237290   3.479   4.734  12.647  0.0883  0.6084 -0.7116
 5267TIP3   OH237291   2.971   3.822  14.042  0.2656 -0.0885 -0.3244
 5267TIP3    H137292   2.947   3.805  14.133 -0.2065 -0.1898 -0.4609
 5267TIP3    H237293   3.016   3.906  14.043  0.6797 -0.3157  0.0646
 5268TIP3   OH237294   5.060   3.469  15.625  0.1427  0.0556 -0.9096
 5268TIP3    H137295   5.113   3.428  15.557  1.0936  1.8259 -1.2715
 5268TIP3    H237296   5.104   3.447  15.707  1.3226  1.2909 -1.1915
 5269TIP3   OH237297   1.085   4.407   4.550 -0.4290  0.5331 -0.5817
 5269TIP3    H137298   1.073   4.493   4.510 -1.8306  0.4967 -0.2926
 5269TIP3    H237299   1.176   4.406   4.580 -0.6357  2.2449  0.1729
 5270TIP3   OH237300   3.642   1.849   4.172  0.0511 -0.4279  0.4451
 5270TIP3    H137301   3.717   1.794   4.149  0.2318 -0.6164  1.4464
 5270TIP3    H237302   3.651   1.863   4.267 -1.1760 -0.4416  0.5665
 5271TIP3   OH237303   3.362   1.860   5.505 -0.0860 -0.1065 -0.2192
 5271TIP3    H137304   3.372   1.768   5.480 -1.0604 -0.7379  1.6488
 5271TIP3    H237305   3.416   1.907   5.442  0.8837 -1.9999 -0.8630
 5272TIP3   OH237306   1.650   3.551   0.594 -0.4528 -0.3012  0.0207
 5272TIP3    H137307   1.587   3.554   0.522 -0.4622  0.8930  0.0753
 5272TIP3    H237308   1.619   3.481   0.651 -1.1275 -0.4324 -0.5103
 5273TIP3   OH237309   1.766   5.790  16.246  0.0080 -0.2718  0.0660
 5273TIP3    H137310   1.701   5.723  16.266 -2.2569  1.5349 -1.0470
 5273TIP3    H237311   1.748   5.860  16.309  2.2750 -0.6133  1.1428
 5274TIP3   OH237312   3.332   2.079   4.489 -0.4959  0.0100 -0.2063
 5274TIP3    H137313   3.367   2.159   4.449 -1.8083  1.4343  1.4349
 5274TIP3    H237314   3.249   2.106   4.529 -1.1740 -2.2792 -0.0103
 5275TIP3   OH237315   0.054   0.037  12.125  0.4358  0.0355 -0.0163
 5275TIP3    H137316   0.019   0.123  12.149  2.3811  1.1693 -1.0597
 5275TIP3    H237317   0.108   0.055  12.048 -0.4005 -2.4095 -1.2104
 5276TIP3   OH237318   5.891   0.340  13.594  0.2831  0.2295 -0.3573
 5276TIP3    H137319   5.816   0.388  13.559  0.2719  1.4895  1.3371
 5276TIP3    H237320   5.887   0.354  13.689  0.3774 -2.9804  0.1879
 5277TIP3   OH237321   4.267   5.905   3.132 -0.3526  0.0929 -0.2164
 5277TIP3    H137322   4.268   5.890   3.227  1.3841  2.3204  0.1569
 5277TIP3    H237323   4.336   5.970   3.117  0.5960 -1.5070 -3.2378
 5278TIP3   OH237324   4.753   5.275  12.684  0.6235 -0.1106 -0.2278
 5278TIP3    H137325   4.764   5.199  12.740  1.6313 -1.3021 -1.9866
 5278TIP3    H237326   4.681   5.251  12.625 -0.9375  1.4207  1.0086
 5279TIP3   OH237327   5.459   4.928  16.331 -0.8350  0.1699 -0.6016
 5279TIP3    H137328   5.416   4.922  16.246 -0.5006 -0.8793 -0.7061
 5279TIP3    H237329   5.402   4.880  16.390 -1.5710  1.7368 -0.0122
 5280TIP3   OH237330   0.949   0.749   3.092 -0.3089  0.5845  0.1847
 5280TIP3    H137331   1.027   0.760   3.037  0.9366 -0.5383  1.6882
 5280TIP3    H237332   0.927   0.838   3.120  2.2348  0.6253  2.1736
 5281TIP3   OH237333   0.368   2.459  12.330 -0.1867 -0.1696 -0.1597
 5281TIP3    H137334   0.440   2.469  12.269  2.3279  0.8417  2.8676
 5281TIP3    H237335   0.384   2.374  12.372 -1.3790 -0.4327 -0.2058
 5282TIP3   OH237336   6.174   2.801  13.123 -0.4803 -0.4023  0.4115
 5282TIP3    H137337   6.182   2.729  13.185 -2.1924  0.0561  1.1847
 5282TIP3    H237338   6.092   2.844  13.146  0.3425  1.6071 -0.2406
 5283TIP3   OH237339   3.885   3.425   2.759 -0.4982  0.4051  0.2112
 5283TIP3    H137340   3.934   3.344   2.772 -0.9791  0.2240  0.9166
 5283TIP3    H237341   3.941   3.479   2.703  0.1467 -0.1180  0.3587
 5284TIP3   OH237342   0.130   3.089   4.956 -0.0102 -0.2260 -0.7452
 5284TIP3    H137343   0.121   3.181   4.981 -1.6252  0.2540 -2.8798
 5284TIP3    H237344   0.080   3.082   4.874  0.0097 -3.0299 -0.5584
 5285TIP3   OH237345   4.707   5.758  12.658  0.1410 -0.3996  0.3030
 5285TIP3    H137346   4.799   5.738  12.644 -0.0643 -0.7503 -0.6212
 5285TIP3    H237347   4.666   5.674  12.679 -0.1011 -0.3789 -0.0714
 5286TIP3   OH237348   2.449   3.107  12.532 -0.1909 -0.2749 -0.5550
 5286TIP3    H137349   2.484   3.187  12.491 -1.1445 -0.4078 -1.6437
 5286TIP3    H237350   2.427   3.134  12.621  1.2556  0.1929 -0.3300
 5287TIP3   OH237351   3.711   1.859   2.669  0.2405  0.2123 -0.3116
 5287TIP3    H137352   3.802   1.830   2.661  0.0990  0.0827 -1.4944
 5287TIP3    H237353   3.667   1.787   2.715  1.0051  0.8533  1.4684
 5288TIP3   OH237354   0.805   4.184   3.267  0.0153  0.2542 -0.0290
 5288TIP3    H137355   0.900   4.193   3.276 -0.0778 -0.2759  1.7799
 5288TIP3    H237356   0.770   4.229   3.345 -1.1690 -0.4128 -0.1721
 5289TIP3   OH237357   2.519   6.111  16.929 -0.4213  0.3730  0.1626
 5289TIP3    H137358   2.561   6.073  16.852  1.3887  0.6283  0.9797
 5289TIP3    H237359   2.519   6.206  16.912 -4.0941  0.1582 -1.4678
 5290TIP3   OH237360   4.635   4.541   2.358  0.4201 -0.3710 -0.5551
 5290TIP3    H137361   4.556   4.542   2.304  0.5158 -2.0806 -0.7572
 5290TIP3    H237362   4.620   4.471   2.422  2.0741 -1.2561 -1.0968
 5291TIP3   OH237363   5.070   5.838  13.387 -0.5655  0.1705  0.3398
 5291TIP3    H137364   5.014   5.910  13.358  0.3735  0.7393 -0.0591
 5291TIP3    H237365   5.113   5.807  13.308 -0.1060 -0.0888  0.6898
 5292TIP3   OH237366   3.762   5.874   0.875  0.5892 -0.1621 -0.0720
 5292TIP3    H137367   3.800   5.805   0.930  0.3446  0.6751  1.1897
 5292TIP3    H237368   3.792   5.854   0.787  0.2694 -2.0503  0.2336
 5293TIP3   OH237369   6.536   1.888   4.127 -0.3846  0.1929 -0.5832
 5293TIP3    H137370   6.599   1.898   4.198 -1.0870 -3.7538  0.6888
 5293TIP3    H237371   6.465   1.947   4.150  1.5910  2.7072 -0.6768
 5294TIP3   OH237372   6.305   3.292  13.656  0.3251 -0.2984  0.1762
 5294TIP3    H137373   6.250   3.328  13.587  2.6292 -1.4571 -2.3787
 5294TIP3    H237374   6.382   3.349  13.659  0.4820 -0.5529  1.4400
 5295TIP3   OH237375   3.287   0.718  15.313 -0.0539 -0.2984  0.1942
 5295TIP3    H137376   3.348   0.647  15.296 -1.1472 -1.0977 -0.4375
 5295TIP3    H237377   3.296   0.736  15.407  0.4902 -1.0172  0.2816
 5296TIP3   OH237378   6.483   4.907  15.239 -0.9868  0.2350 -0.2754
 5296TIP3    H137379   6.476   4.998  15.267  0.6480  0.8975 -1.9416
 5296TIP3    H237380   6.479   4.911  15.143 -0.4574 -1.3941 -0.3736
 5297TIP3   OH237381   5.609   0.831   5.436  1.0170 -0.1939 -0.2740
 5297TIP3    H137382   5.521   0.849   5.467  0.8794  0.1737 -0.8703
 5297TIP3    H237383   5.608   0.737   5.415  0.9173 -0.2990  0.1860
 5298TIP3   OH237384   6.643   2.491   1.652  0.8092  0.0363  0.1696
 5298TIP3    H137385   6.675   2.415   1.603  2.1969 -0.8316  2.3316
 5298TIP3    H237386   6.548   2.483   1.648  0.9355 -1.9979  0.6020
 5299TIP3   OH237387   3.872   0.258   0.757 -0.2284  0.3929 -0.2488
 5299TIP3    H137388   3.926   0.209   0.819 -0.5706  0.7923  0.3667
 5299TIP3    H237389   3.888   0.216   0.673  1.3062  0.7092 -0.1362
 5300TIP3   OH237390   5.076   2.570  13.385 -0.1800  0.5399 -0.3226
 5300TIP3    H137391   5.090   2.555  13.478  1.7266  0.6463 -0.5703
 5300TIP3    H237392   5.032   2.490  13.355  0.9714 -0.3494  0.2993
 5301TIP3   OH237393   4.975   1.763  15.907 -0.0135 -0.2706 -0.0794
 5301TIP3    H137394   4.882   1.780  15.898  0.3823  2.1915  0.0612
 5301TIP3    H237395   5.018   1.829  15.853  1.6924  0.0242  1.5519
 5302TIP3   OH237396   6.660   6.009   6.105  0.2094 -0.0652 -0.3672
 5302TIP3    H137397   6.717   6.005   6.182  0.0623  0.3199 -0.2367
 5302TIP3    H237398   6.576   5.978   6.137 -0.0812  0.9232 -0.1534
 5303TIP3   OH237399   5.276   3.671   3.528 -0.1574 -0.0975 -0.0283
 5303TIP3    H137400   5.184   3.695   3.537  0.3405  1.7017  0.3479
 5303TIP3    H237401   5.274   3.585   3.485 -1.9046  1.6171 -3.5579
 5304TIP3   OH237402   6.257   6.281   0.978  0.4126 -0.1469 -1.1984
 5304TIP3    H137403   6.242   6.199   1.026 -0.8925 -0.4055 -2.0124
 5304TIP3    H237404   6.350   6.279   0.956  0.2691 -1.7474 -1.7767
 5305TIP3   OH237405   0.806   6.701   1.353 -0.4093 -0.0547  0.6077
 5305TIP3    H137406   0.800   6.759   1.429 -0.2947  0.2002  0.4224
 5305TIP3    H237407   0.790   6.758   1.278 -0.7393 -0.3500  0.4554
 5306TIP3   OH237408   0.540   2.790   1.027  0.5427  0.3279 -0.3325
 5306TIP3    H137409   0.564   2.876   0.991  2.1085 -1.7262 -4.5226
 5306TIP3    H237410   0.456   2.769   0.985  1.0028 -0.8993 -0.6641
 5307TIP3   OH237411   1.749   2.744   3.231 -0.5500 -0.5154 -0.1904
 5307TIP3    H137412   1.697   2.785   3.162  0.5668  0.0309 -0.7181
 5307TIP3    H237413   1.745   2.806   3.304  0.1795 -0.0043 -0.5810
 5308TIP3   OH237414   2.069   1.791  12.095 -0.0226  0.1209 -0.1494
 5308TIP3    H137415   2.157   1.775  12.130  0.3885 -0.6420 -1.4943
 5308TIP3    H237416   2.083   1.807  12.002 -1.1922  1.2634 -0.1334
 5309TIP3   OH237417   1.968   6.278  11.328  0.3559  0.3456  0.0026
 5309TIP3    H137418   2.001   6.333  11.399  0.5205 -0.9068  0.9264
 5309TIP3    H237419   1.958   6.337  11.254  1.9369  1.3231  0.5454
 5310TIP3   OH237420   2.949   2.318   4.397  0.4067  0.3373  0.0569
 5310TIP3    H137421   3.030   2.267   4.395  0.2391  0.0627 -4.1468
 5310TIP3    H237422   2.916   2.306   4.486  1.9487 -4.3498  0.1689
 5311TIP3   OH237423   4.159   4.443  11.722  0.5194  0.1687 -0.1845
 5311TIP3    H137424   4.115   4.527  11.707  0.0684  0.0858  0.6226
 5311TIP3    H237425   4.191   4.417  11.636  0.5988  1.1323 -0.4514
 5312TIP3   OH237426   0.608   0.937   6.724 -0.1921 -0.0009 -0.2102
 5312TIP3    H137427   0.636   0.977   6.807  0.6397 -1.7566  0.3937
 5312TIP3    H237428   0.517   0.913   6.738 -0.3095  0.4870 -0.1190
 5313TIP3   OH237429   0.575   2.974  14.854  0.3305  0.2059 -0.8166
 5313TIP3    H137430   0.583   3.045  14.918  1.5671 -0.4187 -0.2704
 5313TIP3    H237431   0.507   3.005  14.794 -0.9727  0.7425  0.8747
 5314TIP3   OH237432   0.100   1.300   5.778  0.1344  0.4186 -0.3779
 5314TIP3    H137433   0.116   1.370   5.715 -2.3520  1.3472 -0.0310
 5314TIP3    H237434   0.059   1.343   5.853 -1.5538 -1.3984 -0.2113
 5315TIP3   OH237435   3.446   5.283   0.448  0.2234 -0.3851  0.4467
 5315TIP3    H137436   3.354   5.255   0.451 -0.2479  0.8892 -1.3196
 5315TIP3    H237437   3.495   5.209   0.484 -1.6470 -0.2918  3.3403
 5316TIP3   OH237438   5.445   4.542   1.301 -0.0276 -0.0337  0.1601
 5316TIP3    H137439   5.359   4.511   1.330 -0.0509  0.3945  0.5512
 5316TIP3    H237440   5.447   4.635   1.325  1.0818 -0.3635  1.4330
 5317TIP3   OH237441   5.477   3.494   4.569 -0.2794  0.0262 -0.0054
 5317TIP3    H137442   5.486   3.459   4.480 -0.3580  1.9697 -0.8095
 5317TIP3    H237443   5.520   3.579   4.566 -1.1285  0.5366  1.5743
 5318TIP3   OH237444   2.125   6.039  14.217 -0.1152 -0.5470  0.0548
 5318TIP3    H137445   2.089   5.964  14.264 -0.4660 -0.5859 -0.2708
 5318TIP3    H237446   2.119   6.111  14.280  0.8448 -0.9355  0.5966
 5319TIP3   OH237447   0.692   5.533  13.857 -0.6124  0.1686  0.2537
 5319TIP3    H137448   0.700   5.617  13.812  0.8765 -0.4347 -0.6637
 5319TIP3    H237449   0.746   5.542  13.936 -1.0227  0.3215  0.5127
 5320TIP3   OH237450   4.912   2.728  12.923 -0.7575  0.1205  0.0465
 5320TIP3    H137451   5.007   2.727  12.911 -0.5302  2.5837  1.3236
 5320TIP3    H237452   4.893   2.814  12.961 -3.4387 -0.5456  0.3488
 5321TIP3   OH237453   4.190   1.019  12.896  0.1124 -0.1443 -0.0910
 5321TIP3    H137454   4.237   1.033  12.814  1.8739 -1.1705  0.7389
 5321TIP3    H237455   4.217   0.933  12.925 -2.3823 -0.8300  0.3626
 5322TIP3   OH237456   0.685   0.143   2.219 -0.0481 -0.5780  0.0581
 5322TIP3    H137457   0.609   0.199   2.236  0.9842  0.7076  0.6108
 5322TIP3    H237458   0.700   0.097   2.301  0.0599 -0.4549  0.1085
 5323TIP3   OH237459   6.181   4.180   5.506  0.3346 -0.4665  0.3737
 5323TIP3    H137460   6.149   4.266   5.531 -0.4881 -0.8693  0.7232
 5323TIP3    H237461   6.108   4.138   5.462  0.1817 -1.5850  1.6281
 5324TIP3   OH237462   5.006   5.395   5.738 -0.1260 -0.4204  0.0811
 5324TIP3    H137463   5.055   5.345   5.672 -0.1945 -0.6821  0.2233
 5324TIP3    H237464   5.034   5.356   5.821 -1.2117 -1.1295  0.1155
 5325TIP3   OH237465   3.666   6.772   5.270  0.1230 -0.3460 -0.1213
 5325TIP3    H137466   3.669   6.868   5.272 -2.1266 -0.2636  1.5002
 5325TIP3    H237467   3.574   6.751   5.257  0.2341 -2.2873  1.9086
 5326TIP3   OH237468   2.698   0.290   1.139  0.4760  0.2954 -0.2793
 5326TIP3    H137469   2.730   0.207   1.106 -0.6300  0.5140 -1.9173
 5326TIP3    H237470   2.688   0.276   1.233  2.3352 -0.7415 -0.2089
 5327TIP3   OH237471   4.176   5.213  12.699 -0.8362  0.0385  0.0463
 5327TIP3    H137472   4.245   5.149  12.680  0.5517  1.5453 -0.0606
 5327TIP3    H237473   4.095   5.162  12.698  0.1133 -1.4941 -1.3167
 5328TIP3   OH237474   0.714   4.533  13.694  0.4773 -0.7013 -0.1692
 5328TIP3    H137475   0.754   4.447  13.683  0.6942 -0.6004 -0.1570
 5328TIP3    H237476   0.787   4.595  13.692  0.2661 -0.4718 -0.7276
 5329TIP3   OH237477   0.791   6.486  11.717  0.4329  0.0011 -0.7057
 5329TIP3    H137478   0.724   6.554  11.716 -0.7174 -1.1261 -2.2754
 5329TIP3    H237479   0.750   6.413  11.763  1.1489 -0.1478 -0.2925
 5330TIP3   OH237480   0.818   3.508   3.249  0.6328 -0.0083  0.1025
 5330TIP3    H137481   0.795   3.525   3.341 -0.5217 -0.0550 -0.1704
 5330TIP3    H237482   0.873   3.430   3.253  0.7792  0.1209  0.7783
 5331TIP3   OH237483   2.569   4.780  13.338  1.0107  0.0557  0.2240
 5331TIP3    H137484   2.664   4.786  13.328  1.1783 -1.9317  0.4932
 5331TIP3    H237485   2.556   4.753  13.429  0.2155 -0.1935  0.0385
 5332TIP3   OH237486   4.774   6.641  12.347  0.4730 -0.3798  0.6921
 5332TIP3    H137487   4.701   6.688  12.388 -0.1891 -0.3519 -0.4903
 5332TIP3    H237488   4.769   6.665  12.254  1.9052 -0.4977  0.5719
 5333TIP3   OH237489   0.764   1.812   2.774 -0.4625 -0.1303  0.1446
 5333TIP3    H137490   0.835   1.804   2.838  0.0309 -0.5970 -0.4524
 5333TIP3    H237491   0.698   1.866   2.818  0.8929  1.5335  0.1609
 5334TIP3   OH237492   0.990   1.436   5.015 -0.1841  0.4512  0.5054
 5334TIP3    H137493   1.079   1.440   4.981 -0.3955  0.3023 -0.0703
 5334TIP3    H237494   0.964   1.345   5.004 -0.9430  0.8009 -0.7209
 5335TIP3   OH237495   6.807   2.292   3.060 -0.3112 -0.2494 -0.8715
 5335TIP3    H137496   6.728   2.246   3.033  0.9668 -2.4108 -1.0702
 5335TIP3    H237497   6.852   2.231   3.118  0.4834  1.5523  0.4857
 5336TIP3   OH237498   5.314   6.261   2.221  0.1961 -0.0058  0.4249
 5336TIP3    H137499   5.316   6.171   2.191 -1.6864  0.1166 -0.1190
 5336TIP3    H237500   5.334   6.256   2.315  4.5746 -0.5209 -0.4578
 5337TIP3   OH237501   4.185   1.478   0.888 -0.0315 -0.4730 -0.1772
 5337TIP3    H137502   4.096   1.512   0.895 -0.0184 -0.0305 -1.8341
 5337TIP3    H237503   4.174   1.383   0.881 -0.2939 -0.5162  0.7675
 5338TIP3   OH237504   3.342   1.598  11.626 -0.2361 -0.0001  0.2613
 5338TIP3    H137505   3.392   1.642  11.558 -0.2505 -1.0942 -0.4805
 5338TIP3    H237506   3.408   1.557  11.682 -0.2068  1.2759  1.1901
 5339TIP3   OH237507   3.814   1.429   3.931  0.1360  0.3762 -0.6274
 5339TIP3    H137508   3.848   1.383   4.008  0.2758 -0.0122 -0.9156
 5339TIP3    H237509   3.802   1.519   3.960  0.4815  0.3003 -0.2393
 5340TIP3   OH237510   1.390   3.892  15.845 -0.1245  0.3441  0.2765
 5340TIP3    H137511   1.457   3.860  15.785 -1.2988 -1.3026 -0.1815
 5340TIP3    H237512   1.428   3.877  15.932 -0.3765 -1.7625  0.0587
 5341TIP3   OH237513   4.774   4.553  14.686 -0.2038  0.0839 -0.0257
 5341TIP3    H137514   4.741   4.531  14.773 -0.5981 -0.1378 -0.2288
 5341TIP3    H237515   4.834   4.482  14.664 -0.6156 -0.2092 -0.2126
 5342TIP3   OH237516   5.340   3.436   4.157 -0.8938  0.0130 -0.2467
 5342TIP3    H137517   5.268   3.386   4.197  0.1081  0.9062  2.8199
 5342TIP3    H237518   5.417   3.411   4.207  0.4779  1.0203 -1.8145
 5343TIP3   OH237519   6.277   3.391   3.828  0.4198  0.2749  0.3596
 5343TIP3    H137520   6.275   3.384   3.732  0.6077  1.7522  0.2319
 5343TIP3    H237521   6.270   3.301   3.859 -1.9406 -0.0647 -1.0139
 5344TIP3   OH237522   3.761   4.335   4.882  0.3592 -0.8734 -0.0039
 5344TIP3    H137523   3.672   4.356   4.908 -0.1599 -2.8403 -0.0590
 5344TIP3    H237524   3.750   4.275   4.807  1.7236 -0.6178 -0.4197
 5345TIP3   OH237525   6.181   6.377  16.623 -0.2382  0.4302 -0.3597
 5345TIP3    H137526   6.148   6.336  16.703  0.6189 -0.9959 -0.7023
 5345TIP3    H237527   6.143   6.464  16.622 -1.6200 -0.1481  0.7323
 5346TIP3   OH237528   0.561   6.159   2.399 -0.5230  0.1355 -0.0535
 5346TIP3    H137529   0.608   6.079   2.424 -0.3931  0.6423  1.3530
 5346TIP3    H237530   0.474   6.129   2.374  0.2786 -0.7245 -1.9426
 5347TIP3   OH237531   6.515   4.762  10.564 -0.3468 -0.2927 -0.5188
 5347TIP3    H137532   6.493   4.772  10.471 -2.1431 -0.5326 -0.1388
 5347TIP3    H237533   6.454   4.696  10.596 -0.7408  0.8683  1.1692
 5348TIP3   OH237534   0.543   6.351   3.480  0.7190 -0.6432 -0.2072
 5348TIP3    H137535   0.500   6.434   3.460  1.4927 -0.2800 -0.3519
 5348TIP3    H237536   0.555   6.352   3.575  0.1956 -0.8555 -0.1334
 5349TIP3   OH237537   6.671   6.614  14.195 -0.5234 -0.4860  0.0023
 5349TIP3    H137538   6.758   6.651  14.206 -0.5747 -0.5363  0.5847
 5349TIP3    H237539   6.670   6.581  14.105 -0.0803 -0.1202 -0.1362
 5350TIP3   OH237540   2.547   6.207   2.156 -0.3356 -0.0026  0.0592
 5350TIP3    H137541   2.593   6.124   2.144 -0.3044 -0.0062  0.2109
 5350TIP3    H237542   2.615   6.273   2.152 -0.4325  0.0612 -0.6615
 5351TIP3   OH237543   2.889   1.599  14.338 -0.2991  0.1307  0.1173
 5351TIP3    H137544   2.869   1.629  14.249  0.3142  0.3566  0.0551
 5351TIP3    H237545   2.903   1.679  14.388  1.4951 -0.0382 -0.0826
 5352TIP3   OH237546   3.778   4.780   4.769 -0.2075  0.1329  0.1820
 5352TIP3    H137547   3.808   4.704   4.719 -1.2610  0.1608 -0.5068
 5352TIP3    H237548   3.857   4.834   4.779  0.6749 -1.2699  1.1352
 5353TIP3   OH237549   2.271   1.318  16.101 -0.1698  0.0386  0.0092
 5353TIP3    H137550   2.315   1.389  16.055  0.5515  0.1361  0.8457
 5353TIP3    H237551   2.214   1.362  16.165 -1.1797 -0.0954 -0.7904
 5354TIP3   OH237552   3.724   6.807  13.395  0.1448  0.6633 -0.0712
 5354TIP3    H137553   3.737   6.713  13.408  0.1157  0.9440  2.0328
 5354TIP3    H237554   3.711   6.843  13.482 -2.4677  2.2702 -1.0514
 5355TIP3   OH237555   5.918   2.431   1.657 -0.3480  0.2274 -0.3887
 5355TIP3    H137556   6.006   2.468   1.653  0.3347 -1.3689 -0.6594
 5355TIP3    H237557   5.871   2.487   1.719  2.0102 -1.1198  2.7665
 5356TIP3   OH237558   0.910   1.504  15.595 -0.4610  0.0703 -0.4405
 5356TIP3    H137559   0.963   1.555  15.656  0.0766  0.4371 -1.2145
 5356TIP3    H237560   0.935   1.413  15.612  0.5074  0.2481 -0.8832
 5357TIP3   OH237561   6.501   6.413   3.706  0.5414  0.2858  0.0228
 5357TIP3    H137562   6.507   6.492   3.759 -0.9504  1.5658 -1.6308
 5357TIP3    H237563   6.539   6.438   3.622  1.5258 -1.2569 -0.0070
 5358TIP3   OH237564   2.516   2.708   4.352 -0.2656  0.1678  0.1558
 5358TIP3    H137565   2.578   2.746   4.289  0.4587 -1.4918 -0.1727
 5358TIP3    H237566   2.494   2.780   4.411 -1.2708  1.8845 -2.2320
 5359TIP3   OH237567   2.439   1.576   1.358 -0.3830 -0.0612  0.1070
 5359TIP3    H137568   2.466   1.561   1.267 -0.0313 -0.7430  0.3260
 5359TIP3    H237569   2.477   1.662   1.379  0.1034 -0.2054 -0.1690
 5360TIP3   OH237570   3.280   6.293  11.231 -0.1943  0.1784  0.2683
 5360TIP3    H137571   3.274   6.300  11.326  0.8376  3.5097  0.1669
 5360TIP3    H237572   3.357   6.239  11.215  0.3962  0.7004  1.3217
 5361TIP3   OH237573   5.080   3.263   1.419 -0.0442  0.7450  0.3318
 5361TIP3    H137574   5.093   3.353   1.450 -1.4662  0.7338  0.9746
 5361TIP3    H237575   4.994   3.264   1.377  0.2336 -0.1547 -0.2657
 5362TIP3   OH237576   1.066   3.744   4.439 -0.3501  0.1745  0.2102
 5362TIP3    H137577   0.994   3.706   4.489 -0.2738  0.0244  0.2063
 5362TIP3    H237578   1.030   3.755   4.351 -0.3713  0.1019  0.2084
 5363TIP3   OH237579   1.038   1.033  15.864  0.2870  0.4046 -0.1722
 5363TIP3    H137580   0.980   1.101  15.898  0.3422  0.1195  0.5151
 5363TIP3    H237581   0.984   0.986  15.800  0.2112  1.0109 -0.5557
 5364TIP3   OH237582   3.245   5.981  12.319 -0.0209  0.1882 -0.3270
 5364TIP3    H137583   3.247   5.956  12.227  0.2696  1.1140 -0.5660
 5364TIP3    H237584   3.160   5.949  12.350  0.3707 -1.1847 -0.6095
 5365TIP3   OH237585   2.978   4.796  15.264  0.8677  0.2491  0.5776
 5365TIP3    H137586   2.997   4.726  15.201  1.2477  0.5305  0.3766
 5365TIP3    H237587   3.061   4.810  15.309  0.3103 -0.7385  1.9382
 5366TIP3   OH237588   2.065   6.353   0.006 -0.4229  0.3424 -0.5699
 5366TIP3    H137589   2.113   6.292   0.062 -0.8559  1.2222  0.7787
 5366TIP3    H237590   2.061   6.310  -0.079  0.4282 -0.9169  0.0190
 5367TIP3   OH237591   2.942   2.372   1.075  0.5785 -0.7273 -0.3066
 5367TIP3    H137592   2.946   2.460   1.112  0.1850 -0.0603 -1.8423
 5367TIP3    H237593   3.034   2.350   1.056  0.6473 -0.5311 -0.2058
 5368TIP3   OH237594   0.570   1.937   0.744 -0.9486 -0.0186  0.0673
 5368TIP3    H137595   0.496   1.997   0.731 -2.4356 -1.8711 -0.1771
 5368TIP3    H237596   0.578   1.930   0.840 -1.5357 -0.3293  0.0981
 5369TIP3   OH237597   6.084   6.360   5.924  0.1072 -0.3188 -0.2185
 5369TIP3    H137598   6.177   6.358   5.903  0.2937 -1.4400  0.7132
 5369TIP3    H237599   6.073   6.437   5.979  0.2310  0.5963 -1.4373
 5370TIP3   OH237600   4.417   4.599  15.965 -0.1363 -0.2199 -0.0926
 5370TIP3    H137601   4.505   4.635  15.969 -1.6583  3.4540  3.7802
 5370TIP3    H237602   4.373   4.648  15.896 -0.0731  0.1703  0.1474
 5371TIP3   OH237603   6.471   5.941  14.752 -0.0159  0.0344 -0.1716
 5371TIP3    H137604   6.392   5.994  14.747 -0.1168 -0.1923 -1.0300
 5371TIP3    H237605   6.526   5.986  14.817 -0.4700  0.6776 -0.2266
 5372TIP3   OH237606   5.961   3.273  13.972  0.2722 -0.2703  0.2365
 5372TIP3    H137607   5.892   3.210  13.993  0.3804 -0.4798 -0.0383
 5372TIP3    H237608   6.038   3.219  13.953  0.3313 -0.0624 -0.1235
 5373TIP3   OH237609   4.812   3.669   3.985  0.2838 -0.2403  0.3025
 5373TIP3    H137610   4.734   3.620   3.959 -0.1911  1.2612 -1.1796
 5373TIP3    H237611   4.793   3.760   3.961  2.0232  0.3302  0.9863
 5374TIP3   OH237612   0.833   6.086  15.238 -0.8557  0.5038 -0.2897
 5374TIP3    H137613   0.861   5.998  15.261 -1.4086  0.0821 -1.1896
 5374TIP3    H237614   0.748   6.097  15.280 -0.7038  0.6726 -0.0272
 5375TIP3   OH237615   5.385   5.454  12.529 -0.8035  0.0155  0.3535
 5375TIP3    H137616   5.415   5.368  12.502 -0.3148  0.4572 -0.5368
 5375TIP3    H237617   5.453   5.486  12.589  0.0418  0.6140 -0.9026
 5376TIP3   OH237618   5.651   0.467  12.865 -0.3953 -0.0064 -0.4408
 5376TIP3    H137619   5.718   0.423  12.811 -0.9518 -1.0402 -0.3042
 5376TIP3    H237620   5.686   0.554  12.880  0.7763 -0.4258 -0.6610
 5377TIP3   OH237621   3.685   5.425  15.113 -0.0279 -0.0437  0.2660
 5377TIP3    H137622   3.647   5.509  15.088  0.5738  0.4475  0.9523
 5377TIP3    H237623   3.639   5.401  15.194 -0.2900 -0.4425  0.0015
 5378TIP3   OH237624   2.416   2.918   4.540  0.4745 -0.3722 -0.2801
 5378TIP3    H137625   2.404   2.994   4.598 -0.8883 -1.7948  1.3625
 5378TIP3    H237626   2.340   2.922   4.481 -0.1120 -0.9825  0.4259
 5379TIP3   OH237627   0.188   6.483  10.519 -0.3963 -0.7256  0.5478
 5379TIP3    H137628   0.278   6.495  10.487 -0.5523  0.0446  0.3837
 5379TIP3    H237629   0.154   6.408  10.470 -0.5879  0.3460 -1.0002
 5380TIP3   OH237630   4.713   3.324  15.377 -0.1548  0.6441  0.0815
 5380TIP3    H137631   4.665   3.251  15.338 -0.4280  0.2132  1.1903
 5380TIP3    H237632   4.661   3.347  15.455  1.4959  0.0846  1.3781
 5381TIP3   OH237633   5.280   1.173  12.066 -0.2471 -0.2860 -0.3114
 5381TIP3    H137634   5.223   1.097  12.058 -0.6213 -0.3726  2.7514
 5381TIP3    H237635   5.343   1.164  11.994 -1.7584 -2.1878 -1.4159
 5382TIP3   OH237636   1.621   0.250   2.855  0.0813 -0.1737 -0.1369
 5382TIP3    H137637   1.633   0.156   2.841 -0.0555 -0.1374 -0.5115
 5382TIP3    H237638   1.574   0.280   2.777 -0.7842  0.0248  0.4499
 5383TIP3   OH237639   2.525   0.340  13.767 -0.2889  0.5229 -0.1226
 5383TIP3    H137640   2.538   0.282  13.692 -1.4162 -0.8798  0.7382
 5383TIP3    H237641   2.611   0.379  13.782  0.4587 -0.8102 -0.8160
 5384TIP3   OH237642   0.934   5.733   4.631  0.8033 -0.2947  0.3326
 5384TIP3    H137643   0.841   5.726   4.656  0.3689  2.2791 -0.4589
 5384TIP3    H237644   0.968   5.803   4.686  1.6853  0.4113 -1.1049
 5385TIP3   OH237645   2.133   3.381   3.281  0.1567  0.6181  0.3811
 5385TIP3    H137646   2.065   3.437   3.317 -0.9159 -0.2479 -0.2904
 5385TIP3    H237647   2.194   3.368   3.353 -1.5633 -0.4562  1.6755
 5386TIP3   OH237648   1.020   4.647  13.907 -0.1524  0.0873  0.2222
 5386TIP3    H137649   0.985   4.715  13.966 -0.2474 -1.2331  1.7201
 5386TIP3    H237650   0.949   4.631  13.845  0.3940  2.3786 -1.0763
 5387TIP3   OH237651   2.716   3.802  12.279  0.6372  0.1590 -0.4042
 5387TIP3    H137652   2.632   3.840  12.254  0.8588 -0.5538 -2.2794
 5387TIP3    H237653   2.741   3.850  12.358 -2.8803 -1.5715  1.8662
 5388TIP3   OH237654   0.380   5.633  14.544 -0.4602 -1.2707 -0.4586
 5388TIP3    H137655   0.375   5.585  14.626 -1.3247 -0.0672  0.2088
 5388TIP3    H237656   0.378   5.565  14.476 -2.1395 -2.1579  0.4461
 5389TIP3   OH237657   3.663   1.407   6.225 -0.4165 -0.0404 -0.2595
 5389TIP3    H137658   3.643   1.361   6.306 -3.3855  0.4524 -0.6428
 5389TIP3    H237659   3.688   1.495   6.253 -1.4640  0.1378  0.1408
 5390TIP3   OH237660   1.292   1.394  16.779  0.1064  0.2741  0.0428
 5390TIP3    H137661   1.201   1.370  16.795  0.0965  0.3603  0.1158
 5390TIP3    H237662   1.289   1.452  16.703  0.0134  0.9505  0.5610
 5391TIP3   OH237663   6.517   1.662   2.037 -0.1489 -0.2437  0.1306
 5391TIP3    H137664   6.523   1.709   2.121  2.5876 -0.6285  0.1801
 5391TIP3    H237665   6.470   1.582   2.059 -1.6311  0.7703  0.7805
 5392TIP3   OH237666   1.686   3.363   3.395 -0.4555 -0.3472 -0.2283
 5392TIP3    H137667   1.672   3.270   3.408  1.0910 -0.3144  1.8145
 5392TIP3    H237668   1.780   3.372   3.379 -0.6501  0.8162 -0.7795
 5393TIP3   OH237669   6.557   2.552   0.937  0.5426  0.3813  0.3628
 5393TIP3    H137670   6.602   2.488   0.992  1.1414 -0.5618 -1.1936
 5393TIP3    H237671   6.619   2.574   0.868  0.3637  2.7208  0.8937
 5394TIP3   OH237672   4.453   6.152   4.715 -0.0862  0.2392  0.1010
 5394TIP3    H137673   4.505   6.116   4.787 -0.3129 -2.3870 -0.9948
 5394TIP3    H237674   4.515   6.205   4.665  1.0805 -1.2253 -0.0540
 5395TIP3   OH237675   5.896   0.880   5.258 -0.4076  0.2562 -0.0878
 5395TIP3    H137676   5.826   0.897   5.320 -1.4943 -0.1950 -1.1744
 5395TIP3    H237677   5.949   0.812   5.299 -0.2019  1.0829  1.0373
 5396TIP3   OH237678   0.491   3.948  13.550 -0.1594 -0.1709 -0.6601
 5396TIP3    H137679   0.453   4.030  13.520  0.9112  0.9821  1.0504
 5396TIP3    H237680   0.451   3.932  13.635  2.5531  0.6655  0.8112
 5397TIP3   OH237681   5.203   3.958   6.244 -0.4620 -0.1047 -0.3412
 5397TIP3    H137682   5.187   3.879   6.296 -2.1469  0.1088 -0.5360
 5397TIP3    H237683   5.149   4.026   6.285  0.6634  0.8580 -0.4243
 5398TIP3   OH237684   6.547   4.417  13.701  0.1517 -0.1277 -0.4861
 5398TIP3    H137685   6.529   4.325  13.721  1.5004 -0.5408 -1.1495
 5398TIP3    H237686   6.619   4.415  13.639 -0.1207  1.3717 -0.8758
 5399TIP3   OH237687   5.665   0.596   5.709  0.0197  0.0072 -0.0196
 5399TIP3    H137688   5.711   0.645   5.776 -0.9501 -0.4056  0.9685
 5399TIP3    H237689   5.683   0.504   5.730  1.7407 -0.0953 -1.7890
 5400TIP3   OH237690   6.673   4.025  15.484 -0.0829  0.0871 -0.4119
 5400TIP3    H137691   6.643   4.065  15.403  0.9445  1.7793  0.0149
 5400TIP3    H237692   6.652   4.090  15.552  1.1746 -0.2895  0.3604
 5401TIP3   OH237693   6.069   1.429  11.670  0.0403  0.2614  0.1393
 5401TIP3    H137694   6.125   1.416  11.746 -1.2273 -0.3822  0.9817
 5401TIP3    H237695   6.077   1.348  11.619  0.2874  0.3859 -0.0233
 5402TIP3   OH237696   4.951   6.617  16.954  0.2750  1.0681  0.1462
 5402TIP3    H137697   4.940   6.606  17.049  2.2664 -1.8592  0.0686
 5402TIP3    H237698   4.863   6.639  16.923 -0.9039 -0.2907  2.3719
 5403TIP3   OH237699   5.312   6.588  12.550  0.5481  0.1456  0.5633
 5403TIP3    H137700   5.226   6.627  12.534  1.1944  1.2341 -0.3327
 5403TIP3    H237701   5.373   6.646  12.505  1.5833 -1.6833 -0.4450
 5404TIP3   OH237702   5.964   3.106  15.289 -0.0356  0.3570 -0.2372
 5404TIP3    H137703   6.034   3.123  15.351 -1.2925  2.6231  0.6379
 5404TIP3    H237704   6.005   3.055  15.219  1.7467 -0.9210  1.6962
 5405TIP3   OH237705   3.056   5.549  13.104 -0.3232  0.2453  0.3810
 5405TIP3    H137706   3.101   5.465  13.113  0.0927  0.2645 -1.2538
 5405TIP3    H237707   2.963   5.526  13.103 -0.2611 -0.0484  1.3618
 5406TIP3   OH237708   0.062   1.850  15.516 -0.1276  0.3503 -0.1449
 5406TIP3    H137709   0.131   1.792  15.548  1.2893  1.6266 -0.8372
 5406TIP3    H237710   0.101   1.937  15.517 -2.2002  1.2878  0.7728
 5407TIP3   OH237711   2.592   6.541   4.520 -0.1469  0.9412 -0.5106
 5407TIP3    H137712   2.615   6.466   4.575 -1.2529  0.6474 -0.4471
 5407TIP3    H237713   2.626   6.617   4.569  0.9770  0.4981 -0.5776
 5408TIP3   OH237714   0.970   2.976   4.373  0.4204  0.0792 -0.1434
 5408TIP3    H137715   1.060   2.949   4.389  0.4109  0.2838  0.2511
 5408TIP3    H237716   0.922   2.894   4.363  0.4933 -0.0463  0.4970
 5409TIP3   OH237717   5.797   6.472  16.911  0.5020 -0.1583 -0.2090
 5409TIP3    H137718   5.783   6.466  17.006  0.0943 -0.1880 -0.2685
 5409TIP3    H237719   5.793   6.382  16.880  0.8217 -0.1664 -0.2287
 5410TIP3   OH237720   3.564   4.251   5.204 -1.0080 -0.1481 -0.6668
 5410TIP3    H137721   3.624   4.266   5.277  0.7632 -1.0351 -1.9165
 5410TIP3    H237722   3.497   4.192   5.240 -0.9515  0.5652  0.6397
 5411TIP3   OH237723   2.664   2.640   1.443 -0.6177  0.1018 -0.6901
 5411TIP3    H137724   2.724   2.568   1.428  2.0184  2.0506  0.1025
 5411TIP3    H237725   2.631   2.663   1.356 -0.4444 -1.1740 -1.0981
 5412TIP3   OH237726   4.859   0.508   0.418 -0.2338  0.4644  0.1117
 5412TIP3    H137727   4.811   0.555   0.486  1.8161  0.3352  1.6805
 5412TIP3    H237728   4.943   0.552   0.412 -0.0192 -0.1327 -1.6838
 5413TIP3   OH237729   4.454   6.725   3.887  0.0737 -0.2539 -0.4571
 5413TIP3    H137730   4.374   6.716   3.835  0.4950 -0.1565 -1.1270
 5413TIP3    H237731   4.517   6.765   3.827  0.5673 -0.1569  0.1263
 5414TIP3   OH237732   6.360   1.221  14.541 -0.3082 -0.2556 -0.0958
 5414TIP3    H137733   6.332   1.253  14.455 -0.6372 -1.4944 -0.4567
 5414TIP3    H237734   6.431   1.160  14.521 -0.6586 -0.8481  0.4873
 5415TIP3   OH237735   6.378   3.697  15.038  0.5743  0.1787  0.5628
 5415TIP3    H137736   6.358   3.750  15.115  0.9527  0.0050  0.7835
 5415TIP3    H237737   6.361   3.755  14.964  0.3034  0.3780  0.7828
 5416TIP3   OH237738   1.206   0.972   5.431  0.3420  0.3429  0.3314
 5416TIP3    H137739   1.157   0.905   5.479  0.6359  0.7363  1.1746
 5416TIP3    H237740   1.292   0.931   5.414  0.5609  0.5511  0.9444
 5417TIP3   OH237741   5.803   2.986  15.932  0.6122 -0.0208 -0.1016
 5417TIP3    H137742   5.827   2.894  15.924  1.2808  0.0677  0.7759
 5417TIP3    H237743   5.849   3.029  15.861  2.2206 -0.0201  0.9185
 5418TIP3   OH237744   1.786   0.182  16.509  0.2455  0.1156 -0.3050
 5418TIP3    H137745   1.858   0.149  16.455  1.1490  1.3806  0.1135
 5418TIP3    H237746   1.736   0.239  16.450  1.1694  1.4101  0.1409
 5419TIP3   OH237747   4.925   5.802  14.271 -0.8859  0.0108  0.1672
 5419TIP3    H137748   4.911   5.819  14.365 -1.5214  0.9295 -0.0850
 5419TIP3    H237749   5.020   5.813  14.259 -0.8758  0.4219  0.6021
 5420TIP3   OH237750   0.827   3.978   2.377 -0.4173 -0.0640 -0.3280
 5420TIP3    H137751   0.747   4.020   2.344 -0.5682 -0.7561 -0.8536
 5420TIP3    H237752   0.877   3.959   2.298  1.2672  2.3145  0.1098
 5421TIP3   OH237753   2.349   1.812  16.223 -0.5153 -0.1382 -0.3497
 5421TIP3    H137754   2.359   1.759  16.302 -0.1434  1.8248  0.9607
 5421TIP3    H237755   2.259   1.844  16.226 -1.2092 -1.8021 -1.8971
 5422TIP3   OH237756   4.447   0.029  11.561  0.2498  0.2886 -0.2300
 5422TIP3    H137757   4.418  -0.057  11.528 -0.9837  0.3137  0.7439
 5422TIP3    H237758   4.376   0.088  11.537  0.1282  0.6315  0.9352
 5423TIP3   OH237759   3.300   0.637  16.857 -0.1196 -0.4064  0.0021
 5423TIP3    H137760   3.256   0.602  16.779  0.0908  1.7746 -1.1479
 5423TIP3    H237761   3.251   0.716  16.878  1.7408  0.7342  0.1647
 5424TIP3   OH237762   3.307   5.954  12.031  0.0208  0.4313  0.0728
 5424TIP3    H137763   3.344   6.008  11.962 -1.6641 -0.9940 -2.0463
 5424TIP3    H237764   3.378   5.896  12.057  0.8175  1.3066 -0.1291
 5425TIP3   OH237765   3.721   0.584   5.320 -0.6828 -0.0182  0.7275
 5425TIP3    H137766   3.786   0.575   5.390 -1.8620 -0.5067  1.7802
 5425TIP3    H237767   3.753   0.656   5.267  0.1713  0.4435  1.8481
 5426TIP3   OH237768   0.540   6.813  14.933  0.3068 -0.0700 -0.3958
 5426TIP3    H137769   0.458   6.801  14.980  1.2906  0.5657  1.5286
 5426TIP3    H237770   0.550   6.732  14.881  0.4118 -1.9060  2.3712
 5427TIP3   OH237771   6.085   5.507   3.672 -0.3255  0.0330 -0.6385
 5427TIP3    H137772   6.001   5.466   3.650 -0.1512 -1.7007  1.6587
 5427TIP3    H237773   6.149   5.437   3.659  0.8274  1.3818 -2.5118
 5428TIP3   OH237774   0.701   6.497   3.257 -0.3001 -0.9703  0.6241
 5428TIP3    H137775   0.608   6.483   3.241 -0.7022  1.7854  0.3461
 5428TIP3    H237776   0.738   6.515   3.170 -0.3977  2.5985  1.2622
 5429TIP3   OH237777   4.697   2.155  13.098 -0.8968  0.2097  0.6273
 5429TIP3    H137778   4.729   2.243  13.080  0.3702 -0.3715  0.0060
 5429TIP3    H237779   4.625   2.143  13.035 -0.5349  0.4996  0.1516
 5430TIP3   OH237780   0.937   0.225   2.142  0.1166  0.0296  0.3094
 5430TIP3    H137781   0.861   0.175   2.170 -0.7247  0.6265 -0.8569
 5430TIP3    H237782   0.965   0.272   2.221 -0.8672 -0.0103  0.6886
 5431TIP3   OH237783   2.465   3.224  10.260 -0.0301  0.2177  0.3070
 5431TIP3    H137784   2.503   3.145  10.299 -2.1473 -0.7834  0.4108
 5431TIP3    H237785   2.492   3.221  10.168 -0.4148 -0.8360  0.2228
 5432TIP3   OH237786   5.411   0.629   2.425 -0.5782  0.1565 -0.0604
 5432TIP3    H137787   5.480   0.566   2.404 -2.9655 -2.0606 -1.4275
 5432TIP3    H237788   5.426   0.702   2.365  0.1155 -0.6275 -0.8393
 5433TIP3   OH237789   3.059   3.138   2.441  0.1271 -0.5040 -0.4798
 5433TIP3    H137790   3.039   3.231   2.456  1.5959 -0.1976 -0.3375
 5433TIP3    H237791   3.153   3.137   2.422 -0.3773 -1.6583 -3.1114
 5434TIP3   OH237792   0.344   2.549  16.535  0.4959 -0.4340 -0.5643
 5434TIP3    H137793   0.350   2.623  16.474 -1.2324  0.3397  0.1530
 5434TIP3    H237794   0.332   2.472  16.479  1.1846 -0.0336 -1.2741
 5435TIP3   OH237795   3.860   1.210  15.764 -0.1413 -0.0201  0.7436
 5435TIP3    H137796   3.940   1.166  15.794 -0.9814 -0.9137  1.7167
 5435TIP3    H237797   3.841   1.170  15.679  1.5952  1.6919 -0.5022
 5436TIP3   OH237798   0.903   3.269  14.470  0.1626  0.0694 -0.5875
 5436TIP3    H137799   0.988   3.277  14.513 -0.5564  1.9412  0.5347
 5436TIP3    H237800   0.920   3.293  14.379  1.0350 -0.6214 -0.6179
 5437TIP3   OH237801   1.996   0.222  15.026  0.1520 -0.0785 -0.0385
 5437TIP3    H137802   1.909   0.184  15.038 -0.5523  0.9472 -1.8179
 5437TIP3    H237803   2.055   0.147  15.024 -1.0831 -1.0021 -2.2579
 5438TIP3   OH237804   1.222   2.266   2.833  0.3573 -0.0343 -0.1425
 5438TIP3    H137805   1.128   2.272   2.854  0.5137  0.3305  0.4582
 5438TIP3    H237806   1.242   2.173   2.840  0.2343 -0.0078  0.5718
 5439TIP3   OH237807   4.788   3.270   5.436  0.2286  0.2750 -0.5528
 5439TIP3    H137808   4.840   3.206   5.388  0.5834  0.0445  0.1348
 5439TIP3    H237809   4.853   3.323   5.483  0.0712  2.3196 -2.5312
 5440TIP3   OH237810   1.326   5.994  16.977  0.4103 -0.2290 -0.0908
 5440TIP3    H137811   1.288   6.068  16.930 -0.2139 -1.6223 -1.7999
 5440TIP3    H237812   1.397   5.963  16.920  1.2260 -0.4231  1.0114
 5441TIP3   OH237813   1.722   1.674  13.880 -0.4736 -0.2328 -0.2623
 5441TIP3    H137814   1.709   1.659  13.973  0.8760 -0.4062 -0.0925
 5441TIP3    H237815   1.743   1.588  13.844  3.3922  0.5034  0.0464
 5442TIP3   OH237816   3.508   4.010   5.030 -0.4702  0.6486  0.5925
 5442TIP3    H137817   3.554   4.066   5.092 -0.4663  1.7750 -0.4102
 5442TIP3    H237818   3.429   3.983   5.076  0.1808  0.3746  1.5724
 5443TIP3   OH237819   3.682   1.679   1.155 -0.0912 -0.0405  0.3976
 5443TIP3    H137820   3.770   1.643   1.160  0.1090  0.4132  0.2161
 5443TIP3    H237821   3.683   1.754   1.215 -0.4363 -0.2021  0.6080
 5444TIP3   OH237822   1.742   2.204   0.504  0.5415  0.2085  0.2201
 5444TIP3    H137823   1.765   2.290   0.468  1.4193  0.3429  1.0518
 5444TIP3    H237824   1.799   2.143   0.457  2.0977  0.4509  1.7441
 5445TIP3   OH237825   3.287   3.625  11.680 -0.2921  0.4879  0.1571
 5445TIP3    H137826   3.342   3.691  11.720  0.1650  0.8633 -1.0830
 5445TIP3    H237827   3.274   3.655  11.590  0.4813 -1.4396 -0.6236
 5446TIP3   OH237828   4.987   6.216   5.954  0.2402 -0.1354  0.0216
 5446TIP3    H137829   4.987   6.302   5.911 -0.6270 -1.7614 -3.3601
 5446TIP3    H237830   4.961   6.155   5.885 -0.2520 -2.9914  2.6693
 5447TIP3   OH237831   2.054   0.304  16.273  1.0815 -0.4120 -0.1697
 5447TIP3    H137832   1.977   0.253  16.249  0.0777  1.0187 -0.0224
 5447TIP3    H237833   2.087   0.339  16.190 -1.0474  2.6342  0.1948
 5448TIP3   OH237834   1.512   6.791   0.386  0.4026  0.1655  0.2423
 5448TIP3    H137835   1.421   6.802   0.357 -0.0496 -1.9274  0.7923
 5448TIP3    H237836   1.557   6.868   0.351 -1.7954  1.8099  0.8889
 5449TIP3   OH237837   3.751   4.884   2.404  0.0808 -0.2581  0.3303
 5449TIP3    H137838   3.799   4.954   2.448 -0.6743 -0.3390  1.3071
 5449TIP3    H237839   3.819   4.824   2.374  0.6692  0.3184  0.4855
 5450TIP3   OH237840   5.461   1.311  11.564 -0.3451 -0.7121  0.1000
 5450TIP3    H137841   5.499   1.224  11.572 -0.5534 -1.1003 -2.7365
 5450TIP3    H237842   5.388   1.301  11.503 -0.0398  1.5245 -0.6987
 5451TIP3   OH237843   1.599   5.202  15.445  0.0946 -0.3968  0.0025
 5451TIP3    H137844   1.638   5.120  15.414  1.1379 -0.2033  0.7658
 5451TIP3    H237845   1.580   5.251  15.365  2.1690 -0.1676 -0.3858
 5452TIP3   OH237846   4.516   2.132  13.657  0.0837 -0.0142 -0.5128
 5452TIP3    H137847   4.466   2.050  13.656  1.9412 -1.1622 -2.6961
 5452TIP3    H237848   4.606   2.106  13.677  0.5782  1.5745 -0.5945
 5453TIP3   OH237849   2.295   2.250   2.371 -0.4172  0.5605  0.2993
 5453TIP3    H137850   2.334   2.189   2.434 -0.1525 -0.5188 -0.8937
 5453TIP3    H237851   2.369   2.280   2.318 -0.7953  0.6390 -0.1854
 5454TIP3   OH237852   5.393   5.155  13.607  0.2480  0.1311  0.2404
 5454TIP3    H137853   5.411   5.136  13.699 -0.3462 -1.6742  0.0160
 5454TIP3    H237854   5.453   5.099  13.558 -0.4554 -0.0249 -0.4680
 5455TIP3   OH237855   0.848   0.905  11.993  0.6764  0.3129 -0.1032
 5455TIP3    H137856   0.800   0.823  12.001  0.2029  0.8304  2.8566
 5455TIP3    H237857   0.787   0.964  11.947  0.1718 -0.3340 -0.2693
 5456TIP3   OH237858   2.148   3.161  15.911  0.1860 -0.2147 -0.0225
 5456TIP3    H137859   2.159   3.155  15.816 -0.0296 -0.4732 -0.0317
 5456TIP3    H237860   2.076   3.101  15.930  1.1115 -1.1969  0.4708
 5457TIP3   OH237861   6.573   1.957   4.942 -0.3103  0.0301 -0.4648
 5457TIP3    H137862   6.639   2.003   4.890  0.0640  0.6270  0.5275
 5457TIP3    H237863   6.534   2.026   4.996 -2.1133 -0.2159 -1.4103
 5458TIP3   OH237864   4.543   3.683   5.506 -0.8546 -0.6838 -0.3660
 5458TIP3    H137865   4.508   3.632   5.579 -0.0308 -1.1976 -0.3150
 5458TIP3    H237866   4.536   3.774   5.534 -3.3037 -0.6925 -0.8867
 5459TIP3   OH237867   5.958   1.084   3.227 -0.0707 -0.0566  0.1341
 5459TIP3    H137868   5.886   1.133   3.187  1.0383  0.6985 -0.9597
 5459TIP3    H237869   6.037   1.130   3.199  0.9012 -1.4686  0.5029
 5460TIP3   OH237870   3.089   3.417  17.148 -0.4189  0.3022 -0.6147
 5460TIP3    H137871   3.102   3.323  17.161 -2.6458  0.1938  1.2822
 5460TIP3    H237872   3.112   3.432  17.057 -2.0989 -2.4894 -1.5655
 5461TIP3   OH237873   2.583   0.853   2.457  0.4059 -0.4851  0.1149
 5461TIP3    H137874   2.537   0.773   2.431 -2.1289  0.4527  1.5545
 5461TIP3    H237875   2.574   0.856   2.552  1.2678  1.0481  0.1645
 5462TIP3   OH237876   1.891   4.373  11.864 -0.9396  0.0314 -0.3791
 5462TIP3    H137877   1.828   4.415  11.806 -0.4675  0.7680 -0.3594
 5462TIP3    H237878   1.851   4.288  11.885 -1.1971 -0.1633 -1.6138
 5463TIP3   OH237879   2.220   3.663   4.793  0.1598 -0.5384  0.4187
 5463TIP3    H137880   2.181   3.653   4.880  2.2569 -1.9165  1.2383
 5463TIP3    H237881   2.146   3.651   4.733 -1.8279  3.0093  1.9871
 5464TIP3   OH237882   3.180   0.268   3.855  0.0605  0.2238  0.2806
 5464TIP3    H137883   3.193   0.346   3.909 -0.3781  0.7205 -0.3243
 5464TIP3    H237884   3.184   0.300   3.765 -0.8506 -0.3283  0.0328
 5465TIP3   OH237885   3.087   5.653  12.676 -0.5974 -0.1256 -0.3265
 5465TIP3    H137886   3.103   5.559  12.683 -3.5532 -0.6543 -0.0709
 5465TIP3    H237887   3.122   5.690  12.757 -0.8711 -1.2449  0.3088
 5466TIP3   OH237888   5.829   4.540  15.995 -0.4850 -0.1843  0.2088
 5466TIP3    H137889   5.878   4.600  15.940 -0.9099 -0.2860 -0.2853
 5466TIP3    H237890   5.790   4.595  16.063  0.0355 -0.0589  0.4097
 5467TIP3   OH237891   3.509   6.164  12.704 -0.2393 -0.0168  0.2235
 5467TIP3    H137892   3.529   6.247  12.746 -3.7885  2.0060 -1.8121
 5467TIP3    H237893   3.431   6.132  12.749 -0.2605 -1.0752 -0.5233
 5468TIP3   OH237894   6.582   1.862  13.173  0.4101  0.1862  0.1241
 5468TIP3    H137895   6.512   1.804  13.204 -1.2040  1.9987 -0.0537
 5468TIP3    H237896   6.646   1.862  13.244  0.4899 -1.8557  0.0981
 5469TIP3   OH237897   4.673   0.336   0.739  0.1505  0.2991 -0.0621
 5469TIP3    H137898   4.583   0.309   0.721 -0.1197  1.2090 -0.1017
 5469TIP3    H237899   4.665   0.420   0.784  0.9620  0.1020  0.4728
 5470TIP3   OH237900   4.750   2.006  15.312 -0.6790  0.9474 -0.2914
 5470TIP3    H137901   4.709   2.090  15.331  1.0424  1.8011 -0.2173
 5470TIP3    H237902   4.775   2.012  15.220  1.0503  1.2489  0.1731
 5471TIP3   OH237903   4.849   0.623   5.678  0.4056  0.1028 -0.0520
 5471TIP3    H137904   4.933   0.668   5.668  0.0651  0.4530 -1.3714
 5471TIP3    H237905   4.851   0.554   5.613  0.3969 -1.0153  1.1161
 5472TIP3   OH237906   3.527   3.680   4.453 -0.7219  0.3578 -0.4689
 5472TIP3    H137907   3.444   3.633   4.443  0.2773 -1.3323 -1.1715
 5472TIP3    H237908   3.568   3.639   4.529  0.4573 -0.3808 -1.4864
 5473TIP3   OH237909   0.282   5.041   1.581 -0.6315  0.0916 -0.1351
 5473TIP3    H137910   0.241   5.033   1.495  0.9360  0.5600 -0.9451
 5473TIP3    H237911   0.349   5.107   1.569  1.6593 -2.0321  0.6577
 5474TIP3   OH237912   4.329   1.700   3.339  0.3436  0.3103 -0.1697
 5474TIP3    H137913   4.376   1.783   3.338 -3.0067  2.3438 -0.1958
 5474TIP3    H237914   4.243   1.722   3.303 -0.4104 -3.3357 -0.7755
 5475TIP3   OH237915   5.750   2.096  15.909 -0.3626 -0.6467  0.3620
 5475TIP3    H137916   5.731   2.015  15.862  0.2023 -1.2260  1.1266
 5475TIP3    H237917   5.676   2.107  15.969 -0.2900 -0.7506  0.4694
 5476TIP3   OH237918   6.431   3.053   6.799  0.0823  0.2689  0.6459
 5476TIP3    H137919   6.446   3.031   6.707 -0.9786  3.6301 -0.4195
 5476TIP3    H237920   6.429   2.969   6.844  0.7545 -1.4427 -2.3804
 5477TIP3   OH237921   5.044   2.899   2.603 -0.0547 -0.1197 -0.0491
 5477TIP3    H137922   5.059   2.976   2.657 -3.1090 -0.0344  0.8120
 5477TIP3    H237923   5.051   2.825   2.663 -1.0828 -0.1872  0.0112
 5478TIP3   OH237924   6.754   6.318  11.558 -0.2853 -0.3961  1.0341
 5478TIP3    H137925   6.667   6.279  11.549 -0.4903 -0.2086  2.1939
 5478TIP3    H237926   6.814   6.247  11.536 -0.7411 -0.2160 -0.8921
 5479TIP3   OH237927   6.549   4.615  11.120  0.1571  0.3901  0.1850
 5479TIP3    H137928   6.547   4.630  11.025 -1.2369 -1.9404 -0.1849
 5479TIP3    H237929   6.467   4.653  11.152  1.1016  2.0967  0.6273
 5480TIP3   OH237930   6.330   1.410  15.977 -0.6308 -0.2348 -0.2149
 5480TIP3    H137931   6.378   1.462  16.042  0.5207 -2.2214  0.5735
 5480TIP3    H237932   6.302   1.474  15.911  1.6689  1.2197  0.1692
 5481TIP3   OH237933   4.452   4.198   4.631 -0.4167 -0.2634  0.2818
 5481TIP3    H137934   4.395   4.134   4.674  2.3274 -3.1649 -0.1447
 5481TIP3    H237935   4.523   4.213   4.694 -0.8717  2.1902  0.2503
 5482TIP3   OH237936   4.763   5.338  10.802  0.4159  0.0909  0.2046
 5482TIP3    H137937   4.724   5.400  10.741  0.6844 -1.8946 -2.0714
 5482TIP3    H237938   4.714   5.257  10.789  1.3954 -0.7630  1.6415
 5483TIP3   OH237939   5.006   1.663  11.902 -0.5975  0.2856  0.2130
 5483TIP3    H137940   4.921   1.684  11.941  0.0632  0.0610  1.7981
 5483TIP3    H237941   5.003   1.569  11.884 -1.1265  0.4988 -0.8622
 5484TIP3   OH237942   5.939   0.061  13.551  0.1516  0.7545  0.0789
 5484TIP3    H137943   5.945   0.147  13.593  1.1824  1.0602 -0.6824
 5484TIP3    H237944   6.018   0.054  13.498 -0.4527 -0.2244 -0.7176
 5485TIP3   OH237945   6.781   2.667   2.134  0.5015 -0.0204 -0.5955
 5485TIP3    H137946   6.731   2.592   2.167 -0.4519  1.0505  0.4943
 5485TIP3    H237947   6.739   2.690   2.051  0.5597 -0.4672 -0.7476
 5486TIP3   OH237948   3.568   3.521  15.495  0.3170  0.2497 -0.4450
 5486TIP3    H137949   3.568   3.429  15.523 -1.1189  0.3227 -0.1414
 5486TIP3    H237950   3.487   3.557  15.532 -1.4023  0.5069 -4.2428
 5487TIP3   OH237951   0.525   6.391  16.776 -0.4243  0.1748  0.0721
 5487TIP3    H137952   0.486   6.461  16.723  0.0703  0.3842 -0.0201
 5487TIP3    H237953   0.529   6.427  16.864  0.8754  0.7056 -0.1847
 5488TIP3   OH237954   2.055   1.022   5.407  0.0639 -0.5653 -0.0565
 5488TIP3    H137955   1.965   0.992   5.411  0.1343 -0.7507  0.2234
 5488TIP3    H237956   2.056   1.090   5.340 -0.4368 -0.0420  0.4702
 5489TIP3   OH237957   5.162   5.965  16.617  0.0194  0.2084  0.0714
 5489TIP3    H137958   5.134   6.028  16.552  1.0974 -0.6381 -1.2440
 5489TIP3    H237959   5.092   5.966  16.683 -2.7516 -1.2935 -2.6974
 5490TIP3   OH237960   3.969   2.493   2.939 -0.5945  0.0626 -0.0740
 5490TIP3    H137961   3.919   2.425   2.986 -1.4284  0.4555 -0.3767
 5490TIP3    H237962   3.908   2.567   2.933  0.2420  0.7692  0.0799
 5491TIP3   OH237963   0.946   2.029   3.170  0.2138 -0.1180 -0.3723
 5491TIP3    H137964   1.034   2.063   3.185 -0.6172  1.3618  1.4736
 5491TIP3    H237965   0.899   2.102   3.128 -0.7878  0.0230  0.9411
 5492TIP3   OH237966   1.438   4.231  11.205 -0.1259 -0.3802 -0.2828
 5492TIP3    H137967   1.476   4.150  11.171 -2.8897 -1.9885  0.3386
 5492TIP3    H237968   1.373   4.257  11.140  1.0882  1.6392 -0.7262
 5493TIP3   OH237969   3.829   0.032   0.429  0.2383  0.5848 -0.0831
 5493TIP3    H137970   3.759   0.034   0.493 -0.9626  0.5237 -1.3620
 5493TIP3    H237971   3.825   0.117   0.385  0.8991  0.5472 -0.2286
 5494TIP3   OH237972   1.307   2.161   1.033  0.3585  0.5095  0.4514
 5494TIP3    H137973   1.213   2.147   1.040  0.5035 -1.0459 -0.4658
 5494TIP3    H237974   1.334   2.108   0.958  1.7329  2.0766 -0.2105
 5495TIP3   OH237975   6.764   6.147   5.636  0.5187  0.0435 -0.2106
 5495TIP3    H137976   6.795   6.077   5.579  1.4129 -0.8698  1.3565
 5495TIP3    H237977   6.702   6.104   5.695 -0.6295  1.0402 -0.6719
 5496TIP3   OH237978   3.006   2.853   4.354  0.1192 -0.4491  0.1349
 5496TIP3    H137979   2.934   2.893   4.403  0.1268  0.4995 -0.6071
 5496TIP3    H237980   2.966   2.780   4.308 -0.4950  0.4158 -0.7192
 5497TIP3   OH237981   0.362   5.791  16.406 -0.1354 -0.4197  0.7752
 5497TIP3    H137982   0.396   5.771  16.494 -0.2580  1.9895  1.4055
 5497TIP3    H237983   0.381   5.884  16.393  2.2086 -1.3157 -2.8559
 5498TIP3   OH237984   5.981   3.214  15.793 -0.1345 -0.1926 -0.3011
 5498TIP3    H137985   6.071   3.233  15.819  0.2834 -1.2214 -0.9652
 5498TIP3    H237986   5.962   3.277  15.724 -0.3275  0.7840  0.6308
 5499TIP3   OH237987   3.447   6.601   5.650 -0.2571 -0.3246 -0.0641
 5499TIP3    H137988   3.375   6.654   5.683  0.2275 -0.0971  0.6511
 5499TIP3    H237989   3.425   6.512   5.675 -0.1963 -0.2298  0.3274
 5500TIP3   OH237990   2.936   3.519   1.042  0.4385 -0.4520 -0.2920
 5500TIP3    H137991   3.028   3.495   1.029  0.4211 -0.6760 -0.0163
 5500TIP3    H237992   2.911   3.562   0.961  0.7309 -0.5712 -0.4485
 5501TIP3   OH237993   0.888   1.017   3.107 -0.2180  0.2787 -0.1357
 5501TIP3    H137994   0.935   1.032   3.189  1.4266 -1.5178 -0.7161
 5501TIP3    H237995   0.799   0.994   3.134  0.1081  0.4648  1.1134
 5502TIP3   OH237996   1.523   5.595   5.129  0.7283  0.0841  0.1515
 5502TIP3    H137997   1.576   5.674   5.134 -0.1079  0.7258 -1.0717
 5502TIP3    H237998   1.450   5.610   5.189  1.1191 -0.1951  0.7061
 5503TIP3   OH237999   3.280   0.082  15.358  0.3052 -0.3842 -0.7637
 5503TIP3    H138000   3.190   0.050  15.362  0.0378  0.2346 -1.6321
 5503TIP3    H238001   3.310   0.060  15.270  0.6255  0.3950 -0.8603
 5504TIP3   OH238002   0.462   1.042  11.258  0.2028 -0.1669  0.1585
 5504TIP3    H138003   0.539   1.026  11.203  0.1604 -2.1870  0.6210
 5504TIP3    H238004   0.388   1.022  11.200  0.1495 -1.9179  0.7907
 5505TIP3   OH238005   5.080   2.085   6.535  0.0314  0.5804 -0.3501
 5505TIP3    H138006   4.988   2.081   6.511  0.1202  1.1760 -0.8055
 5505TIP3    H238007   5.125   2.040   6.463  0.1957  1.3293 -0.7204
 5506TIP3   OH238008   0.021   1.921  16.298  0.3686 -0.0506  0.6363
 5506TIP3    H138009  -0.074   1.927  16.313  0.4126  0.9051  0.5626
 5506TIP3    H238010   0.046   1.839  16.340 -0.3828  0.0305  1.2684
 5507TIP3   OH238011   1.641   5.209   5.583  0.4285 -0.0065  0.1611
 5507TIP3    H138012   1.718   5.259   5.610  1.8425 -1.9469 -0.1388
 5507TIP3    H238013   1.596   5.187   5.665  0.9439 -0.0451  0.4332
 5508TIP3   OH238014   5.200   1.331  11.168 -0.7839  0.0576  0.3363
 5508TIP3    H138015   5.159   1.317  11.083 -0.5736  1.8403 -0.0833
 5508TIP3    H238016   5.293   1.340  11.148 -0.7786  0.8569  0.6969
 5509TIP3   OH238017   1.527   5.452  16.156  1.0847 -0.0363  0.4285
 5509TIP3    H138018   1.604   5.395  16.152 -0.2783 -1.8782 -0.7505
 5509TIP3    H238019   1.499   5.448  16.248  1.6761 -0.3353  0.5990
 5510TIP3   OH238020   5.358   5.721  12.275 -0.2950 -0.9804 -0.1829
 5510TIP3    H138021   5.381   5.795  12.331  0.1009 -0.3586 -1.1451
 5510TIP3    H238022   5.430   5.715  12.212 -0.6013 -1.8277 -0.4618
 5511TIP3   OH238023   1.683   3.601   5.680  0.0186  0.7037  0.2273
 5511TIP3    H138024   1.650   3.548   5.753 -0.0724 -0.4778 -0.6633
 5511TIP3    H238025   1.778   3.591   5.684 -0.0627 -0.4895 -0.6525
 5512TIP3   OH238026   2.750   2.485   0.331  0.2684 -0.0646 -0.0265
 5512TIP3    H138027   2.823   2.547   0.323  0.0232  0.3871  1.1272
 5512TIP3    H238028   2.753   2.456   0.422 -0.7518 -0.3392 -0.0751
 5513TIP3   OH238029   1.238   2.488   0.973  0.2699 -0.4376 -1.0121
 5513TIP3    H138030   1.279   2.401   0.980  1.1306 -0.0978 -1.8238
 5513TIP3    H238031   1.157   2.472   0.926 -0.3613 -1.0527  0.2490
 5514TIP3   OH238032   1.467   2.842  14.314 -0.4991 -0.5562  0.7802
 5514TIP3    H138033   1.402   2.813  14.378 -0.7075 -0.2615  0.7027
 5514TIP3    H238034   1.449   2.936  14.303  0.2916 -0.3485  1.1839
 5515TIP3   OH238035   6.583   2.478   4.126 -0.0179  0.2835  1.1837
 5515TIP3    H138036   6.636   2.399   4.139 -1.0635 -0.5395  0.5597
 5515TIP3    H238037   6.582   2.490   4.031 -3.0578 -1.2149  0.9761
 5516TIP3   OH238038   5.871   1.637  10.867 -0.2557  0.3937  0.6764
 5516TIP3    H138039   5.956   1.594  10.852 -1.0781 -0.5636 -1.4994
 5516TIP3    H238040   5.806   1.569  10.848 -1.5764  2.3223 -1.9705
 5517TIP3   OH238041   3.005   5.793  12.079 -0.2663 -0.0257 -0.4800
 5517TIP3    H138042   2.942   5.859  12.108  1.3345  1.3160  0.0090
 5517TIP3    H238043   3.000   5.724  12.145 -2.4984 -0.7774 -1.3965
 5518TIP3   OH238044   0.013   3.344   4.122 -0.0228  0.0814 -0.3144
 5518TIP3    H138045   0.053   3.401   4.187 -0.3512  1.3784 -1.2246
 5518TIP3    H238046  -0.055   3.296   4.170 -0.5475  1.3331  0.2145
 5519TIP3   OH238047   1.206   4.716   0.570 -0.4927 -0.1905  0.1180
 5519TIP3    H138048   1.121   4.744   0.535 -1.4014 -2.4953  0.4359
 5519TIP3    H238049   1.197   4.725   0.664  0.0548  0.6937  0.0978
 5520TIP3   OH238050   0.008   1.852  15.872 -0.0080  0.0755  0.9629
 5520TIP3    H138051  -0.031   1.884  15.790  0.4665  1.1485  1.1529
 5520TIP3    H238052   0.084   1.801  15.843  0.8929  1.4817  0.7633
 5521TIP3   OH238053   3.297   0.176  14.969  0.3213 -0.2984  0.1515
 5521TIP3    H138054   3.324   0.182  14.878  1.2305 -3.0544  0.1808
 5521TIP3    H238055   3.282   0.266  14.997 -0.5950  0.5211 -2.8967
 5522TIP3   OH238056   6.018   5.093  14.797  0.1725 -0.1569 -0.2208
 5522TIP3    H138057   5.959   5.069  14.868  0.3827  1.7362  0.6431
 5522TIP3    H238058   5.974   5.166  14.754  1.0795  0.1515 -0.6370
 5523TIP3   OH238059   6.064   2.500  13.326 -0.4053  0.6797  0.1788
 5523TIP3    H138060   6.084   2.455  13.244 -0.2091  0.4977  0.3273
 5523TIP3    H238061   5.980   2.545  13.308 -0.8342 -0.1116  0.1769
 5524TIP3   OH238062   6.189   4.475  13.358  0.0831 -0.0571 -0.4134
 5524TIP3    H138063   6.245   4.417  13.307 -0.5589  1.1071 -2.4777
 5524TIP3    H238064   6.248   4.517  13.421  1.0848 -0.6369 -0.9668
 5525TIP3   OH238065   4.244   6.632   4.314  0.4055  0.2675  0.0337
 5525TIP3    H138066   4.271   6.541   4.312  1.9699  0.7348 -0.6254
 5525TIP3    H238067   4.198   6.646   4.231  1.4336  0.4516 -0.5104
 5526TIP3   OH238068   4.313   0.684  12.665  0.5579 -0.3083 -0.0275
 5526TIP3    H138069   4.262   0.728  12.733  0.7494  0.1046 -0.1466
 5526TIP3    H238070   4.248   0.657  12.600  0.2978 -1.2987  0.6432
 5527TIP3   OH238071   1.213   6.646   0.067  0.2031  0.1340 -0.1366
 5527TIP3    H138072   1.213   6.553   0.088  3.7728  0.2346  0.6337
 5527TIP3    H238073   1.191   6.650  -0.026  0.5399 -1.5191 -0.2935
 5528TIP3   OH238074   6.193   2.657  12.851  0.0778  0.0327 -0.1528
 5528TIP3    H138075   6.160   2.727  12.794  0.1995  0.4950  0.3473
 5528TIP3    H238076   6.215   2.701  12.933 -0.9517 -0.7868  0.5707
 5529TIP3   OH238077   1.474   2.492  10.995  0.4538 -0.1304 -0.3790
 5529TIP3    H138078   1.407   2.493  10.926  0.4673  0.8793 -0.3859
 5529TIP3    H238079   1.425   2.495  11.076  0.4626 -0.3286 -0.3669
 5530TIP3   OH238080   4.888   0.836  14.409 -0.3507 -0.4527  0.2879
 5530TIP3    H138081   4.818   0.890  14.374  0.9427  0.5108 -0.8956
 5530TIP3    H238082   4.895   0.763  14.347  1.3785  0.8116 -1.0675
 5531TIP3   OH238083   6.702   6.340   6.040  0.8291  0.7113 -0.6859
 5531TIP3    H138084   6.745   6.322   6.124  0.0108  1.4029 -0.1149
 5531TIP3    H238085   6.615   6.370   6.064 -0.3324 -1.6001 -1.8738
 5532TIP3   OH238086   0.430   2.225   0.489 -0.3121  0.1524 -0.3351
 5532TIP3    H138087   0.365   2.225   0.419 -1.4877 -0.3589  0.7495
 5532TIP3    H238088   0.383   2.256   0.566  0.8804  0.3707  0.3247
 5533TIP3   OH238089   2.840   1.817   4.633 -0.0261 -0.3239 -0.0044
 5533TIP3    H138090   2.892   1.825   4.713  0.8203 -1.3778 -0.4379
 5533TIP3    H238091   2.786   1.740   4.648 -0.5058 -0.0023 -0.0902
 5534TIP3   OH238092   1.192   2.309   2.229 -0.4120  0.0843 -0.3131
 5534TIP3    H138093   1.199   2.381   2.292  0.9381 -0.7729  0.5489
 5534TIP3    H238094   1.165   2.351   2.147 -0.6869  1.4191  0.4432
 5535TIP3   OH238095   4.285   1.158  11.554  0.2752 -0.8039  0.6050
 5535TIP3    H138096   4.210   1.154  11.494  0.3703 -0.9496  0.4961
 5535TIP3    H238097   4.321   1.069  11.553  1.2139 -0.4186 -0.3169
 5536TIP3   OH238098   1.802   1.460  13.692  0.3781  0.2558  0.3567
 5536TIP3    H138099   1.743   1.492  13.624  0.0939 -0.8499  0.0910
 5536TIP3    H238100   1.832   1.375  13.661  0.2267 -0.2687  1.6224
 5537TIP3   OH238101   3.698   0.976   0.900  0.0334 -0.3530 -0.1721
 5537TIP3    H138102   3.728   1.066   0.887  1.0134 -0.5268  0.8358
 5537TIP3    H238103   3.739   0.927   0.829 -1.2299  0.1404 -1.2650
 5538TIP3   OH238104   4.021   2.957   0.209  0.1153  0.5845 -0.0795
 5538TIP3    H138105   3.932   2.975   0.239 -0.5767  0.8843 -2.2059
 5538TIP3    H238106   4.013   2.955   0.114  2.3898  0.6052 -0.2783
 5539TIP3   OH238107   1.939   4.860   2.412  0.4988 -0.4538  0.7720
 5539TIP3    H138108   1.945   4.833   2.320  1.8941  0.6279  0.5247
 5539TIP3    H238109   1.997   4.800   2.458  1.6064  0.4444  0.5886
 5540TIP3   OH238110   6.230   0.851  11.136  0.1324  0.5411 -0.3548
 5540TIP3    H138111   6.171   0.821  11.067 -1.0070  0.3747  0.6765
 5540TIP3    H238112   6.313   0.806  11.118  0.0736  1.0500 -2.0156
 5541TIP3   OH238113   6.693   3.197  14.854 -0.0617  0.3309 -0.2922
 5541TIP3    H138114   6.610   3.177  14.810  0.3526  0.9896 -1.4109
 5541TIP3    H238115   6.674   3.276  14.905 -0.1068  0.5343 -0.6192
 5542TIP3   OH238116   4.696   1.011  14.419  0.1331  0.2885 -0.1610
 5542TIP3    H138117   4.659   1.016  14.507 -1.3304 -0.9727 -0.6825
 5542TIP3    H238118   4.710   1.102  14.393  0.1730  0.6796  1.1995
 5543TIP3   OH238119   3.939   2.203   1.326 -0.3829 -0.1733 -0.0142
 5543TIP3    H138120   3.858   2.254   1.325  0.5010  1.2807 -0.8197
 5543TIP3    H238121   3.949   2.174   1.417 -1.0189  0.9431  0.4200
 5544TIP3   OH238122   1.885   5.794   2.654 -0.4202 -0.4943 -0.0552
 5544TIP3    H138123   1.889   5.702   2.627 -1.7014 -0.0232 -1.9741
 5544TIP3    H238124   1.950   5.838   2.599  0.6530 -0.3468  1.3192
 5545TIP3   OH238125   2.220   0.915  14.487  0.6930  0.5668 -0.6598
 5545TIP3    H138126   2.285   0.928  14.556 -0.1939 -1.2682  0.5458
 5545TIP3    H238127   2.177   1.000  14.479 -0.4346  0.3523  2.3620
 5546TIP3   OH238128   4.343   3.486  15.860 -0.4445  0.9148 -0.0770
 5546TIP3    H138129   4.265   3.446  15.821  2.1076 -1.3556 -3.1434
 5546TIP3    H238130   4.350   3.571  15.816 -0.0341  0.2070 -1.4210
 5547TIP3   OH238131   0.343   3.048   4.516  0.0694 -0.1815 -0.5092
 5547TIP3    H138132   0.256   3.051   4.478  0.0068 -2.3411 -0.6164
 5547TIP3    H238133   0.330   3.009   4.603  0.9837 -1.0845 -0.7686
 5548TIP3   OH238134   5.562   0.058   1.195 -0.1327 -0.0386  0.7471
 5548TIP3    H138135   5.466   0.058   1.193 -0.1173  0.4686 -0.8713
 5548TIP3    H238136   5.586  -0.035   1.192 -0.5682 -0.1385  0.2985
 5549TIP3   OH238137   0.602   2.400   3.194  0.1022  0.0745 -0.4153
 5549TIP3    H138138   0.513   2.364   3.190  0.2244 -0.3590  0.5328
 5549TIP3    H238139   0.633   2.376   3.281  0.9303  0.7518 -0.5205
 5550TIP3   OH238140   5.228   0.196   4.680 -0.5337  0.3581 -0.1154
 5550TIP3    H138141   5.263   0.168   4.595 -0.2539  2.3792 -0.6758
 5550TIP3    H238142   5.153   0.251   4.660 -0.8632  0.3299  0.9685
 5551TIP3   OH238143   1.874   5.009  16.130  0.1129 -0.0140 -0.2477
 5551TIP3    H138144   1.962   5.042  16.110  0.7605 -2.5765 -1.9014
 5551TIP3    H238145   1.887   4.953  16.207 -0.3669  0.8364  0.4608
 5552TIP3   OH238146   5.160   0.940   1.071  0.4202 -0.4879 -0.1931
 5552TIP3    H138147   5.149   0.850   1.038  0.0215 -0.7724  0.6944
 5552TIP3    H238148   5.106   0.943   1.149  0.0664  0.6765 -0.4740
 5553TIP3   OH238149   4.508   5.132   1.015 -0.7326 -0.3075  0.0871
 5553TIP3    H138150   4.437   5.118   1.077 -0.7333  1.9294  0.6373
 5553TIP3    H238151   4.570   5.061   1.033 -2.4954 -1.9070  0.0288
 5554TIP3   OH238152   3.636   5.319   3.740  0.8248  0.4796 -0.2539
 5554TIP3    H138153   3.558   5.265   3.728 -0.3185  2.3805 -1.7077
 5554TIP3    H238154   3.628   5.355   3.828  0.0687  0.6199 -0.3732
 5555TIP3   OH238155   5.235   6.074  14.142  0.2367  0.7973  0.0865
 5555TIP3    H138156   5.229   6.170  14.148 -0.3645  0.7427  0.4624
 5555TIP3    H238157   5.278   6.058  14.058  0.4238  1.3993  0.0597
 5556TIP3   OH238158   4.340   0.225   2.617 -0.1223 -0.0290 -0.1800
 5556TIP3    H138159   4.413   0.285   2.600 -1.0231  1.1009 -0.0558
 5556TIP3    H238160   4.309   0.248   2.704 -1.0756 -0.0417 -0.5093
 5557TIP3   OH238161   5.388   3.711  11.755 -0.6883 -0.0307 -0.3811
 5557TIP3    H138162   5.454   3.736  11.690 -1.0434  1.2311 -0.2732
 5557TIP3    H238163   5.345   3.634  11.717  0.7127 -0.7445 -0.5383
 5558TIP3   OH238164   3.601   2.414   2.088 -0.0031  0.2071  0.0429
 5558TIP3    H138165   3.558   2.371   2.015 -0.2798 -0.1601  0.4184
 5558TIP3    H238166   3.536   2.415   2.158  0.4117  0.1332  0.4371
 5559TIP3   OH238167   6.086   5.821   0.988  0.2435 -0.7534 -0.1376
 5559TIP3    H138168   6.012   5.761   0.981  1.2832 -1.8854 -1.5827
 5559TIP3    H238169   6.147   5.792   0.920  1.5518  0.8146  0.3529
 5560TIP3   OH238170   1.493   2.477  12.219  0.0133 -0.1398 -0.4800
 5560TIP3    H138171   1.486   2.382  12.222  0.5470 -0.2096 -1.2277
 5560TIP3    H238172   1.489   2.499  12.126  1.9611  0.3897 -0.4705
 5561TIP3   OH238173   2.786   6.324  12.674  0.5630  0.0527  0.3600
 5561TIP3    H138174   2.843   6.260  12.716  1.2068  0.3014 -0.1356
 5561TIP3    H238175   2.841   6.402  12.662  1.0357 -0.7113 -2.8772
 5562TIP3   OH238176   0.154   4.687   4.158  0.4648  0.4994  0.3119
 5562TIP3    H138177   0.150   4.735   4.075  2.1428 -1.1829 -0.7836
 5562TIP3    H238178   0.204   4.608   4.138  2.1231  0.7171  3.2463
 5563TIP3   OH238179   6.390   1.605  11.450  0.0647 -0.3907  0.2668
 5563TIP3    H138180   6.412   1.535  11.512 -1.6521 -0.4499  0.8538
 5563TIP3    H238181   6.408   1.568  11.364  1.5969 -0.6388  0.6737
 5564TIP3   OH238182   6.361   5.350   4.180  0.4217 -0.6722 -0.2358
 5564TIP3    H138183   6.421   5.315   4.246  0.7626  1.9729  0.9283
 5564TIP3    H238184   6.279   5.365   4.227  1.1013  2.5973  0.0103
 5565TIP3   OH238185   3.475   2.366  11.048 -0.4466 -0.0764 -0.1069
 5565TIP3    H138186   3.474   2.376  10.952 -1.4389  0.9369 -0.0034
 5565TIP3    H238187   3.519   2.444  11.080 -2.1280  0.7124  0.3620
 5566TIP3   OH238188   0.357   0.408  14.830  0.0200  0.2152  0.0007
 5566TIP3    H138189   0.334   0.479  14.889  0.6360  1.1660 -0.8782
 5566TIP3    H238190   0.361   0.449  14.743  2.2966 -0.4673 -0.2571
 5567TIP3   OH238191   3.099   4.415   4.023  0.2992  0.4963 -0.5598
 5567TIP3    H138192   3.072   4.373   3.941 -0.3904  0.5448 -0.3581
 5567TIP3    H238193   3.137   4.498   3.995 -0.2186  0.6524 -0.8097
 5568TIP3   OH238194   5.738   5.144   3.875 -0.0261  0.0757  0.5830
 5568TIP3    H138195   5.710   5.161   3.785 -0.5964  0.3109  0.8000
 5568TIP3    H238196   5.672   5.083   3.910  0.0235  0.2228  0.9361
 5569TIP3   OH238197   2.218   0.061  13.849  0.3831 -0.5081  0.1674
 5569TIP3    H138198   2.138   0.104  13.881  1.2096  1.6344 -0.4992
 5569TIP3    H238199   2.244   0.001  13.919 -1.0824 -0.2533  0.9467
 5570TIP3   OH238200   4.239   0.654   2.590  0.4696  0.3168  0.1660
 5570TIP3    H138201   4.308   0.711   2.624  0.2101  1.7259 -1.5897
 5570TIP3    H238202   4.222   0.593   2.661  2.0136  1.3051  1.4372
 5571TIP3   OH238203   6.240   3.246  12.762  0.7974 -0.3899 -0.2669
 5571TIP3    H138204   6.235   3.223  12.855 -1.1707  2.1329  0.3158
 5571TIP3    H238205   6.333   3.263  12.747  1.1709 -0.9977  1.1743
 5572TIP3   OH238206   2.275   5.765   0.649 -0.0687  0.5523 -0.2491
 5572TIP3    H138207   2.257   5.671   0.651  1.9966  0.1158 -1.0672
 5572TIP3    H238208   2.239   5.794   0.566  1.1651  0.0512 -0.9836
 5573TIP3   OH238209   2.353   6.608   1.224  0.4333  0.4519  0.3265
 5573TIP3    H138210   2.418   6.675   1.203  1.9441 -0.7714  0.9717
 5573TIP3    H238211   2.282   6.623   1.162  1.4877  1.5952 -0.6419
 5574TIP3   OH238212   6.516   3.606   4.036 -0.2247 -0.0469 -0.3625
 5574TIP3    H138213   6.467   3.586   3.956  1.3441  0.2157 -1.4306
 5574TIP3    H238214   6.527   3.522   4.079  0.7656 -0.5459 -1.5385
 5575TIP3   OH238215   0.929   3.478  12.842 -0.2050  0.6237  0.4527
 5575TIP3    H138216   0.998   3.457  12.905  1.2667  2.1714 -0.6216
 5575TIP3    H238217   0.918   3.397  12.792  1.4281  0.6084  0.0801
 5576TIP3   OH238218   1.848   5.193  15.650 -0.6376 -0.7544 -0.2257
 5576TIP3    H138219   1.841   5.172  15.557 -0.4748 -0.1473 -0.3765
 5576TIP3    H238220   1.853   5.288  15.653 -1.5417 -0.7236  0.4728
 5577TIP3   OH238221   2.945   5.568   3.899 -0.0639  0.5005 -0.4914
 5577TIP3    H138222   2.954   5.516   3.978  1.5999  1.0284 -0.3018
 5577TIP3    H238223   3.006   5.527   3.836  1.1964  2.1152 -0.3677
 5578TIP3   OH238224   4.797   2.043   4.590  0.1290 -0.1464  0.1525
 5578TIP3    H138225   4.858   2.074   4.656  0.9388  0.3824 -0.8170
 5578TIP3    H238226   4.816   1.949   4.582  0.0331 -0.2084  0.6643
 5579TIP3   OH238227   3.625   2.013  15.671  0.2124  0.4531 -0.2342
 5579TIP3    H138228   3.590   2.062  15.597 -1.1088 -0.6850 -0.3813
 5579TIP3    H238229   3.568   1.937  15.678 -0.8548  1.4752  3.1302
 5580TIP3   OH238230   4.423   3.619   0.353  0.1192  0.1106 -0.0324
 5580TIP3    H138231   4.435   3.565   0.274  0.4441  0.6909 -0.3840
 5580TIP3    H238232   4.512   3.636   0.383 -0.0242 -0.7709  0.9217
 5581TIP3   OH238233   6.464   4.242  14.248  0.5910  0.1559  0.7305
 5581TIP3    H138234   6.476   4.173  14.313 -0.2967  0.1717  0.9259
 5581TIP3    H238235   6.456   4.323  14.300  0.9530  0.3116  0.5437
 5582TIP3   OH238236   6.125   6.820  17.060  0.1503  0.2869 -0.7201
 5582TIP3    H138237   6.053   6.874  17.028  0.7968  0.9049 -1.1605
 5582TIP3    H238238   6.096   6.730  17.046 -1.8550  0.4656  2.0744
 5583TIP3   OH238239   1.605   1.059   2.072  0.1851 -0.2348  0.0097
 5583TIP3    H138240   1.599   1.024   1.983 -0.4135  1.8682 -0.8062
 5583TIP3    H238241   1.695   1.090   2.079  0.8512 -2.3001  0.8939
 5584TIP3   OH238242   5.834   6.334  13.076 -0.3697 -0.0799  0.2296
 5584TIP3    H138243   5.773   6.408  13.072 -0.4622 -0.1961 -0.5650
 5584TIP3    H238244   5.853   6.313  12.985  2.0322  0.9178  0.4466
 5585TIP3   OH238245   5.212   6.671   0.307  0.3354 -0.3870 -0.1772
 5585TIP3    H138246   5.196   6.744   0.248  0.8301 -0.6274 -0.6109
 5585TIP3    H238247   5.303   6.683   0.336  0.5829 -1.0927 -0.6283
 5586TIP3   OH238248   1.878   4.570   1.668 -0.0849 -0.2475 -0.5200
 5586TIP3    H138249   1.948   4.590   1.606  1.3075  0.1603  1.1492
 5586TIP3    H238250   1.800   4.611   1.631  1.2403  2.0636 -0.7877
 5587TIP3   OH238251   4.076   2.948   4.557  0.3031  0.4158  0.6305
 5587TIP3    H138252   4.099   2.882   4.491  1.4001 -0.2858  1.6996
 5587TIP3    H238253   3.981   2.959   4.547  0.5917  1.0011 -1.6850
 5588TIP3   OH238254   4.278   3.825  11.061 -0.0867 -0.1634 -0.0686
 5588TIP3    H138255   4.196   3.864  11.094 -0.4324  0.6200 -1.7753
 5588TIP3    H238256   4.253   3.786  10.977  0.8639 -1.7126  0.3696
 5589TIP3   OH238257   4.721   1.101   4.818 -0.1409  0.6349  0.1602
 5589TIP3    H138258   4.662   1.172   4.793  1.1060  0.8784 -2.3506
 5589TIP3    H238259   4.807   1.143   4.828  0.1767 -0.1578  0.8132
 5590TIP3   OH238260   0.408   2.480  15.374  0.1273  0.3415 -0.1531
 5590TIP3    H138261   0.405   2.502  15.281  1.2445  2.0596  0.1847
 5590TIP3    H238262   0.439   2.561  15.416 -1.0459 -0.1896  1.7800
 5591TIP3   OH238263   4.240   3.779   4.407 -0.1151 -0.1826  0.2877
 5591TIP3    H138264   4.200   3.757   4.492 -0.6771 -1.9057 -0.3965
 5591TIP3    H238265   4.167   3.814   4.356  0.5372  2.2908  0.9852
 5592TIP3   OH238266   3.461   1.560   0.931  0.3713  0.9601  0.0897
 5592TIP3    H138267   3.485   1.519   1.014  1.1293  1.6358  0.2129
 5592TIP3    H238268   3.385   1.615   0.953 -0.1927  0.1930  0.0743
 5593TIP3   OH238269   2.571   1.713  14.321  0.1237  0.2001  0.2173
 5593TIP3    H138270   2.603   1.683  14.406  1.9696  2.8755  0.5302
 5593TIP3    H238271   2.650   1.725  14.269 -0.7598  1.6829 -0.8035
 5594TIP3   OH238272   3.261   1.683   1.160  0.0681 -0.8291 -0.5311
 5594TIP3    H138273   3.298   1.766   1.128 -0.5829 -0.2500  0.1857
 5594TIP3    H238274   3.176   1.676   1.115  0.1529 -1.1380 -0.6402
 5595TIP3   OH238275   6.407   2.226   5.350  0.1296  0.2759 -0.0939
 5595TIP3    H138276   6.379   2.141   5.384  2.8908 -1.2952 -1.5482
 5595TIP3    H238277   6.327   2.278   5.345 -0.9073 -0.6113  5.2522
 5596TIP3   OH238278   4.621   6.446   5.232 -0.2320  0.1165  0.3982
 5596TIP3    H138279   4.570   6.461   5.313 -2.5102 -0.7072 -0.8338
 5596TIP3    H238280   4.641   6.534   5.201  1.5014  0.4475  2.3510
 5597TIP3   OH238281   4.543   3.904   5.874 -0.0773  0.6503  0.3563
 5597TIP3    H138282   4.493   3.825   5.855 -0.3094  0.9806 -0.4461
 5597TIP3    H238283   4.625   3.892   5.825  0.1012  0.6768  0.6475
 5598TIP3   OH238284   1.464   4.529   3.795 -0.3920 -0.2007  0.5636
 5598TIP3    H138285   1.457   4.439   3.827  0.3104 -0.1564  0.8535
 5598TIP3    H238286   1.511   4.576   3.864  0.8228 -0.0265 -0.3585
 5599TIP3   OH238287   6.316   0.330  12.222 -0.1993  0.7145 -0.7168
 5599TIP3    H138288   6.255   0.378  12.278  1.6237  1.6968  0.4852
 5599TIP3    H238289   6.320   0.242  12.261  1.2932  1.4834  0.9137
 5600TIP3   OH238290   5.326   2.044   2.023 -0.5450  0.3285 -0.2009
 5600TIP3    H138291   5.318   1.957   2.062  1.8409  0.4813  0.6794
 5600TIP3    H238292   5.314   2.029   1.929 -1.4420 -0.7475  0.0735
 5601TIP3   OH238293   2.899   3.539   2.991 -0.2917 -0.2573  0.0375
 5601TIP3    H138294   2.928   3.594   2.918  2.1555  0.1379  1.2676
 5601TIP3    H238295   2.861   3.600   3.054  1.7207 -0.0194  1.0606
 5602TIP3   OH238296   0.082   4.711  12.254  0.1013  0.4925  0.1967
 5602TIP3    H138297   0.161   4.766  12.255  0.0618  0.5535 -0.0102
 5602TIP3    H238298   0.116   4.621  12.257  0.1092  0.5631  2.6524
 5603TIP3   OH238299   5.913   2.179  12.221 -0.1140 -0.1977  0.5956
 5603TIP3    H138300   5.886   2.121  12.291  1.4523  1.3393  2.5433
 5603TIP3    H238301   5.866   2.261  12.237 -1.3358 -0.4744 -1.3733
 5604TIP3   OH238302   2.260   1.229   3.735 -0.3018 -0.5343  0.2623
 5604TIP3    H138303   2.221   1.195   3.815 -0.6505  0.1852  0.4017
 5604TIP3    H238304   2.320   1.298   3.764 -1.9038  1.1080 -0.2041
 5605TIP3   OH238305   3.276   3.156  14.136 -0.4648  0.3696 -0.4905
 5605TIP3    H138306   3.229   3.133  14.056 -0.4036 -0.4229 -0.3043
 5605TIP3    H238307   3.365   3.173  14.108  0.2277 -2.5365 -0.2657
 5606TIP3   OH238308   4.547   3.155   2.579  0.2056 -0.0417  0.6570
 5606TIP3    H138309   4.608   3.215   2.622 -1.9127  2.1013  0.7654
 5606TIP3    H238310   4.538   3.188   2.490  2.7116 -3.0633 -0.7975
 5607TIP3   OH238311   3.206   6.378   1.301  0.3005  0.4273 -0.2602
 5607TIP3    H138312   3.165   6.437   1.238  0.5820  1.8331  0.8603
 5607TIP3    H238313   3.299   6.381   1.281  0.4061  0.9761  0.3043
 5608TIP3   OH238314   1.312   2.585   3.254  0.1273  0.5567 -0.3543
 5608TIP3    H138315   1.251   2.514   3.236  0.8998 -0.7423  1.9326
 5608TIP3    H238316   1.373   2.583   3.181  0.3062 -1.3444 -0.1874
 5609TIP3   OH238317   6.640   2.189  12.770  0.1760  0.2828 -0.6589
 5609TIP3    H138318   6.603   2.131  12.836  1.8602  0.3356  0.3670
 5609TIP3    H238319   6.660   2.133  12.696 -2.4573  0.3528 -1.4528
 5610TIP3   OH238320   2.605   0.255  16.201 -0.3078  0.0049 -0.0209
 5610TIP3    H138321   2.596   0.213  16.286 -0.6762  1.5168  0.7154
 5610TIP3    H238322   2.696   0.284  16.198  0.4529 -2.3766 -1.2872
 5611TIP3   OH238323   1.156   0.336  14.530 -0.1055 -0.7536 -0.0831
 5611TIP3    H138324   1.119   0.324  14.443 -2.9961  1.9860  0.6798
 5611TIP3    H238325   1.249   0.351  14.515 -0.1800 -2.3968 -2.4880
 5612TIP3   OH238326   5.727   3.560   5.984 -0.6957  0.1928  0.1996
 5612TIP3    H138327   5.773   3.600   6.058  0.5475 -0.7300 -0.0544
 5612TIP3    H238328   5.756   3.610   5.908 -0.7829  0.1635  0.1467
 5613TIP3   OH238329   5.957   4.633   3.790 -0.1168 -0.1600 -0.0561
 5613TIP3    H138330   5.951   4.543   3.759  0.3976 -0.0568 -0.4657
 5613TIP3    H238331   5.913   4.685   3.723  1.6575  0.1433 -1.0060
 5614TIP3   OH238332   0.042   3.282   5.210 -0.1046  0.3232  0.5520
 5614TIP3    H138333   0.016   3.362   5.256  0.0672  0.7204 -0.0444
 5614TIP3    H238334   0.135   3.294   5.193 -0.6328  1.1490 -1.8615
 5615TIP3   OH238335   0.309   6.274   0.866  1.0191 -0.2028  0.4880
 5615TIP3    H138336   0.310   6.226   0.783  1.6715 -1.4034  1.1810
 5615TIP3    H238337   0.290   6.207   0.932  1.8967  0.5035  1.4626
 5616TIP3   OH238338   4.601   0.677  12.074 -0.3739 -0.2518  0.1352
 5616TIP3    H138339   4.548   0.650  11.999 -1.3603 -1.4676  1.2424
 5616TIP3    H238340   4.538   0.712  12.136  0.3763  0.2900  0.6001
 5617TIP3   OH238341   0.888   0.644  15.247  0.1660 -0.0864 -0.1847
 5617TIP3    H138342   0.889   0.549  15.258 -1.0962 -0.2541 -1.3478
 5617TIP3    H238343   0.969   0.663  15.200  0.6432 -0.5359  0.4590
 5618TIP3   OH238344   0.261   0.513   5.556  0.6545 -0.9510  0.4501
 5618TIP3    H138345   0.210   0.533   5.635  0.9532 -2.7339  1.1009
 5618TIP3    H238346   0.335   0.574   5.560 -0.0768 -0.0632  0.7962
 5619TIP3   OH238347   4.818   4.638  14.084  0.4040 -0.1928  0.4239
 5619TIP3    H138348   4.791   4.550  14.111  1.6193 -1.2055 -1.4576
 5619TIP3    H238349   4.913   4.630  14.071  0.8451  1.9330  2.0918
 5620TIP3   OH238350   5.777   6.185   0.316 -0.1837  0.8486 -0.0442
 5620TIP3    H138351   5.713   6.256   0.310 -0.3643  0.5949 -1.2517
 5620TIP3    H238352   5.754   6.138   0.396 -1.8958  0.4177 -0.7569
 5621TIP3   OH238353   5.013   1.224   4.155  0.0940  0.6118  0.2346
 5621TIP3    H138354   5.100   1.200   4.186 -0.1963  2.4173  2.5368
 5621TIP3    H238355   4.960   1.146   4.169  1.2888 -0.4721 -1.1115
 5622TIP3   OH238356   3.028   2.776  15.797 -0.2880  0.1110 -0.2108
 5622TIP3    H138357   3.067   2.691  15.778 -1.1165 -0.0925 -1.0223
 5622TIP3    H238358   3.102   2.836  15.801  0.3364 -0.6990  0.6925
 5623TIP3   OH238359   4.621   2.028  11.391 -0.7379 -0.0328 -0.3748
 5623TIP3    H138360   4.601   1.967  11.319  0.8642 -0.6871 -0.2787
 5623TIP3    H238361   4.570   1.994  11.465 -2.6233  0.8100 -1.2537
 5624TIP3   OH238362   1.182   3.391  14.457 -0.3272  0.0896  0.2197
 5624TIP3    H138363   1.249   3.457  14.438 -1.4484  0.8106 -1.3850
 5624TIP3    H238364   1.223   3.308  14.433  0.0304  0.5138 -0.6690
 5625TIP3   OH238365   3.409   1.287  11.953  0.1320  0.5277  0.5107
 5625TIP3    H138366   3.495   1.302  11.994 -0.4296  1.7965  1.2398
 5625TIP3    H238367   3.346   1.308  12.021 -0.7659 -1.7946  0.4345
 5626TIP3   OH238368   6.761   0.302  12.928 -0.2278 -0.1471 -0.6289
 5626TIP3    H138369   6.712   0.372  12.884  0.5425  0.1213 -1.0708
 5626TIP3    H238370   6.713   0.287  13.009 -0.2594  1.0788 -0.4055
 5627TIP3   OH238371   0.486   0.779  13.908  0.1224  0.1080 -0.1664
 5627TIP3    H138372   0.553   0.829  13.955 -0.5288 -1.1340  2.1604
 5627TIP3    H238373   0.534   0.708  13.867  0.6790  1.1185 -1.3041
 5628TIP3   OH238374   4.162   5.923  14.509  0.5428  0.8548 -0.3237
 5628TIP3    H138375   4.160   5.839  14.465  1.9222  0.9024 -0.4777
 5628TIP3    H238376   4.174   5.987  14.439 -1.4267  1.2783 -0.3142
 5629TIP3   OH238377   0.062   5.107  12.591 -0.9771  0.5003 -0.0056
 5629TIP3    H138378   0.098   5.073  12.509 -1.6704  1.8761 -0.8861
 5629TIP3    H238379  -0.024   5.140  12.568 -1.2897  0.6411  1.3463
 5630TIP3   OH238380   1.235   2.284  13.622 -0.2433 -0.1540  0.0414
 5630TIP3    H138381   1.330   2.279  13.617 -0.1956 -0.0195  0.7613
 5630TIP3    H238382   1.206   2.297  13.531  0.4755  0.7333 -0.0665
 5631TIP3   OH238383   1.429   6.707  14.917  0.2025 -0.1121 -0.0574
 5631TIP3    H138384   1.521   6.712  14.894  0.0128 -0.7599 -1.0132
 5631TIP3    H238385   1.409   6.613  14.917 -0.6635  0.0608 -0.7544
 5632TIP3   OH238386   4.052   6.205   4.907  0.2763 -0.0922  0.0615
 5632TIP3    H138387   4.137   6.249   4.904  0.2204  0.0091 -0.0281
 5632TIP3    H238388   3.997   6.263   4.959  0.3083 -0.2383  0.2609
 5633TIP3   OH238389   5.913   1.794   2.781  0.0792  0.2032 -0.2317
 5633TIP3    H138390   5.834   1.846   2.795 -0.4419 -0.3769 -0.9669
 5633TIP3    H238391   5.886   1.727   2.719  0.2129 -2.1416  2.1425
 5634TIP3   OH238392   1.747   6.527  13.660  0.3825 -0.2491 -0.1534
 5634TIP3    H138393   1.767   6.583  13.584 -2.4865  0.7949 -0.2215
 5634TIP3    H238394   1.801   6.562  13.731  0.0450  1.4337 -0.6930
 5635TIP3   OH238395   6.601   2.984   4.844  0.9461 -0.3818  0.0229
 5635TIP3    H138396   6.619   3.046   4.915 -0.0624  0.0323 -0.0678
 5635TIP3    H238397   6.595   3.039   4.766  1.4961 -0.7704 -0.2947
 5636TIP3   OH238398   4.715   4.714   4.810  0.3851 -0.5503  0.3113
 5636TIP3    H138399   4.767   4.664   4.747  2.5969  2.4016 -0.3440
 5636TIP3    H238400   4.626   4.707   4.778  1.5598  1.5679 -3.7726
 5637TIP3   OH238401   5.846   1.831   2.280 -0.1811 -0.3563 -0.1129
 5637TIP3    H138402   5.916   1.895   2.290 -0.3971 -0.1312 -0.0173
 5637TIP3    H238403   5.874   1.774   2.209  0.7313 -1.1112  0.8386
 5638TIP3   OH238404   1.728   5.863  13.291 -0.0721 -0.9996 -0.5838
 5638TIP3    H138405   1.785   5.809  13.237  1.0860  0.8828 -1.2717
 5638TIP3    H238406   1.644   5.861  13.246 -0.0549 -2.2174 -0.5910
 5639TIP3   OH238407   3.709   6.355   6.315 -0.0759  0.2151  0.5400
 5639TIP3    H138408   3.726   6.440   6.355 -0.0401 -0.2322  1.5003
 5639TIP3    H238409   3.652   6.310   6.378  0.1914 -0.5970  0.2089
 5640TIP3   OH238410   1.777   2.974  16.580  0.1323 -0.6771  0.5073
 5640TIP3    H138411   1.809   2.976  16.489 -1.0836 -0.6265  0.0726
 5640TIP3    H238412   1.684   2.994  16.573  0.4945  1.7804  2.0151
 5641TIP3   OH238413   1.994   2.936   5.405 -0.0626  0.3377  0.0073
 5641TIP3    H138414   2.000   2.853   5.452 -0.4048  0.5913  0.5027
 5641TIP3    H238415   1.982   2.911   5.313 -0.5184 -0.1567  0.2018
 5642TIP3   OH238416   6.655   5.749  12.028  0.1323 -0.3300  0.6189
 5642TIP3    H138417   6.746   5.772  12.047 -0.0030 -0.4139  1.4066
 5642TIP3    H238418   6.646   5.759  11.933  0.6762  0.7011  0.6740
 5643TIP3   OH238419   0.031   4.737  15.636  0.2742  0.4312  0.2758
 5643TIP3    H138420  -0.040   4.684  15.673  0.1092  0.0249 -0.6066
 5643TIP3    H238421  -0.007   4.825  15.628  0.0913  0.3688  0.4538
 5644TIP3   OH238422   3.112   1.031   2.478  0.3475  0.0017 -0.5853
 5644TIP3    H138423   3.103   0.959   2.540 -1.2024  0.7793  0.1208
 5644TIP3    H238424   3.156   1.100   2.527  1.8682 -0.4543 -1.2735
 5645TIP3   OH238425   1.180   3.769  13.655  0.1407 -0.3320  0.3440
 5645TIP3    H138426   1.109   3.717  13.619  2.7196 -0.9968 -4.0633
 5645TIP3    H238427   1.156   3.860  13.635 -0.0448 -0.4773 -0.0932
 5646TIP3   OH238428   4.530   1.806  12.624 -0.3205 -0.0176 -0.9733
 5646TIP3    H138429   4.603   1.808  12.561 -0.2564 -2.0708 -0.9890
 5646TIP3    H238430   4.469   1.742  12.587 -0.8611 -0.3155  0.4290
 5647TIP3   OH238431   0.694   0.377  14.964  0.4032 -0.0951  0.4764
 5647TIP3    H138432   0.699   0.470  14.939  2.7334 -0.1010  0.8299
 5647TIP3    H238433   0.685   0.378  15.059 -0.8673 -0.2307  0.3687
 5648TIP3   OH238434   1.752   2.321   6.103  0.1904 -0.4815 -0.4509
 5648TIP3    H138435   1.749   2.226   6.090 -1.7080 -0.4223 -0.5382
 5648TIP3    H238436   1.845   2.344   6.092  1.2780 -2.8213  2.9834
 5649TIP3   OH238437   2.962   1.346  16.279 -0.9634  0.5630 -0.6661
 5649TIP3    H138438   2.901   1.418  16.295 -0.1656  0.6636  2.3579
 5649TIP3    H238439   2.908   1.278  16.238 -2.5458  1.5672 -0.3185
 5650TIP3   OH238440   4.718   6.539   0.464  0.4688 -0.4910 -0.4446
 5650TIP3    H138441   4.677   6.453   0.453  0.0949 -1.1573  4.8497
 5650TIP3    H238442   4.652   6.601   0.434 -0.9443 -1.9311 -0.3709
 5651TIP3   OH238443   4.631   3.093   2.002  0.7288 -0.7111  0.4881
 5651TIP3    H138444   4.553   3.105   1.947  0.4123  0.0594  1.0953
 5651TIP3    H238445   4.667   3.181   2.011  1.5678 -1.0378  0.3675
 5652TIP3   OH238446   5.519   3.774   4.403  0.3307 -0.1024  0.1560
 5652TIP3    H138447   5.555   3.823   4.477  2.1396 -0.8540 -0.1989
 5652TIP3    H238448   5.426   3.764   4.424  0.6508  0.4100  1.9282
 5653TIP3   OH238449   0.124   4.527   3.853  0.1523 -0.0674  0.3688
 5653TIP3    H138450   0.212   4.490   3.859 -0.0907 -0.7063  0.0492
 5653TIP3    H238451   0.081   4.476   3.785 -0.1155  0.9656 -0.2450
 5654TIP3   OH238452   5.843   1.224  16.849 -0.2747 -0.7819 -0.1176
 5654TIP3    H138453   5.822   1.317  16.862  1.1183 -0.6575  1.3730
 5654TIP3    H238454   5.760   1.179  16.862 -1.3132  0.3545 -2.4002
 5655TIP3   OH238455   4.302   6.405   2.691 -0.0554  1.1496  0.6198
 5655TIP3    H138456   4.389   6.446   2.697  0.3044  0.4639  0.2389
 5655TIP3    H238457   4.253   6.439   2.765  0.2154  2.3247  0.2695
 5656TIP3   OH238458   1.529   3.073   2.698 -0.4270  0.1683 -0.1386
 5656TIP3    H138459   1.466   3.145   2.692 -0.0285  0.5616  0.4038
 5656TIP3    H238460   1.612   3.111   2.668  0.0645  0.2852  1.3351
 5657TIP3   OH238461   3.418   0.126   1.992  0.3331  0.2774 -0.4901
 5657TIP3    H138462   3.512   0.134   2.009  0.5578  0.0764 -1.5780
 5657TIP3    H238463   3.412   0.050   1.933 -0.5571 -0.0329  0.0078
 5658TIP3   OH238464   1.129   4.699   5.990 -0.4807  0.6016 -0.1186
 5658TIP3    H138465   1.212   4.651   5.998 -0.5251  0.7619  1.4671
 5658TIP3    H238466   1.068   4.634   5.956  0.3519  0.5674 -1.6164
 5659TIP3   OH238467   3.750   4.803  14.739  0.5069 -0.2046  0.7261
 5659TIP3    H138468   3.764   4.710  14.718  2.2075  0.5661 -1.7072
 5659TIP3    H238469   3.800   4.817  14.819  0.5505 -1.2814  0.9009
 5660TIP3   OH238470   1.324   3.324   6.200 -0.0502 -0.4578 -0.2493
 5660TIP3    H138471   1.395   3.302   6.139 -0.1102  2.6284 -1.5224
 5660TIP3    H238472   1.366   3.328   6.286  0.7625 -1.2190 -0.5928
 5661TIP3   OH238473   0.481   2.452  11.825 -0.1297 -0.3100 -0.1517
 5661TIP3    H138474   0.491   2.526  11.765 -0.6532 -2.1436 -2.5428
 5661TIP3    H238475   0.387   2.449  11.844 -0.2330 -0.8749 -0.7375
 5662TIP3   OH238476   1.680   2.876   2.053  0.5836  0.4668  0.2215
 5662TIP3    H138477   1.723   2.911   1.975  0.7424 -0.2625 -0.0227
 5662TIP3    H238478   1.609   2.938   2.071 -0.5985 -0.3205 -1.5624
 5663TIP3   OH238479   4.798   0.675  16.973 -0.4008 -0.1224 -0.0773
 5663TIP3    H138480   4.786   0.607  16.907 -0.4286 -2.3101  2.1087
 5663TIP3    H238481   4.710   0.707  16.991 -0.6508 -1.1123  0.5001
 5664TIP3   OH238482   2.178   5.288   6.370 -0.1483  0.4205 -0.4223
 5664TIP3    H138483   2.205   5.373   6.335  0.6432  0.1471 -0.4981
 5664TIP3    H238484   2.087   5.300   6.395  0.1754  1.5162  0.2759
 5665TIP3   OH238485   6.297   0.308   5.199 -0.0032  0.2397  0.2906
 5665TIP3    H138486   6.375   0.361   5.183 -0.6077  0.8276 -0.7734
 5665TIP3    H238487   6.311   0.229   5.147  0.3011 -0.0593  0.8284
 5666TIP3   OH238488   2.922   0.613   0.273 -0.6351 -0.1396 -0.0976
 5666TIP3    H138489   2.905   0.606   0.367 -1.6001 -1.5831 -0.3570
 5666TIP3    H238490   2.999   0.669   0.266 -1.3610  1.0940  1.4857
 5667TIP3   OH238491   4.472   4.773   3.343  0.1346  0.0567  0.4100
 5667TIP3    H138492   4.407   4.789   3.411  0.0250 -0.8514  0.5155
 5667TIP3    H238493   4.463   4.680   3.322  1.2894 -0.0383  0.3109
 5668TIP3   OH238494   1.261   5.214  12.149  0.0095 -0.5281 -0.1028
 5668TIP3    H138495   1.200   5.231  12.078  0.3795  0.0645 -0.2788
 5668TIP3    H238496   1.229   5.134  12.190 -0.2519 -0.8204 -0.8847
 5669TIP3   OH238497   0.148   5.546  12.403  0.4744 -0.2465 -0.1406
 5669TIP3    H138498   0.210   5.476  12.382 -0.2077 -0.4173 -1.6062
 5669TIP3    H238499   0.175   5.619  12.347 -0.6208 -0.3039 -0.7395
 5670TIP3   OH238500   6.103   2.997   0.538 -0.8495 -0.2066 -0.2927
 5670TIP3    H138501   6.040   3.037   0.598  1.1130  1.0301  1.0065
 5670TIP3    H238502   6.142   2.926   0.589  0.1006  0.2081 -0.4229
 5671TIP3   OH238503   2.360   1.490   3.749  0.5629  0.2906 -0.2505
 5671TIP3    H138504   2.357   1.575   3.706  0.9391  0.3682 -0.1216
 5671TIP3    H238505   2.271   1.477   3.782 -0.0274 -0.2623 -1.9941
 5672TIP3   OH238506   0.012   4.774   2.992  0.1517 -0.2049 -0.1377
 5672TIP3    H138507  -0.022   4.835   2.925  0.0442 -1.3418 -1.1305
 5672TIP3    H238508  -0.060   4.714   3.008  0.3420 -0.2150  0.6794
 5673TIP3   OH238509   2.854   4.835   5.427  0.0793  0.2582 -0.4073
 5673TIP3    H138510   2.768   4.795   5.442  0.7948 -2.0164 -2.0401
 5673TIP3    H238511   2.836   4.910   5.371 -1.0822  1.2498  1.2245
 5674TIP3   OH238512   6.677   2.147  13.234  1.0126  0.3977 -0.5813
 5674TIP3    H138513   6.651   2.173  13.322 -1.5338  0.6053 -1.3596
 5674TIP3    H238514   6.648   2.056  13.227  0.3238  0.6831 -1.5161
 5675TIP3   OH238515   4.074   1.912  14.465  0.7964  0.3201  0.1531
 5675TIP3    H138516   4.013   1.879  14.531  0.4934  1.2311  0.3439
 5675TIP3    H238517   4.040   1.878  14.382  0.4275  0.2426  0.3343
 5676TIP3   OH238518   1.038   4.498  13.256 -0.2849  0.1360  0.0299
 5676TIP3    H138519   1.108   4.440  13.227  0.4543  0.6496  0.7546
 5676TIP3    H238520   1.038   4.569  13.191 -1.1303 -0.6289 -0.8050
 5677TIP3   OH238521   5.394   6.071   0.290 -0.3224  0.4943  0.2241
 5677TIP3    H138522   5.413   6.112   0.205  0.8277 -1.9431 -0.7228
 5677TIP3    H238523   5.466   6.009   0.303 -1.4579 -0.4374  2.1447
 5678TIP3   OH238524   3.181   3.113   5.452 -0.7694  0.0296 -0.5231
 5678TIP3    H138525   3.168   3.063   5.533  4.1820 -1.1520 -0.3207
 5678TIP3    H238526   3.233   3.189   5.480 -1.8055  1.3365 -2.0820
 5679TIP3   OH238527   1.503   6.047  11.438  0.1180 -0.1061  0.7356
 5679TIP3    H138528   1.584   5.998  11.427 -0.8270 -1.4471 -0.4544
 5679TIP3    H238529   1.435   5.979  11.449 -0.9463  0.9719  0.9229
 5680TIP3   OH238530   6.488   1.955  13.553 -0.9201  0.1555  0.0877
 5680TIP3    H138531   6.584   1.951  13.555 -0.9509 -0.2129  1.8126
 5680TIP3    H238532   6.465   2.011  13.627 -2.0064  1.1187 -0.9650
 5681TIP3   OH238533   4.766   5.386   2.562 -0.0105  0.3545  0.1025
 5681TIP3    H138534   4.855   5.419   2.574  0.4520 -0.9207  0.2876
 5681TIP3    H238535   4.758   5.372   2.468  0.0531  0.2996  0.1050
 5682TIP3   OH238536   0.379   1.024   1.061 -0.1706  0.1573 -0.6154
 5682TIP3    H138537   0.371   0.929   1.060 -1.9404  0.2671  0.5583
 5682TIP3    H238538   0.383   1.047   1.154 -0.2100  1.2609 -0.8719
 5683TIP3   OH238539   0.860   1.195  12.186 -0.6683 -0.5442 -0.6503
 5683TIP3    H138540   0.932   1.190  12.123 -0.1558  1.8860 -0.3061
 5683TIP3    H238541   0.782   1.208  12.133 -0.6756 -1.7503 -0.9447
 5684TIP3   OH238542   2.018   5.142   0.502  0.1568  0.4632 -0.3049
 5684TIP3    H138543   2.077   5.117   0.573  0.5212 -0.6282 -0.9826
 5684TIP3    H238544   1.931   5.140   0.541  0.2562 -1.0956 -0.1174
 5685TIP3   OH238545   1.692   3.060   3.000 -0.1949 -0.1823  0.3591
 5685TIP3    H138546   1.617   3.112   3.028  0.7017  0.9672  0.6751
 5685TIP3    H238547   1.659   2.971   2.995 -1.9541  0.5070 -0.9088
 5686TIP3   OH238548   4.576   5.778  14.777  0.1992  0.0882 -0.6705
 5686TIP3    H138549   4.500   5.811  14.730 -0.1927 -2.2934 -1.7794
 5686TIP3    H238550   4.641   5.761  14.710  1.1743  0.6372  0.1135
 5687TIP3   OH238551   0.201   5.671  15.551 -0.1326  0.0023 -0.0972
 5687TIP3    H138552   0.193   5.766  15.542  0.5265  0.0388 -0.2819
 5687TIP3    H238553   0.162   5.652  15.636 -0.1929  0.4477 -0.0234
 5688TIP3   OH238554   5.088   1.116   3.198 -0.3798  0.2044 -0.8540
 5688TIP3    H138555   5.178   1.092   3.220 -0.5389  0.2282 -0.1853
 5688TIP3    H238556   5.084   1.210   3.217 -0.9217 -0.0569  0.3673
 5689TIP3   OH238557   4.992   1.673   5.591  0.0335 -0.4173  0.0103
 5689TIP3    H138558   5.033   1.747   5.546 -3.4047  0.7469 -1.4219
 5689TIP3    H238559   4.966   1.709   5.676  1.4184 -0.9986  0.6977
 5690TIP3   OH238560   0.946   3.663  13.560 -0.1477 -0.0231 -0.4867
 5690TIP3    H138561   0.895   3.710  13.494 -0.4648 -0.4976 -0.5809
 5690TIP3    H238562   0.917   3.572  13.553 -0.5869  0.0077  0.6724
 5691TIP3   OH238563   3.871   4.151   0.023 -0.0354  0.0754  0.4160
 5691TIP3    H138564   3.886   4.242   0.045 -0.1746  0.6347 -1.7041
 5691TIP3    H238565   3.952   4.106   0.048  0.5563  1.0040  0.1480
 5692TIP3   OH238566   2.827   0.227   0.775 -0.1715 -0.0542  0.5834
 5692TIP3    H138567   2.787   0.291   0.833 -0.3835 -1.4896  2.0839
 5692TIP3    H238568   2.754   0.178   0.738  0.0455 -0.6467  0.9177
 5693TIP3   OH238569   2.157   2.749  12.320  0.0693 -0.4069 -0.6020
 5693TIP3    H138570   2.116   2.662  12.324  0.2975 -0.5106 -0.4710
 5693TIP3    H238571   2.225   2.746  12.388 -0.2867  0.0615 -0.2241
 5694TIP3   OH238572   3.465   6.556  10.725 -0.4523  0.0363  0.3698
 5694TIP3    H138573   3.510   6.477  10.755  0.9472  0.7346  0.1451
 5694TIP3    H238574   3.534   6.621  10.717 -1.5688  1.2338  0.3579
 5695TIP3   OH238575   6.655   5.961  17.210 -0.2639  0.5646  0.0658
 5695TIP3    H138576   6.638   5.935  17.119 -0.4677 -2.5300  0.9334
 5695TIP3    H238577   6.569   5.969  17.250 -0.1576  1.2966  0.1484
 5696TIP3   OH238578   1.792   0.943   4.386  0.3238  0.3404  0.1587
 5696TIP3    H138579   1.780   1.038   4.387  0.6500  0.4096 -1.1169
 5696TIP3    H238580   1.860   0.928   4.320 -1.1866 -0.9268 -1.1651
 5697TIP3   OH238581   2.513   5.673  15.764  0.6153 -0.4793  0.7004
 5697TIP3    H138582   2.452   5.649  15.833 -1.5961  1.7020 -0.3861
 5697TIP3    H238583   2.477   5.633  15.685  0.0825  1.4452 -0.0827
 5698TIP3   OH238584   2.737   6.815  14.176  0.2137 -0.6542  0.8460
 5698TIP3    H138585   2.734   6.742  14.114  0.2940  0.5157 -0.5579
 5698TIP3    H238586   2.658   6.865  14.159  0.6126  0.0975  1.1793
 5699TIP3   OH238587   6.140   0.781   4.950 -0.1390  0.1376  0.0445
 5699TIP3    H138588   6.117   0.692   4.977  1.2105  0.5618  2.8766
 5699TIP3    H238589   6.232   0.774   4.923  0.0365  0.6901  0.4881
 5700TIP3   OH238590   2.427   4.107   1.177 -0.0864  0.1057 -0.0687
 5700TIP3    H138591   2.378   4.090   1.257 -3.5553  1.9705 -1.6857
 5700TIP3    H238592   2.497   4.167   1.203  1.1210 -2.1827  2.1803
 5701TIP3   OH238593   1.713   3.081  13.807  0.4080 -0.1155  0.3625
 5701TIP3    H138594   1.638   3.083  13.747  1.0379 -0.3557 -0.4523
 5701TIP3    H238595   1.692   3.146  13.874  0.0653  0.7842 -0.5935
 5702TIP3   OH238596   4.689   4.475  16.540  0.1504 -0.1873  0.9728
 5702TIP3    H138597   4.611   4.424  16.559  0.2021 -0.6467 -0.0501
 5702TIP3    H238598   4.724   4.498  16.626 -3.2139  3.3284  1.5718
 5703TIP3   OH238599   3.260   3.869   5.060 -0.0044  0.2324 -0.1505
 5703TIP3    H138600   3.173   3.835   5.081  1.0196 -2.0933  0.4763
 5703TIP3    H238601   3.281   3.829   4.975  1.4899 -1.3410  0.9144
 5704TIP3   OH238602   0.497   0.165   1.445  0.7062  0.0984  0.2476
 5704TIP3    H138603   0.432   0.217   1.491  0.3368 -1.0181  1.0208
 5704TIP3    H238604   0.454   0.140   1.363 -0.1730 -1.3515  1.1341
 5705TIP3   OH238605   4.018   6.697  16.987 -0.3985  0.4901 -0.5066
 5705TIP3    H138606   3.930   6.732  17.001 -0.0203  0.8652  1.0111
 5705TIP3    H238607   4.015   6.609  17.024  0.0870  0.8115  0.3255
 5706TIP3   OH238608   5.823   0.660  15.497  0.1329 -0.0468 -0.1628
 5706TIP3    H138609   5.732   0.632  15.492  0.3639 -0.6167 -1.3143
 5706TIP3    H238610   5.822   0.750  15.462  0.0169 -0.0501 -0.1686
 5707TIP3   OH238611   5.671   2.828  13.900  0.0592  0.5331  0.0375
 5707TIP3    H138612   5.608   2.895  13.873 -1.9216 -1.3565 -0.1803
 5707TIP3    H238613   5.734   2.825  13.828 -1.1687  0.5323 -1.0758
 5708TIP3   OH238614   4.015   6.452  15.199  0.4773  0.0004 -0.2271
 5708TIP3    H138615   4.109   6.465  15.187  0.3615  1.9185  0.7820
 5708TIP3    H238616   4.009   6.398  15.278  0.6983  0.9412  0.4406
 5709TIP3   OH238617   2.610   5.468  16.701  0.2612  0.4431 -0.1921
 5709TIP3    H138618   2.525   5.510  16.709 -0.0994 -0.4251  0.6779
 5709TIP3    H238619   2.629   5.470  16.607  0.2634  2.5067 -0.1704
 5710TIP3   OH238620   0.653   1.939   3.827  0.2895  0.0688 -0.0132
 5710TIP3    H138621   0.630   2.024   3.864 -1.2457  0.0215 -0.8009
 5710TIP3    H238622   0.714   1.958   3.756  0.3630  0.4783  0.1644
 5711TIP3   OH238623   4.386   2.204   0.703 -0.0977 -0.3002 -0.2280
 5711TIP3    H138624   4.321   2.215   0.773 -2.5741 -1.4613 -2.2590
 5711TIP3    H238625   4.418   2.115   0.714 -1.5887 -1.0069 -1.4273
 5712TIP3   OH238626   1.901   0.756   2.855 -0.2094 -0.3199 -0.6594
 5712TIP3    H138627   1.944   0.713   2.782 -1.8581 -0.0140 -1.8492
 5712TIP3    H238628   1.919   0.701   2.931  3.4044  0.5214 -0.8175
 5713TIP3   OH238629   3.647   4.725   5.908 -0.5839 -0.5238  0.6232
 5713TIP3    H138630   3.677   4.656   5.967 -1.5240 -0.9951  0.5611
 5713TIP3    H238631   3.552   4.714   5.904 -0.6836  0.4082  0.1474
 5714TIP3   OH238632   0.242   4.325  16.622  0.1307  0.7159 -0.1868
 5714TIP3    H138633   0.297   4.287  16.691 -1.4322 -1.5263 -0.0912
 5714TIP3    H238634   0.297   4.325  16.544  0.2386 -1.6944 -0.1535
 5715TIP3   OH238635   6.527   5.507  12.702  0.4695 -0.1036  0.1675
 5715TIP3    H138636   6.535   5.596  12.668  2.3239 -0.7944 -1.3310
 5715TIP3    H238637   6.604   5.461  12.668 -0.1660 -2.1484  1.3462
 5716TIP3   OH238638   5.326   2.739   5.345 -0.4637 -0.4504 -0.3797
 5716TIP3    H138639   5.259   2.680   5.379  0.7168 -1.0517  0.9201
 5716TIP3    H238640   5.406   2.714   5.391  1.0536 -0.8880 -3.1380
 5717TIP3   OH238641   4.652   2.249  17.089 -0.0654  0.3525  0.2165
 5717TIP3    H138642   4.707   2.174  17.110  1.1218  0.9215 -0.7918
 5717TIP3    H238643   4.661   2.307  17.164 -0.3044 -0.1271  0.6218
 5718TIP3   OH238644   1.591   0.758   5.651 -0.4602 -0.1285 -0.1198
 5718TIP3    H138645   1.620   0.811   5.725  0.4249 -2.3599  1.1772
 5718TIP3    H238646   1.588   0.668   5.685 -3.4496 -0.7490 -1.8051
 5719TIP3   OH238647   6.349   6.348  16.011  0.0617  0.4440  0.3512
 5719TIP3    H138648   6.312   6.435  16.000 -0.0790  0.5537  1.6100
 5719TIP3    H238649   6.273   6.289  16.014 -0.0464  0.6585  2.8379
 5720TIP3   OH238650   4.942   3.713   3.191  0.1657  0.0773 -0.3026
 5720TIP3    H138651   5.001   3.732   3.118 -0.2655 -0.3686 -0.7627
 5720TIP3    H238652   4.866   3.671   3.152 -0.7816  1.2531  0.1981
 5721TIP3   OH238653   0.604   2.723   5.546 -0.1712  0.0527  0.1815
 5721TIP3    H138654   0.654   2.658   5.496 -0.2587  0.5950 -0.6282
 5721TIP3    H238655   0.521   2.678   5.564  0.5658 -0.8220  1.4776
 5722TIP3   OH238656   1.387   1.916   3.027 -0.2653  0.4094  0.5358
 5722TIP3    H138657   1.436   1.839   2.998  0.4711  1.1351 -0.1371
 5722TIP3    H238658   1.453   1.976   3.061 -0.8626  0.6719  1.2496
 5723TIP3   OH238659   1.244   6.462   5.476 -0.1919  0.3101 -0.3263
 5723TIP3    H138660   1.170   6.411   5.442 -1.2023  1.1453  0.5980
 5723TIP3    H238661   1.309   6.396   5.499 -1.4681 -0.5848  0.8141
 5724TIP3   OH238662   0.623   0.176  13.860 -0.1172  0.1428 -0.2969
 5724TIP3    H138663   0.551   0.182  13.922  0.0479 -2.4817  0.1881
 5724TIP3    H238664   0.701   0.169  13.914  0.1454 -0.8835 -0.8140
 5725TIP3   OH238665   2.031   0.656   2.607 -0.0028  0.2044  0.0700
 5725TIP3    H138666   2.010   0.691   2.520  1.1623  1.1338  0.1593
 5725TIP3    H238667   2.122   0.629   2.601 -0.3382 -1.0742  0.5839
 5726TIP3   OH238668   1.772   2.189  13.286  0.3237  0.5411  0.0636
 5726TIP3    H138669   1.826   2.211  13.210 -0.6115  2.6327 -0.0505
 5726TIP3    H238670   1.706   2.129  13.252  0.8142  0.2773 -0.4334
 5727TIP3   OH238671   0.671   3.482   5.764  0.1860  0.0534 -0.0823
 5727TIP3    H138672   0.725   3.414   5.804 -0.3216 -0.7281 -0.7037
 5727TIP3    H238673   0.581   3.457   5.787  0.1209  1.6710  1.4526
 5728TIP3   OH238674   5.576   6.509   4.320  0.3613 -0.0363 -0.0845
 5728TIP3    H138675   5.573   6.488   4.227 -1.0181  0.8113 -0.2391
 5728TIP3    H238676   5.600   6.601   4.323 -0.2137  0.0996  0.3840
 5729TIP3   OH238677   3.975   0.071   1.143 -0.6374 -0.4475  0.4140
 5729TIP3    H138678   3.906   0.024   1.098 -1.5057  0.5227  0.7233
 5729TIP3    H238679   4.006   0.135   1.080 -1.1218  0.1931  0.8252
 5730TIP3   OH238680   3.495   1.461   3.831 -0.0033 -0.4373  0.1045
 5730TIP3    H138681   3.547   1.457   3.750  2.0579 -0.1363  1.3975
 5730TIP3    H238682   3.548   1.511   3.892 -1.6587 -0.4514  1.6089
 5731TIP3   OH238683   0.331   0.249  12.354  0.2702  0.3248  0.2541
 5731TIP3    H138684   0.274   0.177  12.381  1.3567 -0.9216 -0.7148
 5731TIP3    H238685   0.340   0.302  12.433 -1.3184 -0.0669  0.7234
 5732TIP3   OH238686   3.853   2.569   5.505  0.3116  0.0411  0.6500
 5732TIP3    H138687   3.820   2.646   5.550 -1.6859 -2.0167  2.8118
 5732TIP3    H238688   3.775   2.524   5.473  1.3740 -1.7682  0.5218
 5733TIP3   OH238689   4.860   5.612   5.837 -0.1251  0.2373  0.1987
 5733TIP3    H138690   4.926   5.563   5.786 -0.6795 -2.0379  1.6136
 5733TIP3    H238691   4.911   5.677   5.885  0.9533 -0.6465  0.2825
 5734TIP3   OH238692   1.573   1.019  13.985  0.1950  0.0116  0.0847
 5734TIP3    H138693   1.573   1.043  14.077  0.9259  0.7607 -0.1115
 5734TIP3    H238694   1.480   1.015  13.961  0.0359  1.0413  0.5296
 5735TIP3   OH238695   2.872   2.133   1.386 -0.5734 -0.2875 -0.1143
 5735TIP3    H138696   2.882   2.039   1.405  0.4520 -0.0350  0.6283
 5735TIP3    H238697   2.927   2.147   1.309  0.6858  0.0409  0.8213
 5736TIP3   OH238698   1.612   4.712  11.696  0.7469 -0.0916  0.0808
 5736TIP3    H138699   1.553   4.756  11.634 -0.3867 -2.2723 -0.4479
 5736TIP3    H238700   1.638   4.781  11.757  0.2395  1.6410 -1.6040
 5737TIP3   OH238701   2.367   3.695   6.190  0.0569 -0.3935  0.2454
 5737TIP3    H138702   2.308   3.638   6.239  1.3384 -1.4220  0.6361
 5737TIP3    H238703   2.325   3.706   6.105 -1.6222  0.4641  1.1549
 5738TIP3   OH238704   4.282   1.742   0.108  0.1220  0.0598  0.2520
 5738TIP3    H138705   4.241   1.672   0.159 -1.5380  1.3649  0.7147
 5738TIP3    H238706   4.211   1.782   0.059  1.5692 -0.7379 -2.6764
 5739TIP3   OH238707   1.026   1.011   5.222 -0.3235  0.2740 -0.2699
 5739TIP3    H138708   1.012   1.024   5.316 -0.8203 -1.8450 -0.0177
 5739TIP3    H238709   1.108   0.962   5.217 -0.6660 -0.2492 -0.8756
 5740TIP3   OH238710   4.800   2.699  10.871 -0.3073  0.1011  0.1315
 5740TIP3    H138711   4.836   2.762  10.808 -0.0821  1.3773  1.5000
 5740TIP3    H238712   4.771   2.625  10.817  0.8936  0.6811 -1.3572
 5741TIP3   OH238713   5.109   4.775  11.340 -0.0702  0.1114  0.5218
 5741TIP3    H138714   5.088   4.866  11.319  0.9710  0.5227  1.2366
 5741TIP3    H238715   5.146   4.740  11.259  2.0132  1.0973  1.0336
 5742TIP3   OH238716   5.846   3.537  16.078 -0.3295  0.2425  0.0481
 5742TIP3    H138717   5.848   3.494  16.164  0.0520  0.5478  0.1962
 5742TIP3    H238718   5.783   3.487  16.027 -1.3306  0.6764  0.8404
 5743TIP3   OH238719   1.379   0.079  13.968  0.3215  0.1477 -0.3640
 5743TIP3    H138720   1.464   0.104  14.004  0.1021  1.3115 -0.6237
 5743TIP3    H238721   1.332   0.162  13.958 -0.8433 -0.4779 -0.2316
 5744TIP3   OH238722   2.267   4.484  13.896 -0.4107 -0.9221 -0.5367
 5744TIP3    H138723   2.186   4.433  13.902 -1.0711  0.3201  2.0594
 5744TIP3    H238724   2.239   4.574  13.911  1.2827 -0.3041 -1.0585
 5745TIP3   OH238725   2.210   2.598   3.067 -0.5969  0.3369 -0.3442
 5745TIP3    H138726   2.302   2.580   3.087 -0.5283 -0.1442 -1.0692
 5745TIP3    H238727   2.188   2.673   3.123 -0.0100 -0.0751  0.4591
 5746TIP3   OH238728   3.381   1.681  14.021  0.0212  0.0537  0.0915
 5746TIP3    H138729   3.385   1.776  14.013  1.3551  0.1096  1.2336
 5746TIP3    H238730   3.287   1.661  14.025 -0.2479  1.6007  2.7262
 5747TIP3   OH238731   3.001   3.764   4.505 -0.0987 -0.4520 -0.0224
 5747TIP3    H138732   2.945   3.829   4.463 -1.4626 -0.8673  1.1371
 5747TIP3    H238733   3.070   3.815   4.547 -1.8574  0.3570  1.9325
 5748TIP3   OH238734   3.744   6.309  11.813  0.1515 -0.3362 -0.1356
 5748TIP3    H138735   3.800   6.377  11.775  0.1962 -0.6391 -0.6237
 5748TIP3    H238736   3.790   6.281  11.892  0.5774 -0.4244 -0.4132
 5749TIP3   OH238737   3.633   4.824  16.797  0.4039 -0.0563 -0.0641
 5749TIP3    H138738   3.645   4.918  16.806  0.5371 -0.1199  0.4773
 5749TIP3    H238739   3.540   4.810  16.816  0.1600  0.0835 -1.1670
 5750TIP3   OH238740   0.629   2.102  13.687  0.1598 -0.5269  0.4823
 5750TIP3    H138741   0.722   2.097  13.709  0.3723  0.4313 -0.1385
 5750TIP3    H238742   0.590   2.151  13.760  0.3023 -0.1538  0.3101
 5751TIP3   OH238743   4.176   4.823  10.288  0.7187  0.2813 -0.3099
 5751TIP3    H138744   4.223   4.756  10.337  1.6286  1.0337 -0.1465
 5751TIP3    H238745   4.085   4.791  10.284  1.1477 -0.9574 -0.2494
 5752TIP3   OH238746   3.119   5.891   3.603  0.5567  0.0676 -0.5510
 5752TIP3    H138747   3.049   5.889   3.668  2.1330 -1.0916  1.1640
 5752TIP3    H238748   3.080   5.855   3.523 -1.1052  0.5382  0.0441
 5753TIP3   OH238749   3.880   3.665   0.684 -0.0273  0.3235 -0.2757
 5753TIP3    H138750   3.817   3.646   0.754  0.1470 -0.1927 -0.2576
 5753TIP3    H238751   3.961   3.623   0.712  0.5896  1.7850  0.1429
 5754TIP3   OH238752   1.417   0.931  16.804  0.5380  0.3593  0.0455
 5754TIP3    H138753   1.509   0.907  16.790  0.0860 -1.6405  0.3597
 5754TIP3    H238754   1.374   0.849  16.828 -0.9217  1.6551  1.9892
 5755TIP3   OH238755   1.473   5.150  14.087 -0.2741  0.3997  0.5474
 5755TIP3    H138756   1.510   5.180  14.004  1.3715 -1.0790  0.6942
 5755TIP3    H238757   1.511   5.208  14.153 -1.2618  1.3178  0.3121
 5756TIP3   OH238758   4.988   2.790  15.125 -0.4670 -0.9161 -0.0325
 5756TIP3    H138759   4.972   2.740  15.046  0.2924 -0.7690 -0.2864
 5756TIP3    H238760   4.970   2.728  15.197  0.1222 -1.4477 -0.3379
 5757TIP3   OH238761   1.904   3.466   0.625 -0.5782  0.3493 -0.0183
 5757TIP3    H138762   1.953   3.533   0.578  0.0160 -0.8209 -1.0995
 5757TIP3    H238763   1.816   3.504   0.635 -0.4060  1.0720 -1.1061
 5758TIP3   OH238764   5.862   3.632   3.302  0.1810 -0.6908 -0.6885
 5758TIP3    H138765   5.924   3.647   3.374 -0.4269  1.2092 -0.5212
 5758TIP3    H238766   5.833   3.542   3.313 -0.6821 -0.1303  2.0855
 5759TIP3   OH238767   4.687   6.405   3.055  0.2125 -0.2303  0.4531
 5759TIP3    H138768   4.756   6.459   3.017 -0.7224  0.7379  0.0849
 5759TIP3    H238769   4.608   6.460   3.049 -0.1977 -0.5455  2.6498
 5760TIP3   OH238770   1.131   6.694  14.014 -0.0068  0.5535 -0.1585
 5760TIP3    H138771   1.174   6.616  13.978  1.0391  0.6699  0.8129
 5760TIP3    H238772   1.204   6.752  14.039 -0.7291  0.9935  0.9639
 5761TIP3   OH238773   2.319   4.101   3.827 -0.3435  0.2971  0.2863
 5761TIP3    H138774   2.247   4.165   3.833 -1.4461 -1.0048  1.3513
 5761TIP3    H238775   2.345   4.087   3.917  0.1118 -0.5241  0.0259
 5762TIP3   OH238776   0.135   1.094  16.252  0.1617  0.2147 -0.2395
 5762TIP3    H138777   0.086   1.017  16.281  0.6124 -0.3477 -0.9440
 5762TIP3    H238778   0.182   1.123  16.330 -1.3721  0.8262  0.4775
 5763TIP3   OH238779   3.401   6.126   3.873  0.2145 -0.1625  0.4410
 5763TIP3    H138780   3.442   6.056   3.924 -0.4982 -1.2757 -0.5189
 5763TIP3    H238781   3.374   6.085   3.791  1.0342  1.5353 -0.7200
 5764TIP3   OH238782   0.945   0.264   0.800  0.4955 -0.1752 -0.1198
 5764TIP3    H138783   0.968   0.257   0.707  2.7720 -1.1058  0.4685
 5764TIP3    H238784   1.002   0.333   0.834  1.0156 -1.1111  0.9643
 5765TIP3   OH238785   1.278   0.004   0.254 -0.0814 -0.0974 -0.2489
 5765TIP3    H138786   1.193   0.033   0.288  0.3215 -0.4430  1.0838
 5765TIP3    H238787   1.256  -0.049   0.178 -1.1487 -1.4622  0.9879
 5766TIP3   OH238788   4.384   1.980   3.570 -0.3458 -0.3304 -1.0819
 5766TIP3    H138789   4.402   1.963   3.478  1.3588 -0.9928 -0.6501
 5766TIP3    H238790   4.318   1.915   3.595 -0.1740 -0.7036 -1.6073
 5767TIP3   OH238791   4.755   2.903   4.101  0.4726  0.1311  0.3834
 5767TIP3    H138792   4.695   2.973   4.124 -0.8427 -1.3626  1.5921
 5767TIP3    H238793   4.760   2.905   4.005 -0.6481  0.9663  0.3448
 5768TIP3   OH238794   4.128   2.447  11.027  0.0465  0.1998 -0.7746
 5768TIP3    H138795   4.163   2.363  10.998 -0.0634 -0.2762  0.4403
 5768TIP3    H238796   4.181   2.471  11.103  0.0125  1.1788 -1.0534
 5769TIP3   OH238797   4.657   1.909   0.980 -0.1929  0.0237  0.5491
 5769TIP3    H138798   4.581   1.854   0.993  0.6845 -1.6258 -1.0765
 5769TIP3    H238799   4.711   1.862   0.916  1.8145  1.5115  1.0690
 5770TIP3   OH238800   3.919   3.544  14.636  0.2442 -0.4532  0.0244
 5770TIP3    H138801   4.004   3.562  14.596 -0.9976  1.3989 -1.9230
 5770TIP3    H238802   3.920   3.591  14.719 -0.2020  2.6552 -1.6675
 5771TIP3   OH238803   2.339   4.476  11.077 -0.0596 -0.0881  0.1025
 5771TIP3    H138804   2.262   4.454  11.128  0.9086  0.5191  1.8508
 5771TIP3    H238805   2.412   4.440  11.127  0.8729  0.2294 -1.0138
 5772TIP3   OH238806   4.546   5.013   4.421  0.3234 -0.1926 -0.1576
 5772TIP3    H138807   4.619   5.070   4.445  0.7164 -0.2578 -1.2102
 5772TIP3    H238808   4.513   4.980   4.505  2.9100 -1.9261  0.2252
 5773TIP3   OH238809   0.976   6.742   1.701  0.3209 -0.4552 -0.2272
 5773TIP3    H138810   0.886   6.733   1.669  0.0812 -0.3262  0.3939
 5773TIP3    H238811   0.966   6.774   1.791  1.0343  3.4899 -1.4335
 5774TIP3   OH238812   0.154   2.819  10.531 -0.0455 -0.1920 -0.6284
 5774TIP3    H138813   0.245   2.845  10.514 -0.1991  1.9290  1.4985
 5774TIP3    H238814   0.101   2.886  10.488 -0.5785 -0.4338 -0.3517
 5775TIP3   OH238815   3.087   2.512  17.168 -0.5063  0.0611  0.1006
 5775TIP3    H138816   2.995   2.485  17.158 -0.2905 -1.0948  1.1502
 5775TIP3    H238817   3.133   2.431  17.189  0.7944  0.6110 -0.5803
 5776TIP3   OH238818   1.982   3.123   6.526  0.2314 -0.2455 -0.1990
 5776TIP3    H138819   2.054   3.063   6.543  0.4637 -0.6040 -2.3432
 5776TIP3    H238820   1.910   3.090   6.580  0.8726 -1.4617 -0.0780
 5777TIP3   OH238821   5.322   5.964   3.862  0.2908 -0.4692 -0.3015
 5777TIP3    H138822   5.416   5.982   3.868  0.2437 -0.7857  1.9098
 5777TIP3    H238823   5.308   5.935   3.772  2.5131 -1.4714 -0.3430
 5778TIP3   OH238824   5.947   1.838  11.706  0.5995 -0.1113 -0.3465
 5778TIP3    H138825   5.908   1.765  11.754 -1.8665 -0.3700 -2.6414
 5778TIP3    H238826   6.002   1.797  11.639  0.5235  0.1488 -0.5711
 5779TIP3   OH238827   5.391   3.280  11.313  0.0211  0.3637  0.8825
 5779TIP3    H138828   5.298   3.261  11.325 -0.4965  2.2485  0.0426
 5779TIP3    H238829   5.416   3.234  11.233 -0.4430  0.6831  0.5544
 5780TIP3   OH238830   4.816   3.778  13.095  0.0850  0.2618  0.3357
 5780TIP3    H138831   4.728   3.761  13.126 -0.3426  0.4036 -0.7739
 5780TIP3    H238832   4.873   3.755  13.168 -0.6777 -2.8006  0.0185
 5781TIP3   OH238833   0.121   6.577  12.852  0.0786 -0.3217  0.9677
 5781TIP3    H138834   0.174   6.524  12.911 -0.4471 -0.5324  1.2598
 5781TIP3    H238835   0.048   6.519  12.828 -0.3840  0.1976  1.1160
 5782TIP3   OH238836   1.999   2.648   2.502 -0.1806  0.5077  0.1343
 5782TIP3    H138837   2.057   2.614   2.434  1.5516  1.1798  1.2408
 5782TIP3    H238838   1.930   2.582   2.510 -1.4405  1.2744 -3.5335
 5783TIP3   OH238839   3.750   1.809   1.676 -0.0512 -0.4649  0.0712
 5783TIP3    H138840   3.833   1.837   1.714 -0.1166  0.1556 -0.2410
 5783TIP3    H238841   3.726   1.731   1.726  0.7042 -0.6323  0.1828
 5784TIP3   OH238842   3.922   4.457   3.872 -0.4130  0.2898 -0.2282
 5784TIP3    H138843   3.897   4.415   3.955  2.2267  0.6500  0.8002
 5784TIP3    H238844   3.859   4.423   3.809 -0.9784 -1.9387  1.4312
 5785TIP3   OH238845   1.412   5.018  16.204 -0.3068 -0.1226 -0.2426
 5785TIP3    H138846   1.410   4.983  16.293  1.2846 -4.1445 -1.7000
 5785TIP3    H238847   1.347   4.966  16.157  1.0189 -0.0675 -2.1554
 5786TIP3   OH238848   0.170   2.598   4.792  0.2735 -0.0440 -0.6015
 5786TIP3    H138849   0.138   2.512   4.822  0.3898 -0.6111 -2.0556
 5786TIP3    H238850   0.105   2.660   4.825  1.7411 -0.3236  3.0374
 5787TIP3   OH238851   4.709   2.462   1.409  0.1549 -0.3858 -0.3496
 5787TIP3    H138852   4.665   2.547   1.403 -2.3360 -1.5464  0.5344
 5787TIP3    H238853   4.799   2.479   1.382 -0.3621  2.4781 -0.4202
 5788TIP3   OH238854   4.120   4.059  16.581  0.6150 -0.1050  0.1776
 5788TIP3    H138855   4.037   4.068  16.533  0.9810  0.1021 -0.4254
 5788TIP3    H238856   4.157   3.977  16.549  1.5917  0.7837 -1.0603
 5789TIP3   OH238857   0.017   5.006  12.931  1.0369 -0.4155  0.3457
 5789TIP3    H138858   0.060   4.934  12.885  1.9167  0.8135 -0.7406
 5789TIP3    H238859  -0.075   4.998  12.906  1.3288 -0.4270 -0.7452
 5790TIP3   OH238860   1.929   5.979  12.117  0.6572 -0.3008 -0.0613
 5790TIP3    H138861   1.851   5.927  12.093  0.2718 -0.5062  1.5956
 5790TIP3    H238862   2.003   5.926  12.087  0.1586  0.5826 -3.0172
 5791TIP3   OH238863   6.728   2.774   3.157  0.2248 -0.3848 -0.2071
 5791TIP3    H138864   6.762   2.797   3.243  0.2255  0.6517 -0.4869
 5791TIP3    H238865   6.685   2.689   3.170 -1.9971  0.9247  1.3862
 5792TIP3   OH238866   2.629   1.099  13.388  0.2362 -0.6602  0.0744
 5792TIP3    H138867   2.631   1.048  13.307 -1.4841 -3.1344  1.5002
 5792TIP3    H238868   2.560   1.163  13.374 -0.0272 -1.0508 -0.4451
 5793TIP3   OH238869   1.325   0.726  15.388 -0.6729  0.4199  0.4278
 5793TIP3    H138870   1.308   0.787  15.317 -0.0323  0.5973  0.4182
 5793TIP3    H238871   1.285   0.765  15.465  0.2214  1.1456  0.5418
 5794TIP3   OH238872   6.390   0.001  16.250 -0.3346  0.1126 -0.5159
 5794TIP3    H138873   6.332  -0.048  16.307 -0.1061 -0.3655 -0.6879
 5794TIP3    H238874   6.405  -0.057  16.175  0.0882  0.3660 -0.6306
 5795TIP3   OH238875   0.482   1.972  15.076  0.4996 -0.0944 -0.0467
 5795TIP3    H138876   0.420   1.943  15.009  0.8434 -0.1468 -0.3479
 5795TIP3    H238877   0.429   2.021  15.139  0.2691  0.5064 -0.6988
 5796TIP3   OH238878   6.485   6.157  12.574  0.6069 -0.1861 -0.0538
 5796TIP3    H138879   6.493   6.241  12.529  0.0084  0.3440  0.7952
 5796TIP3    H238880   6.549   6.100  12.532  2.2738  1.2200  0.5526
 5797TIP3   OH238881   0.110   2.920   0.817  0.2776 -1.6330  0.0651
 5797TIP3    H138882   0.048   2.872   0.762 -0.6394 -1.1505  0.6673
 5797TIP3    H238883   0.094   3.012   0.797  0.8998 -1.5092  0.1270
 5798TIP3   OH238884   3.924   5.310  12.486 -0.1574 -0.5046 -0.4039
 5798TIP3    H138885   3.876   5.292  12.405 -0.6914  1.5853 -0.5983
 5798TIP3    H238886   3.910   5.404  12.501  2.1174 -0.3097  0.6994
 5799TIP3   OH238887   6.535   1.225   2.148 -0.2772  0.2415 -0.4915
 5799TIP3    H138888   6.577   1.201   2.230 -1.2189  2.4828  0.6774
 5799TIP3    H238889   6.467   1.159   2.135 -2.0386  1.4930  2.0454
 5800TIP3   OH238890   2.314   2.167  15.996  0.6083  0.0998  0.1340
 5800TIP3    H138891   2.407   2.166  16.019  0.3551 -0.5587  1.1761
 5800TIP3    H238892   2.306   2.106  15.923  0.4654 -2.5190  2.2527
 5801TIP3   OH238893   2.248   4.843   4.315 -0.9244 -0.2559  0.1558
 5801TIP3    H138894   2.225   4.827   4.406 -0.0974 -3.2925 -0.1353
 5801TIP3    H238895   2.167   4.829   4.267 -1.2455  0.8799  0.3413
 5802TIP3   OH238896   1.780   2.327  11.079 -0.5760  0.6133  0.5770
 5802TIP3    H138897   1.736   2.398  11.125 -3.5181 -1.3271  0.8683
 5802TIP3    H238898   1.801   2.264  11.148  2.5021  1.3468  0.4056
 5803TIP3   OH238899   0.590   6.286  13.916  0.1174  0.3396  0.3009
 5803TIP3    H138900   0.505   6.267  13.876  0.0178  0.4479  0.4581
 5803TIP3    H238901   0.596   6.224  13.989  0.5907 -0.3090 -0.2793
 5804TIP3   OH238902   3.823   1.500  16.832  0.3813 -0.1809 -0.1410
 5804TIP3    H138903   3.784   1.542  16.909 -0.2481 -0.4724 -0.2874
 5804TIP3    H238904   3.841   1.571  16.772 -2.8338 -0.2820 -1.3448
 5805TIP3   OH238905   6.368   2.228   0.112 -0.3936 -0.7791 -0.2380
 5805TIP3    H138906   6.427   2.157   0.086  0.2998  0.2369 -1.5511
 5805TIP3    H238907   6.299   2.226   0.046 -0.4256 -0.3088 -0.2198
 5806TIP3   OH238908   5.564   5.044   2.374 -0.2929 -0.0382  0.3146
 5806TIP3    H138909   5.547   5.128   2.415  2.8783  0.6341  0.3528
 5806TIP3    H238910   5.548   4.979   2.443  1.1702  0.8168  1.4711
 5807TIP3   OH238911   4.201   2.746   0.172 -0.5215 -0.0047 -0.3785
 5807TIP3    H138912   4.136   2.810   0.202  1.1173  1.1658  0.7348
 5807TIP3    H238913   4.203   2.681   0.241 -0.5754 -0.1063 -0.4718
 5808TIP3   OH238914   5.531   1.755  11.371  0.0677  0.0911  0.7006
 5808TIP3    H138915   5.550   1.661  11.363  0.1986  0.2274 -0.8495
 5808TIP3    H238916   5.509   1.768  11.463 -0.7803 -1.6201  0.7520
 5809TIP3   OH238917   6.345   5.397   1.878 -0.3474 -0.3982 -0.6815
 5809TIP3    H138918   6.285   5.329   1.848  0.4786 -0.2584 -2.7623
 5809TIP3    H238919   6.413   5.349   1.927  0.3533 -1.1226 -2.3272
 5810TIP3   OH238920   1.444   2.097  13.973  0.1194 -0.0985 -0.1710
 5810TIP3    H138921   1.407   2.105  14.061  0.9826 -3.4409  0.6043
 5810TIP3    H238922   1.524   2.151  13.976 -0.3576  0.5769  0.7944
 5811TIP3   OH238923   4.131   0.577   2.081  0.4387 -0.2918 -0.3958
 5811TIP3    H138924   4.097   0.491   2.109  0.1541  0.0986  0.4712
 5811TIP3    H238925   4.064   0.611   2.022 -0.9332  0.6994  1.7104
 5812TIP3   OH238926   3.958   1.982  15.978 -0.9098  0.1049 -0.7234
 5812TIP3    H138927   3.926   1.903  16.023 -0.1426  0.1884 -0.0186
 5812TIP3    H238928   3.885   2.044  15.984 -1.0713 -0.1293 -0.2101
 5813TIP3   OH238929   2.204   4.853   1.528  0.3995 -0.4974 -0.3911
 5813TIP3    H138930   2.166   4.857   1.439 -0.6974  0.0331  0.0872
 5813TIP3    H238931   2.237   4.941   1.544 -0.7013 -0.1953  0.2747
 5814TIP3   OH238932   3.862   5.423  12.005  0.2409 -0.1710 -0.1092
 5814TIP3    H138933   3.812   5.422  12.087  1.6617 -3.1180  0.8045
 5814TIP3    H238934   3.915   5.503  12.011 -1.0804  0.6554  0.9544
 5815TIP3   OH238935   1.802   5.090   4.768  0.0887 -0.2852  0.0644
 5815TIP3    H138936   1.874   5.029   4.754  0.2475 -0.6835  2.4556
 5815TIP3    H238937   1.810   5.116   4.860 -0.7711  2.3102 -0.5552
 5816TIP3   OH238938   2.869   5.306  12.701 -0.3931  0.1758  0.6324
 5816TIP3    H138939   2.844   5.379  12.645  3.2968  1.8413  1.0057
 5816TIP3    H238940   2.796   5.244  12.694 -1.8098  2.1083 -2.7746
 5817TIP3   OH238941   4.380   0.438   0.773 -0.3566  0.0525  0.6841
 5817TIP3    H138942   4.374   0.459   0.866 -0.4490  0.7480  0.5219
 5817TIP3    H238943   4.290   0.440   0.742 -0.3518 -0.4369  0.6311
 5818TIP3   OH238944   2.469   5.543   5.487 -0.2285  0.3659  0.2574
 5818TIP3    H138945   2.559   5.526   5.459  0.1800 -1.3457  2.4667
 5818TIP3    H238946   2.415   5.504   5.418  0.7367 -0.6051  0.0320
 5819TIP3   OH238947   1.250   3.588  12.837 -0.3159  0.1845 -0.3040
 5819TIP3    H138948   1.327   3.531  12.831 -0.4580  0.1889 -2.8859
 5819TIP3    H238949   1.243   3.628  12.750 -3.2312  0.1972 -0.1156
 5820TIP3   OH238950   5.736   6.491  14.120 -0.1258  0.1463 -0.4411
 5820TIP3    H138951   5.739   6.400  14.149  2.7110 -0.3687 -2.1955
 5820TIP3    H238952   5.650   6.500  14.080 -0.8490 -1.4417  0.6763
 5821TIP3   OH238953   5.113   0.743   4.716 -0.4522  0.0281  0.1515
 5821TIP3    H138954   5.066   0.826   4.709 -1.6723 -0.5903  0.8025
 5821TIP3    H238955   5.205   0.768   4.724 -0.7046  1.2775 -0.6867
 5822TIP3   OH238956   4.524   0.665  11.663  0.2363  0.3884 -0.2613
 5822TIP3    H138957   4.505   0.619  11.745 -1.2284  1.6436  0.1259
 5822TIP3    H238958   4.480   0.614  11.596  0.3696  0.0660 -0.1062
 5823TIP3   OH238959   5.242   4.572  12.664 -0.3914 -0.0740  0.9223
 5823TIP3    H138960   5.306   4.541  12.727 -0.2552  1.0213  1.3288
 5823TIP3    H238961   5.294   4.612  12.594 -0.5854 -0.2178  0.6952
 5824TIP3   OH238962   6.657   1.538   0.682 -0.1497  0.5607 -0.7957
 5824TIP3    H138963   6.591   1.477   0.716 -0.1402 -0.0079 -1.7839
 5824TIP3    H238964   6.630   1.624   0.716  0.5844 -0.1634  1.7031
 5825TIP3   OH238965   0.460   5.032  17.079 -0.3150 -0.0406  0.6230
 5825TIP3    H138966   0.428   5.091  17.147  1.0161  0.9839  0.3969
 5825TIP3    H238967   0.497   5.090  17.013 -1.5162 -1.0370 -0.9420
 5826TIP3   OH238968   1.338   6.198  11.979  0.6688  0.1595  0.0756
 5826TIP3    H138969   1.385   6.248  11.912 -0.0936  2.3818  1.1559
 5826TIP3    H238970   1.406   6.167  12.038  1.0266  1.2158  0.2266
 5827TIP3   OH238971   2.262   4.905   0.484  0.2091 -0.2602  0.5289
 5827TIP3    H138972   2.268   4.965   0.410 -3.2824  1.3654  1.4202
 5827TIP3    H238973   2.328   4.937   0.546  1.5788 -0.2296 -0.9241
 5828TIP3   OH238974   1.696   5.045   1.471  0.0254  0.1780 -1.2031
 5828TIP3    H138975   1.609   5.058   1.435 -0.9780  0.1514  1.1221
 5828TIP3    H238976   1.683   5.042   1.566  2.5608  0.2572 -0.8065
 5829TIP3   OH238977   6.794   0.947  15.726 -0.4528  0.3636  0.4485
 5829TIP3    H138978   6.863   1.013  15.736 -0.4855  0.3746  0.5894
 5829TIP3    H238979   6.713   0.993  15.745 -0.6801  0.8230 -1.5106
 5830TIP3   OH238980   6.444   1.042   4.528 -0.0724  0.3247 -0.6059
 5830TIP3    H138981   6.425   1.090   4.447 -0.5569  0.8951 -0.1640
 5830TIP3    H238982   6.387   0.965   4.524  0.2819  0.0859 -1.0474
 5831TIP3   OH238983   3.592   0.821  13.426 -0.7730 -0.2037 -0.1316
 5831TIP3    H138984   3.519   0.817  13.364 -0.9264 -2.2085  0.1189
 5831TIP3    H238985   3.583   0.740  13.477  1.2461 -0.1437  0.3401
 5832TIP3   OH238986   0.268   3.648  12.250  0.2286  0.0503  0.4466
 5832TIP3    H138987   0.231   3.691  12.328  0.9898  3.0094 -0.7790
 5832TIP3    H238988   0.198   3.654  12.185  0.9051  0.8354 -0.2118
 5833TIP3   OH238989   3.600   5.624   4.402  0.5831  0.0628 -0.0650
 5833TIP3    H138990   3.618   5.711   4.368  0.1138  0.4832  0.7313
 5833TIP3    H238991   3.507   5.627   4.427  0.8007 -0.3580  0.8309
 5834TIP3   OH238992   0.833   1.941  15.986  0.0485  0.1926 -0.8259
 5834TIP3    H138993   0.831   1.904  16.075  0.1759  2.0142 -0.0302
 5834TIP3    H238994   0.746   1.981  15.976  1.3017  3.2929 -0.0184
 5835TIP3   OH238995   4.390   5.294   2.067  0.1987  0.4847  0.7969
 5835TIP3    H138996   4.408   5.355   2.139  0.1185  0.4521  0.8441
 5835TIP3    H238997   4.477   5.273   2.032  0.0714  2.6414 -0.9077
 5836TIP3   OH238998   3.244   3.985  10.305  0.8367  0.3586 -0.1497
 5836TIP3    H138999   3.236   4.062  10.362 -1.8320  0.2294 -0.3026
 5836TIP3    H239000   3.311   4.009  10.241  3.4505  0.7490  2.6170
 5837TIP3   OH239001   3.138   1.470  14.376 -1.0971 -0.1341 -0.3481
 5837TIP3    H139002   3.145   1.539  14.442 -0.4056  2.1455 -2.7451
 5837TIP3    H239003   3.048   1.475  14.345 -0.5117  1.0748 -1.9342
 5838TIP3   OH239004   1.048   4.250   4.958 -0.1746 -0.1361  0.6418
 5838TIP3    H139005   1.097   4.204   5.026  0.0315  0.3606  0.8349
 5838TIP3    H239006   1.032   4.184   4.891  1.4768 -0.1133  0.1905
 5839TIP3   OH239007   4.940   5.006   3.382 -0.2983  0.1156 -0.4381
 5839TIP3    H139008   4.942   5.102   3.386 -2.1902  0.1926 -0.7305
 5839TIP3    H239009   4.893   4.987   3.300  0.5706 -1.0675 -0.6675
 5840TIP3   OH239010   3.579   5.503  13.696 -0.0102 -0.0475 -0.4135
 5840TIP3    H139011   3.504   5.543  13.653 -1.7692  0.0013  2.5523
 5840TIP3    H239012   3.634   5.577  13.722 -1.2766  0.2500  1.5167
 5841TIP3   OH239013   1.650   0.010  10.928 -0.1216  0.1509 -0.1876
 5841TIP3    H139014   1.647  -0.006  10.834 -1.3278  1.7871 -0.4403
 5841TIP3    H239015   1.694   0.094  10.937 -0.0902  0.0499  0.7175
 5842TIP3   OH239016   0.068   2.844   5.554 -0.1455  0.2563 -0.4501
 5842TIP3    H139017   0.130   2.854   5.627 -0.7653  1.2298 -0.0523
 5842TIP3    H239018  -0.015   2.875   5.588 -0.6193 -0.0201 -1.3346
 5843TIP3   OH239019   2.608   4.307   1.286  0.0522  0.5006  0.2485
 5843TIP3    H139020   2.535   4.369   1.294  0.5008  0.8916  1.3051
 5843TIP3    H239021   2.683   4.362   1.261 -0.4753 -0.1765 -3.1168
 5844TIP3   OH239022   2.562   4.650  15.768 -0.1989  0.0066  0.4265
 5844TIP3    H139023   2.502   4.636  15.695 -1.2732 -1.0429  1.5048
 5844TIP3    H239024   2.601   4.736  15.751 -1.1313  0.1795 -0.8843
 5845TIP3   OH239025   1.934   2.116  10.659  0.5196  0.1146 -0.2640
 5845TIP3    H139026   1.864   2.155  10.606  0.0325  0.7527  0.8191
 5845TIP3    H239027   1.912   2.141  10.749  1.5577 -0.5972  0.1970
 5846TIP3   OH239028   6.427   6.149  11.134  0.0446  0.2649  0.5598
 5846TIP3    H139029   6.507   6.153  11.187  0.0012 -0.6736  0.7066
 5846TIP3    H239030   6.372   6.086  11.179 -0.2798 -0.0165 -0.2197
 5847TIP3   OH239031   5.919   3.981   4.210 -0.1779  0.0900 -0.3959
 5847TIP3    H139032   5.916   3.999   4.304  2.3621  1.7456 -0.5821
 5847TIP3    H239033   5.866   4.051   4.170  0.2235  0.4543 -0.2996
 5848TIP3   OH239034   5.190   2.063  12.355 -0.2897 -0.2274  0.3266
 5848TIP3    H139035   5.201   2.016  12.272 -1.3745 -1.0743  0.6474
 5848TIP3    H239036   5.097   2.085  12.358  0.0195  1.0923  0.6438
 5849TIP3   OH239037   2.317   4.985   5.275 -0.2188  1.0188  0.4148
 5849TIP3    H139038   2.268   4.908   5.303  0.3001 -0.0245 -1.4690
 5849TIP3    H239039   2.362   5.015   5.355 -2.0707  0.6332  1.6317
 5850TIP3   OH239040   5.638   0.048   0.288  0.2133 -0.4970  0.1779
 5850TIP3    H139041   5.684  -0.032   0.311  0.6961 -0.1717  0.3576
 5850TIP3    H239042   5.699   0.097   0.233  0.9129  0.8527  2.0648
 5851TIP3   OH239043   2.021   2.696  14.934 -0.0181 -0.2357 -0.0989
 5851TIP3    H139044   2.093   2.659  14.883  0.1716  1.2500 -0.9436
 5851TIP3    H239045   2.064   2.751  15.000 -0.3274 -0.7781  0.5668
 5852TIP3   OH239046   1.097   5.552  13.192 -0.5287  0.0339 -0.0680
 5852TIP3    H139047   1.054   5.522  13.112 -1.5859  0.1455  0.4465
 5852TIP3    H239048   1.027   5.592  13.244 -0.1641 -1.3370  1.5583
 5853TIP3   OH239049   4.360   0.746  14.866 -0.4986 -0.0274  0.1907
 5853TIP3    H139050   4.408   0.698  14.798 -2.0638  0.8142 -1.5746
 5853TIP3    H239051   4.396   0.835  14.861 -0.3794 -0.0494  0.6984
 5854TIP3   OH239052   4.563   6.815   5.595 -0.1858 -0.6774 -0.0484
 5854TIP3    H139053   4.567   6.893   5.539 -0.1701 -1.2337 -0.8317
 5854TIP3    H239054   4.523   6.846   5.676  3.4505  1.0593  1.1873
 5855TIP3   OH239055   2.328   5.907  12.288 -0.7343  0.1016 -0.1398
 5855TIP3    H139056   2.245   5.864  12.267 -2.2138  2.7214  0.1019
 5855TIP3    H239057   2.303   5.993  12.322  2.0495  0.5100  1.0820
 5856TIP3   OH239058   0.139   1.975   1.511  0.6223  0.2873  0.1895
 5856TIP3    H139059   0.205   1.920   1.554  0.2047  1.1817  2.0297
 5856TIP3    H239060   0.183   2.059   1.498  0.0939  0.6594  0.7620
 5857TIP3   OH239061   3.678   0.473  17.138  0.2454 -0.1720 -0.3248
 5857TIP3    H139062   3.761   0.432  17.116 -0.6033 -2.2314  0.1619
 5857TIP3    H239063   3.641   0.498  17.053  0.1285 -1.7635 -0.7696
 5858TIP3   OH239064   6.665   3.241  12.922 -0.6146 -0.5143 -0.5405
 5858TIP3    H139065   6.688   3.174  12.857  0.0803 -1.7520  0.9417
 5858TIP3    H239066   6.739   3.243  12.982 -0.0469  2.5406 -1.2662
 5859TIP3   OH239067   1.454   3.064   2.191  0.1046 -0.4437  0.3952
 5859TIP3    H139068   1.480   3.109   2.111 -2.0989 -0.4257 -0.3451
 5859TIP3    H239069   1.457   3.132   2.258 -0.2502  0.0947 -0.1238
 5860TIP3   OH239070   4.191   2.369   6.611  0.9525 -0.1919 -0.1326
 5860TIP3    H139071   4.169   2.350   6.702 -0.6259 -1.5041 -0.7647
 5860TIP3    H239072   4.123   2.430   6.581 -0.6282 -2.5282 -1.4485
 5861TIP3   OH239073   6.263   5.274   3.672 -0.1302 -0.0587  0.2016
 5861TIP3    H139074   6.286   5.310   3.758 -0.7163  0.7212  0.0410
 5861TIP3    H239075   6.220   5.190   3.691  0.5485 -0.3108  0.6214
 5862TIP3   OH239076   0.740   3.895   4.397  0.4807  0.2590 -0.3752
 5862TIP3    H139077   0.666   3.859   4.348 -0.5273  1.6647  0.0946
 5862TIP3    H239078   0.737   3.849   4.481 -0.5500  1.0821  0.0611
 5863TIP3   OH239079   2.948   1.661  11.334  0.2539  0.7312  0.6274
 5863TIP3    H139080   2.928   1.617  11.416 -0.6167 -0.2802 -0.1127
 5863TIP3    H239081   2.865   1.699  11.306  0.1973 -0.2156 -0.5337
 5864TIP3   OH239082   4.407   5.437  15.007  0.0386  0.4910  0.4822
 5864TIP3    H139083   4.438   5.464  15.093  1.3033  1.6515 -0.3287
 5864TIP3    H239084   4.400   5.518  14.956 -0.0004 -0.2586 -0.7405
 5865TIP3   OH239085   3.711   4.867  15.035 -0.1413 -0.1825  0.5275
 5865TIP3    H139086   3.802   4.852  15.062  0.2668 -0.5057 -0.9631
 5865TIP3    H239087   3.664   4.884  15.117  0.9096 -1.7847  1.4856
 5866TIP3   OH239088   4.091   5.285   5.353  0.0966  0.0700 -0.1109
 5866TIP3    H139089   4.047   5.271   5.269 -0.8142  1.0472  0.2000
 5866TIP3    H239090   4.060   5.214   5.409  0.9457 -0.7666 -0.6843
 5867TIP3   OH239091   5.738   1.526   5.814  0.8095  0.2705  0.1743
 5867TIP3    H139092   5.772   1.615   5.826  1.0155  0.3373 -0.8487
 5867TIP3    H239093   5.801   1.485   5.754  0.4892 -0.4333  0.3209
 5868TIP3   OH239094   1.770   1.873  14.781  0.2759  0.0831  0.4534
 5868TIP3    H139095   1.675   1.884  14.792 -0.2193 -2.6191 -0.5142
 5868TIP3    H239096   1.783   1.778  14.787  2.7655  0.3329 -0.6146
 5869TIP3   OH239097   4.484   3.672  14.306 -0.4519  0.3846 -0.4867
 5869TIP3    H139098   4.469   3.631  14.391  0.2475  0.3243 -0.3897
 5869TIP3    H239099   4.412   3.640  14.251  0.9041 -2.2076 -0.8448
 5870TIP3   OH239100   0.219   4.392  14.908 -0.5008  0.1066 -0.1444
 5870TIP3    H139101   0.202   4.433  14.993  2.3898  1.0875 -0.0035
 5870TIP3    H239102   0.302   4.346  14.920 -1.0311 -1.3573 -1.8895
 5871TIP3   OH239103   1.580   4.395   0.526 -0.7051 -0.1298  0.3692
 5871TIP3    H139104   1.530   4.476   0.527  0.0711  0.3612 -0.0728
 5871TIP3    H239105   1.597   4.378   0.434 -0.4166 -0.5073  0.4920
 5872TIP3   OH239106   2.113   3.136  14.657  0.2950 -0.5582 -0.3656
 5872TIP3    H139107   2.178   3.178  14.713 -0.6629  0.4071  0.0568
 5872TIP3    H239108   2.103   3.048  14.692  0.4776 -0.3072  0.3316
 5873TIP3   OH239109   2.144   4.604  10.888  0.2802  0.7402  0.2783
 5873TIP3    H139110   2.225   4.559  10.912 -0.6639 -2.9922 -3.0159
 5873TIP3    H239111   2.084   4.587  10.961  0.8697 -0.8192  0.4102
 5874TIP3   OH239112   2.418   0.118  11.624  0.0761 -0.3815 -0.1325
 5874TIP3    H139113   2.343   0.112  11.565  0.1590 -2.4038 -0.0573
 5874TIP3    H239114   2.494   0.101  11.568  0.3665  0.2686  0.0633
 5875TIP3   OH239115   6.233   4.852  16.911  0.0631  0.3027  0.5366
 5875TIP3    H139116   6.234   4.777  16.852 -0.8453  1.7114 -1.3522
 5875TIP3    H239117   6.182   4.823  16.986 -0.4052 -0.9359 -0.2522
 5876TIP3   OH239118   4.984   2.479  11.683  0.3801 -0.1435  0.2822
 5876TIP3    H139119   5.045   2.425  11.733  1.2041  2.0035  1.6821
 5876TIP3    H239120   5.009   2.465  11.592  1.0696 -1.5247  0.6735
 5877TIP3   OH239121   5.189   2.238  17.067 -0.7032  0.1419  0.3907
 5877TIP3    H139122   5.194   2.304  17.136  1.2139  0.5545 -0.1167
 5877TIP3    H239123   5.185   2.155  17.113 -1.1765  0.5022  1.0059
 5878TIP3   OH239124   2.651   6.344   3.736 -0.3231 -0.2923  0.7156
 5878TIP3    H139125   2.599   6.424   3.745  0.5573  0.4497 -0.6254
 5878TIP3    H239126   2.723   6.369   3.677  0.2041 -1.9538  0.6393
 5879TIP3   OH239127   1.109   2.729  12.942 -1.0733  0.3842  0.0064
 5879TIP3    H139128   1.075   2.705  12.855 -0.2517  1.2874 -0.5776
 5879TIP3    H239129   1.080   2.658  12.999 -3.6760  0.9337 -0.5352
 5880TIP3   OH239130   2.969   2.230   3.819  0.1989  0.1863  0.1956
 5880TIP3    H139131   3.001   2.246   3.908 -2.5618  0.4397  1.2051
 5880TIP3    H239132   2.919   2.149   3.826  0.3242 -0.0241 -1.2369
 5881TIP3   OH239133   4.411   0.442  16.376 -0.0507  0.0614  0.0371
 5881TIP3    H139134   4.473   0.388  16.424 -2.4509 -1.5899  1.3994
 5881TIP3    H239135   4.325   0.405  16.397 -1.5937  2.8431 -1.0228
 5882TIP3   OH239136   0.962   6.404  11.498  0.4139  0.3013  0.3326
 5882TIP3    H139137   0.907   6.455  11.558  0.2079 -1.8479  2.0674
 5882TIP3    H239138   0.949   6.313  11.526  1.6193 -0.6104 -1.9427
 5883TIP3   OH239139   1.220   1.929   0.276  0.2710 -0.4258  0.3408
 5883TIP3    H139140   1.221   1.964   0.187  0.9653 -0.7727  0.2062
 5883TIP3    H239141   1.227   2.006   0.332 -0.1480 -0.2076  0.1014
 5884TIP3   OH239142   5.257   0.208   4.010  0.0207  0.3185  0.6548
 5884TIP3    H139143   5.178   0.262   4.007 -0.5139 -0.4523  0.6819
 5884TIP3    H239144   5.321   0.262   4.055 -0.2334  1.2828 -0.1119
 5885TIP3   OH239145   4.333   1.003   4.957  0.6738  0.2130 -0.0586
 5885TIP3    H139146   4.332   1.070   4.888 -1.8617 -0.7638 -1.0266
 5885TIP3    H239147   4.296   1.046   5.033 -2.0592 -0.3415 -1.0059
 5886TIP3   OH239148   2.068   1.416  16.806  0.6273  0.2527 -0.6800
 5886TIP3    H139149   2.040   1.402  16.715  0.0425  1.6317 -0.7217
 5886TIP3    H239150   2.017   1.491  16.835 -0.4390 -1.1932  1.3427
 5887TIP3   OH239151   3.724   5.898   4.341  0.0044  0.6372 -0.1861
 5887TIP3    H139152   3.731   5.913   4.436 -0.5770 -1.7268  0.2764
 5887TIP3    H239153   3.799   5.945   4.304  0.4555  1.2834  1.4878
 5888TIP3   OH239154   0.532   1.022   0.850 -0.3280  0.0024  0.9857
 5888TIP3    H139155   0.496   0.970   0.777  1.5529 -1.1114  0.8270
 5888TIP3    H239156   0.475   1.000   0.924 -0.0140 -1.7471  0.7441
 5889TIP3   OH239157   5.841   1.477  13.556  0.1184  0.7504  0.3384
 5889TIP3    H139158   5.843   1.572  13.551 -0.9282  0.8056  0.8158
 5889TIP3    H239159   5.750   1.454  13.539  0.3168 -0.1497  0.4784
 5890TIP3   OH239160   2.680   6.302  14.413  0.5769 -0.3226 -0.1551
 5890TIP3    H139161   2.742   6.314  14.484 -0.0867 -0.4024  0.4433
 5890TIP3    H239162   2.658   6.391  14.385 -0.6724 -0.2329  1.0704
 5891TIP3   OH239163   5.512   3.928   0.256  0.0450 -0.2349  0.4431
 5891TIP3    H139164   5.511   4.013   0.300  2.0701  0.0313  0.0244
 5891TIP3    H239165   5.440   3.932   0.193  1.3363  1.9163 -0.9417
 5892TIP3   OH239166   3.685   1.330   5.777  0.2005  0.3301  0.4086
 5892TIP3    H139167   3.735   1.351   5.856  1.2103  1.6349 -0.5737
 5892TIP3    H239168   3.600   1.370   5.791  0.1605  0.0161  1.1025
 5893TIP3   OH239169   3.662   2.206  11.134 -0.3729  0.3710 -0.0571
 5893TIP3    H139170   3.638   2.114  11.123 -0.6948  0.3991  0.3711
 5893TIP3    H239171   3.583   2.254  11.109 -0.1397  0.5407 -0.4743
 5894TIP3   OH239172   3.380   1.822   3.591 -0.3064  0.5164  0.3589
 5894TIP3    H139173   3.412   1.905   3.627  1.7832 -0.5489  1.0461
 5894TIP3    H239174   3.316   1.791   3.654  2.5771 -0.8294  2.7516
 5895TIP3   OH239175   6.139   4.124  12.525 -0.2234  0.0798  0.4977
 5895TIP3    H139176   6.187   4.065  12.583  0.3533 -0.0840 -0.1365
 5895TIP3    H239177   6.107   4.068  12.454 -1.6583  0.1297  1.1032
 5896TIP3   OH239178   6.555   6.423   0.697  0.1782  0.1150 -0.2663
 5896TIP3    H139179   6.504   6.343   0.697 -0.3246  0.4291 -1.1161
 5896TIP3    H239180   6.549   6.456   0.787 -1.8409  0.6113 -0.5616
 5897TIP3   OH239181   6.782   0.605  13.327  0.5590 -0.0934 -0.2108
 5897TIP3    H139182   6.858   0.632  13.275  1.0811  0.3726  0.7671
 5897TIP3    H239183   6.804   0.517  13.358  0.3851 -0.2460 -0.5192
 5898TIP3   OH239184   0.393   0.873   3.612 -0.2744  0.0147  0.0118
 5898TIP3    H139185   0.391   0.833   3.699  0.0399 -0.5316 -0.2272
 5898TIP3    H239186   0.331   0.821   3.561  0.0109 -0.0647 -0.2571
 5899TIP3   OH239187   5.694   5.067  14.605  0.5814  0.0487 -0.0976
 5899TIP3    H139188   5.610   5.078  14.560 -0.1813 -0.6043  1.1142
 5899TIP3    H239189   5.747   5.141  14.575 -1.3362  1.9905  1.0380
 5900TIP3   OH239190   3.201   5.405   3.459  0.1857  0.1888 -0.2332
 5900TIP3    H139191   3.264   5.464   3.417  0.3849 -0.7036 -1.2274
 5900TIP3    H239192   3.250   5.364   3.530  0.3861  0.3704 -0.2669
 5901TIP3   OH239193   3.663   0.608  15.572  0.0418 -0.1502  0.9404
 5901TIP3    H139194   3.623   0.678  15.623 -0.7743 -0.7870  1.1952
 5901TIP3    H239195   3.757   0.614  15.591 -0.4351 -1.7317  4.2651
 5902TIP3   OH239196   0.052   5.768  13.862  0.4493 -0.3461 -0.3151
 5902TIP3    H139197  -0.010   5.757  13.790 -0.8732  1.6341  0.4664
 5902TIP3    H239198   0.103   5.846  13.839  2.4469 -1.7443 -0.7756
 5903TIP3   OH239199   3.818   5.782  14.430 -0.9895 -0.2237 -0.2755
 5903TIP3    H139200   3.895   5.743  14.470 -0.3671 -0.0952 -1.3359
 5903TIP3    H239201   3.748   5.718  14.446 -0.3690 -0.9587 -0.4594
 5904TIP3   OH239202   1.337   2.956   3.800  0.2578 -0.3188  0.1131
 5904TIP3    H139203   1.410   2.993   3.850 -0.1922 -0.8186  1.1541
 5904TIP3    H239204   1.260   2.974   3.854 -0.1780 -1.2810 -0.1737
 5905TIP3   OH239205   2.032   0.511   5.297 -0.0226 -0.0341 -0.0750
 5905TIP3    H139206   1.967   0.496   5.366 -0.3980 -0.6204 -0.5483
 5905TIP3    H239207   2.048   0.424   5.261  0.0646  0.2898 -0.8254
 5906TIP3   OH239208   1.576   2.084   1.435 -0.0266  0.2777  0.1229
 5906TIP3    H139209   1.488   2.111   1.408 -0.1648 -1.3329 -1.1609
 5906TIP3    H239210   1.562   2.010   1.493  0.4623  0.3371  0.3197
 5907TIP3   OH239211   3.638   2.122  17.052 -0.3955  0.2362  0.4084
 5907TIP3    H139212   3.721   2.131  17.099  0.6593  0.2515 -1.3752
 5907TIP3    H239213   3.579   2.182  17.095  0.1810 -0.6227  2.4501
 5908TIP3   OH239214   3.159   2.246  17.260 -0.4186  0.5455 -0.1643
 5908TIP3    H139215   3.085   2.272  17.315 -0.2616  0.3185  0.1596
 5908TIP3    H239216   3.214   2.194  17.318 -0.7674 -0.5646 -0.8170
 5909TIP3   OH239217   0.607   6.767  12.497 -0.4423  0.1621  0.7246
 5909TIP3    H139218   0.671   6.757  12.426  0.8839 -0.1569  1.9525
 5909TIP3    H239219   0.526   6.733  12.461 -0.2859  1.8428 -1.3552
 5910TIP3   OH239220   3.499   4.523   3.401 -0.2451  0.4983 -0.4367
 5910TIP3    H139221   3.484   4.454   3.335  2.7291  0.0457 -0.7120
 5910TIP3    H239222   3.556   4.482   3.466 -2.5455  1.1886  2.0728
 5911TIP3   OH239223   5.642   1.524  16.969 -0.1362 -0.5744  0.5323
 5911TIP3    H139224   5.593   1.453  16.925 -0.3481 -1.4419  2.1459
 5911TIP3    H239225   5.711   1.546  16.907 -0.6293 -1.5638 -0.4003
 5912TIP3   OH239226   0.499   1.251  15.967 -0.2553  0.7769 -0.4391
 5912TIP3    H139227   0.492   1.316  15.897  1.2036  1.1711 -0.2577
 5912TIP3    H239228   0.410   1.219  15.980 -0.8133  1.9293 -1.3124
 5913TIP3   OH239229   3.508   0.674  14.707 -0.2419 -0.0105 -0.3725
 5913TIP3    H139230   3.447   0.614  14.751  0.6186 -0.7038 -0.0987
 5913TIP3    H239231   3.497   0.757  14.752 -1.1786 -0.0533 -0.5029
 5914TIP3   OH239232   5.630   5.782   0.068 -0.3469  0.9344  0.0939
 5914TIP3    H139233   5.651   5.829   0.149 -0.7566  1.5246 -0.1405
 5914TIP3    H239234   5.607   5.694   0.097  1.7342  0.4727  0.4378
 5915TIP3   OH239235   1.227   5.617   2.207 -0.3421 -0.3699 -0.0954
 5915TIP3    H139236   1.229   5.595   2.114  0.3586 -0.4103 -0.0723
 5915TIP3    H239237   1.280   5.695   2.215  1.6067 -1.7248  0.6166
 5916TIP3   OH239238   6.351   3.489   5.141  0.3855  0.3942 -0.0577
 5916TIP3    H139239   6.438   3.479   5.179 -0.3279 -0.0841  1.5370
 5916TIP3    H239240   6.312   3.402   5.148 -0.5859  0.8418  0.2175
 5917TIP3   OH239241   0.941   5.142   1.905  0.2194  0.2010  0.0579
 5917TIP3    H139242   0.890   5.203   1.957 -1.9367 -0.7628 -0.8466
 5917TIP3    H239243   1.001   5.196   1.855  0.7119  1.2971  1.8151
 5918TIP3   OH239244   2.698   1.458   2.273  0.1626 -0.0519 -1.1777
 5918TIP3    H139245   2.656   1.541   2.294  0.6046 -0.2052  0.3475
 5918TIP3    H239246   2.748   1.476   2.193 -0.8980  0.7469 -1.6797
 5919TIP3   OH239247   3.990   4.575   2.675  0.1591  0.0500 -0.3798
 5919TIP3    H139248   3.965   4.665   2.696  0.1610 -0.0548  0.0590
 5919TIP3    H239249   4.085   4.576   2.672  0.1535  0.1108 -0.6000
 5920TIP3   OH239250   6.739   0.172  14.559  0.0175  0.1687 -0.4693
 5920TIP3    H139251   6.730   0.080  14.532  0.6845  0.3367 -1.2703
 5920TIP3    H239252   6.731   0.222  14.478  0.1145  0.7988 -0.0931
 5921TIP3   OH239253   5.745   6.291  16.684  0.7150  0.7665  0.8290
 5921TIP3    H139254   5.806   6.241  16.629  0.2475  1.3346 -0.2146
 5921TIP3    H239255   5.679   6.227  16.710  0.6217  0.6315  0.2568
 5922TIP3   OH239256   3.303   6.402  16.367 -0.0716  0.2750 -0.5976
 5922TIP3    H139257   3.271   6.315  16.393 -0.7808  1.1837  1.6915
 5922TIP3    H239258   3.233   6.462  16.393  1.5990  1.8269  0.4292
 5923TIP3   OH239259   5.401   2.758   1.364 -0.1345  0.1113 -0.5684
 5923TIP3    H139260   5.335   2.794   1.304 -2.3595 -0.2248  1.5794
 5923TIP3    H239261   5.392   2.811   1.443  2.3647  0.1926 -0.3125
 5924TIP3   OH239262   2.473   6.550   4.281  0.2908 -0.1581 -0.1357
 5924TIP3    H139263   2.516   6.540   4.366  0.1875 -0.3145 -0.1008
 5924TIP3    H239264   2.478   6.643   4.262  2.2176 -0.4085 -0.9596
 5925TIP3   OH239265   5.827   2.735  14.673  0.3734 -0.1433  0.2917
 5925TIP3    H139266   5.822   2.754  14.767 -0.2698  0.0104  0.2302
 5925TIP3    H239267   5.766   2.663  14.660 -0.6917  0.8353 -0.2594
 5926TIP3   OH239268   1.433   4.149  11.705  0.3381 -0.3434 -0.0632
 5926TIP3    H139269   1.438   4.203  11.626  0.8080 -0.5618 -0.1827
 5926TIP3    H239270   1.417   4.060  11.672 -0.9508 -0.2086  0.1558
 5927TIP3   OH239271   4.570   5.705   2.117 -0.3921 -0.2714 -0.3058
 5927TIP3    H139272   4.543   5.718   2.026  0.0141  1.8030 -0.1697
 5927TIP3    H239273   4.490   5.682   2.163 -1.0348  0.9467 -0.7897
 5928TIP3   OH239274   0.580   3.901  14.360 -0.0987 -0.1063  0.2337
 5928TIP3    H139275   0.571   3.880  14.267  3.0771  0.4738 -0.2375
 5928TIP3    H239276   0.615   3.990  14.361 -1.3859  0.4025  2.0333
 5929TIP3   OH239277   1.464   1.823  14.638  0.3192  0.5157  0.4217
 5929TIP3    H139278   1.437   1.742  14.682  1.7539 -0.4699 -0.4398
 5929TIP3    H239279   1.385   1.876  14.633 -1.3046 -1.9644 -1.4265
 5930TIP3   OH239280   6.581   0.240   1.021  0.2095  0.0407 -0.0137
 5930TIP3    H139281   6.658   0.219   0.969 -0.3701 -2.5858  0.1176
 5930TIP3    H239282   6.613   0.242   1.111  0.9500  3.3011 -0.2864
 5931TIP3   OH239283   1.736   6.099   2.432  0.0235  0.2953 -0.0736
 5931TIP3    H139284   1.655   6.065   2.470  0.8559 -0.3376  1.1903
 5931TIP3    H239285   1.782   6.021   2.399 -0.2609  0.7439 -1.5508
 5932TIP3   OH239286   6.563   0.794   5.768  0.7683  0.2376  0.0011
 5932TIP3    H139287   6.653   0.800   5.802  1.1104  0.2562 -0.8988
 5932TIP3    H239288   6.509   0.829   5.839  1.3732 -0.7499  0.9709
 5933TIP3   OH239289   4.782   2.070   3.714  0.1594 -0.1459  0.2827
 5933TIP3    H139290   4.687   2.085   3.714  0.2042  0.1502  0.4335
 5933TIP3    H239291   4.807   2.076   3.806  0.6434  1.8820  0.0451
 5934TIP3   OH239292   2.675   5.874  16.388 -0.3888  0.6527 -0.3077
 5934TIP3    H139293   2.693   5.881  16.294 -0.5850  0.0764 -0.3974
 5934TIP3    H239294   2.605   5.937  16.405 -2.0433 -0.9189 -1.0373
 5935TIP3   OH239295   4.462   0.465  12.497  0.2535 -0.3360  0.4257
 5935TIP3    H139296   4.421   0.541  12.538  1.2719  0.6132 -0.2957
 5935TIP3    H239297   4.543   0.452  12.546  0.0195 -1.0603  0.6386
 5936TIP3   OH239298   2.465   1.204  16.829  0.3088 -0.6466 -0.3905
 5936TIP3    H139299   2.413   1.182  16.752 -0.7969 -0.2246  0.2294
 5936TIP3    H239300   2.526   1.271  16.799  0.3414 -0.9732 -1.0604
 5937TIP3   OH239301   2.927   5.191   0.518 -0.0418 -0.2469 -0.1113
 5937TIP3    H139302   2.860   5.253   0.488 -0.3799 -0.2332  0.6571
 5937TIP3    H239303   2.879   5.109   0.532 -0.1438  0.1134  1.6776
 5938TIP3   OH239304   2.822   2.676   1.129 -0.0252  0.2950 -0.0543
 5938TIP3    H139305   2.869   2.692   1.211  0.4595 -0.4087 -0.1932
 5938TIP3    H239306   2.743   2.730   1.136 -0.7012 -0.8411  1.5101
 5939TIP3   OH239307   3.583   6.798  15.619 -0.5811 -0.5024  0.0742
 5939TIP3    H139308   3.631   6.780  15.700  4.1047  0.9796 -2.1654
 5939TIP3    H239309   3.521   6.867  15.643 -0.1121 -0.9254  2.6729
 5940TIP3   OH239310   2.875   3.237   5.819 -0.5034  0.4714 -0.7693
 5940TIP3    H139311   2.797   3.288   5.796 -0.8187  0.6202  0.5947
 5940TIP3    H239312   2.845   3.146   5.814 -1.0957  0.5579  0.8539
 5941TIP3   OH239313   2.384   6.593  14.556  0.1768 -0.6812 -0.6179
 5941TIP3    H139314   2.307   6.649  14.553 -0.6417 -1.8071 -0.6159
 5941TIP3    H239315   2.397   6.575  14.649  2.0326  1.6684 -0.3635
 5942TIP3   OH239316   2.028   1.642  16.473  0.1075 -0.2314 -0.0590
 5942TIP3    H139317   2.062   1.648  16.563  2.9841 -2.6937 -0.9064
 5942TIP3    H239318   2.033   1.732  16.440  1.6719  0.2141  1.3133
 5943TIP3   OH239319   3.788   4.575  13.447 -0.5336 -0.4076  0.4240
 5943TIP3    H139320   3.795   4.533  13.532 -2.3017 -0.7689  0.4115
 5943TIP3    H239321   3.694   4.585  13.433 -0.2199  0.8256 -0.9091
 5944TIP3   OH239322   2.409   2.041   3.990  0.0792  0.6656 -0.2511
 5944TIP3    H139323   2.326   1.995   4.003  0.3470  0.3020  0.2094
 5944TIP3    H239324   2.390   2.131   4.017  0.1747  0.2916  1.1213
 5945TIP3   OH239325   6.604   1.535   3.688 -0.1036 -0.6018 -0.1376
 5945TIP3    H139326   6.577   1.590   3.761 -0.6475 -1.6277  0.4392
 5945TIP3    H239327   6.698   1.550   3.681  0.7816 -3.8105  3.6064
 5946TIP3   OH239328   3.251   5.799  14.650  0.1890  0.0813  0.2697
 5946TIP3    H139329   3.161   5.829  14.660 -0.3657 -1.5198  0.2179
 5946TIP3    H239330   3.275   5.765  14.736  0.3033 -0.6577 -0.0485
 5947TIP3   OH239331   6.425   0.652   6.213 -0.3064  0.3506 -0.0273
 5947TIP3    H139332   6.516   0.622   6.218  0.1173  1.6702  0.2899
 5947TIP3    H239333   6.398   0.661   6.304 -0.7252  0.0866 -0.1218
 5948TIP3   OH239334   0.423   3.515   1.243 -0.7295  0.0193  0.2917
 5948TIP3    H139335   0.488   3.446   1.230 -1.4025 -0.7532  0.9677
 5948TIP3    H239336   0.348   3.488   1.190 -0.0858  1.4885 -1.3946
 5949TIP3   OH239337   0.888   1.813  11.592 -0.3244  0.2970  0.2315
 5949TIP3    H139338   0.890   1.875  11.664 -4.6897 -0.2413  0.9811
 5949TIP3    H239339   0.941   1.739  11.621  1.4715  1.8656  1.0454
 5950TIP3   OH239340   3.114   1.931  14.905 -0.6228  0.0122 -0.5136
 5950TIP3    H139341   3.046   1.877  14.863 -0.5970  0.3363 -0.9748
 5950TIP3    H239342   3.114   2.012  14.855 -0.6421  0.4311  0.1704
 5951TIP3   OH239343   0.002   4.709   4.905  0.3972  0.1367 -0.5341
 5951TIP3    H139344   0.082   4.761   4.893  1.2233 -0.9353  0.2017
 5951TIP3    H239345  -0.056   4.767   4.954  0.9114  0.7559 -0.6433
 5952TIP3   OH239346   6.167   5.012  14.167 -0.2124  0.5285  0.5799
 5952TIP3    H139347   6.178   4.951  14.240 -0.5463  0.7714  0.8313
 5952TIP3    H239348   6.095   4.975  14.115  1.0242 -0.4812 -0.4827
 5953TIP3   OH239349   6.072   2.051  11.854 -0.3428  0.2718 -0.0323
 5953TIP3    H139350   5.983   2.080  11.873 -0.7098  1.1181 -2.8606
 5953TIP3    H239351   6.061   1.965  11.814  0.4087 -1.4159  3.2283
 5954TIP3   OH239352   1.870   3.145   5.535  0.3450 -0.1816 -0.1244
 5954TIP3    H139353   1.911   3.072   5.490  0.0685  1.1704 -2.6300
 5954TIP3    H239354   1.804   3.178   5.473  0.0630  1.8170  1.1785
 5955TIP3   OH239355   3.581   5.943   0.079 -0.7267  0.7718  0.2424
 5955TIP3    H139356   3.676   5.952   0.091 -0.5482 -0.7834  0.1106
 5955TIP3    H239357   3.548   6.032   0.083  0.7167  1.3087  0.5706
 5956TIP3   OH239358   3.287   3.174   5.029  0.3182 -0.4688  0.5722
 5956TIP3    H139359   3.203   3.201   5.065 -0.0720 -1.6934  0.6305
 5956TIP3    H239360   3.346   3.246   5.047 -1.2856  1.4742 -1.6127
 5957TIP3   OH239361   1.873   1.370  14.818 -0.7106  0.0260 -0.3076
 5957TIP3    H139362   1.964   1.383  14.790 -0.2895 -0.9302  0.5649
 5957TIP3    H239363   1.856   1.277  14.800 -1.4834  0.1728 -0.3549
 5958TIP3   OH239364   0.453   4.429   3.599 -0.3740  0.3240 -0.4239
 5958TIP3    H139365   0.416   4.518   3.594 -2.0612 -0.2379  1.7218
 5958TIP3    H239366   0.405   4.380   3.533 -0.3900  0.6601 -0.6667
 5959TIP3   OH239367   6.079   2.721  10.908  0.1363 -0.1644  0.1146
 5959TIP3    H139368   5.988   2.712  10.878 -0.0418  1.0475  0.2709
 5959TIP3    H239369   6.129   2.666  10.849 -0.5151  0.3291 -0.9067
 5960TIP3   OH239370   2.108   4.697   1.082 -0.2536  0.2790 -0.1592
 5960TIP3    H139371   2.160   4.624   1.048 -0.7871 -0.9344  1.5663
 5960TIP3    H239372   2.021   4.660   1.095 -0.2141  0.8555  1.9487
 5961TIP3   OH239373   5.978   3.439  13.422 -0.1431  0.7657  0.7456
 5961TIP3    H139374   5.987   3.401  13.335 -3.7791 -0.2796  0.7624
 5961TIP3    H239375   6.067   3.467  13.445  1.8281 -3.3560 -1.2825
 5962TIP3   OH239376   2.307   5.966   1.061 -0.7196 -0.3273  0.0854
 5962TIP3    H139377   2.241   5.901   1.037  0.3832 -0.4689 -2.7740
 5962TIP3    H239378   2.386   5.914   1.076 -0.6119  0.0789  0.9053
 5963TIP3   OH239379   3.769   4.225   4.323  0.6987 -0.4382 -0.5397
 5963TIP3    H139380   3.725   4.227   4.237  0.1531  1.0601 -0.2415
 5963TIP3    H239381   3.856   4.261   4.306  0.7762 -0.6302 -0.5545
 5964TIP3   OH239382   0.861   3.844  16.122  0.4641 -0.2297 -0.0922
 5964TIP3    H139383   0.814   3.920  16.154  0.0645 -0.5278  0.0334
 5964TIP3    H239384   0.916   3.817  16.196  1.3075  0.4997 -0.4545
 5965TIP3   OH239385   0.143   6.589  14.817  0.4808 -0.0653  0.0708
 5965TIP3    H139386   0.051   6.565  14.803 -0.0563  1.9043  0.0065
 5965TIP3    H239387   0.151   6.676  14.778  2.5361 -0.4511 -0.4481
 5966TIP3   OH239388   5.310   1.368  10.843  0.2365  0.4289 -0.2758
 5966TIP3    H139389   5.382   1.305  10.848  0.0427  0.1888 -0.4883
 5966TIP3    H239390   5.231   1.316  10.861  0.0339  0.5299 -0.8539
 5967TIP3   OH239391   1.417   5.950   0.768  0.5751  0.0919  0.4968
 5967TIP3    H139392   1.360   5.878   0.794 -0.7320  0.3103 -1.5633
 5967TIP3    H239393   1.414   6.011   0.842  0.2064 -1.0994  1.4831
 5968TIP3   OH239394   2.805   0.984  13.615 -0.2558 -0.3526 -0.2289
 5968TIP3    H139395   2.768   0.970  13.702 -1.5717  3.0227 -0.1385
 5968TIP3    H239396   2.729   1.009  13.562  0.7718 -0.8814 -1.9570
 5969TIP3   OH239397   3.934   2.773   0.615 -0.3976 -0.1952 -0.2785
 5969TIP3    H139398   3.879   2.763   0.537 -0.6750 -2.7120  0.2161
 5969TIP3    H239399   3.994   2.699   0.612 -1.3598 -1.1172  2.6718
 5970TIP3   OH239400   0.040   3.904   2.253  0.8170 -0.4337  0.0185
 5970TIP3    H139401   0.027   3.935   2.163  0.9708 -1.0401 -0.2165
 5970TIP3    H239402   0.078   3.817   2.243  0.0613 -0.8461  0.6612
 5971TIP3   OH239403   2.189   1.897   0.238  0.1223  0.6586 -0.0643
 5971TIP3    H139404   2.243   1.955   0.184  0.3553  0.3316 -0.1808
 5971TIP3    H239405   2.244   1.821   0.254  0.2665  1.0122  1.1392
 5972TIP3   OH239406   6.769   5.435  14.550  0.0324  0.1419 -0.1239
 5972TIP3    H139407   6.797   5.441  14.459 -0.9680 -0.3080 -0.4783
 5972TIP3    H239408   6.689   5.382  14.546  0.1918 -0.1966  1.0591
 5973TIP3   OH239409   5.786   5.158   1.164 -0.2606 -0.0615  0.0865
 5973TIP3    H139410   5.866   5.106   1.170 -0.2107 -0.4486 -3.2245
 5973TIP3    H239411   5.717   5.099   1.194  0.3820 -0.4425  0.8437
 5974TIP3   OH239412   5.100   1.933  16.846 -0.0186  0.5931 -0.7121
 5974TIP3    H139413   5.147   2.008  16.810  0.7236  0.1448 -0.6795
 5974TIP3    H239414   5.009   1.947  16.819  0.0485  1.6891 -0.3968
 5975TIP3   OH239415   6.248   4.583  11.176  0.8874 -0.3425 -0.2959
 5975TIP3    H139416   6.185   4.641  11.219 -0.9905 -0.6760 -2.5023
 5975TIP3    H239417   6.222   4.584  11.084  3.2001 -1.6932 -0.9919
 5976TIP3   OH239418   2.458   1.834   2.469  0.1597  0.1981  0.5824
 5976TIP3    H139419   2.412   1.818   2.386  1.6583  0.9657 -0.4131
 5976TIP3    H239420   2.389   1.827   2.535 -1.2873  0.7244 -0.8215
 5977TIP3   OH239421   2.901   0.222   3.921  0.0109  0.1973  0.2549
 5977TIP3    H139422   2.994   0.215   3.900 -0.5569 -2.6125 -1.6360
 5977TIP3    H239423   2.862   0.264   3.844 -0.3762  0.8336  0.7952
 5978TIP3   OH239424   5.585   2.481  11.299 -0.4544  0.4399  0.5308
 5978TIP3    H139425   5.622   2.501  11.385 -0.5454  1.3232  0.3614
 5978TIP3    H239426   5.660   2.478  11.241 -0.3641 -0.4158  0.6816
 5979TIP3   OH239427   4.973   5.772   4.577 -0.5305  0.6291  0.0944
 5979TIP3    H139428   4.990   5.804   4.666 -0.7239 -3.2484  1.6324
 5979TIP3    H239429   4.878   5.780   4.567 -0.4395  1.6522 -0.0187
 5980TIP3   OH239430   0.496   4.788  14.215  0.4342  0.6608  0.0660
 5980TIP3    H139431   0.445   4.862  14.183 -0.0274  0.0234 -0.6852
 5980TIP3    H239432   0.582   4.799  14.176 -0.3105 -0.4625 -1.9219
 5981TIP3   OH239433   1.877   1.772   2.659 -0.0487 -0.1498 -0.7424
 5981TIP3    H139434   1.956   1.718   2.660  0.5306  0.6942  0.3369
 5981TIP3    H239435   1.825   1.736   2.588  1.6474 -0.2389 -1.9757
 5982TIP3   OH239436   0.064   2.946   2.070  0.6267  0.2777 -0.6125
 5982TIP3    H139437   0.052   2.857   2.105 -0.6709 -0.1333 -2.0379
 5982TIP3    H239438   0.112   2.992   2.139 -1.6965 -0.5445  1.6730
 5983TIP3   OH239439   4.354   5.831   0.565  0.3473  0.0900 -0.4517
 5983TIP3    H139440   4.301   5.794   0.494  2.8941  1.2028 -3.0173
 5983TIP3    H239441   4.411   5.759   0.593 -1.7697 -0.8431  1.7085
 5984TIP3   OH239442   5.108   5.569   6.233  0.3867 -0.0540 -0.4070
 5984TIP3    H139443   5.196   5.531   6.233  1.2630  1.9046  0.2784
 5984TIP3    H239444   5.052   5.501   6.271  1.8475 -0.8165  0.4062
 5985TIP3   OH239445   4.588   1.733   2.749 -0.3721 -0.3188 -0.4080
 5985TIP3    H139446   4.554   1.677   2.818  0.1125  1.1576  1.0436
 5985TIP3    H239447   4.639   1.675   2.693  0.7247 -1.1812  1.4931
 5986TIP3   OH239448   1.954   1.852  13.576  0.4727 -0.1630 -0.6711
 5986TIP3    H139449   2.031   1.869  13.630  1.3095 -4.7763 -0.2654
 5986TIP3    H239450   1.987   1.852  13.486  0.1891  1.5287 -0.7998
 5987TIP3   OH239451   1.093   4.640  16.629  0.8450  0.5762 -0.0034
 5987TIP3    H139452   1.137   4.620  16.712 -1.7381 -1.1107  1.0514
 5987TIP3    H239453   1.029   4.569  16.619 -0.2403  1.8538 -2.4350
 5988TIP3   OH239454   1.087   5.522   2.864 -0.8796 -0.1148 -0.2907
 5988TIP3    H139455   1.055   5.495   2.777  1.2750 -0.9560 -0.8411
 5988TIP3    H239456   1.136   5.602   2.848 -0.0549 -0.5434  0.0618
 5989TIP3   OH239457   4.187   1.150   0.202 -0.6511 -0.1009  0.1079
 5989TIP3    H139458   4.123   1.221   0.199  1.5321  1.8822 -0.6067
 5989TIP3    H239459   4.159   1.096   0.276 -1.4892  2.3265  1.6031
 5990TIP3   OH239460   4.294   3.161  13.270 -0.0640 -0.0245 -0.1924
 5990TIP3    H139461   4.291   3.070  13.242 -0.6420  0.3973 -1.5600
 5990TIP3    H239462   4.385   3.176  13.294  0.2365 -0.6995 -0.8941
 5991TIP3   OH239463   5.043   6.723  11.068  0.6154  0.0521  0.1321
 5991TIP3    H139464   5.108   6.664  11.106  0.7008 -0.4098 -0.7376
 5991TIP3    H239465   4.959   6.684  11.093  0.6616 -1.0135 -1.3003
 5992TIP3   OH239466   2.680   0.018   3.585  0.0377 -0.2431 -0.1314
 5992TIP3    H139467   2.705  -0.008   3.674 -1.4554  0.8988  0.6510
 5992TIP3    H239468   2.664  -0.065   3.540 -2.5849 -0.8006  1.7019
 5993TIP3   OH239469   0.804   1.916   3.350  0.2781 -0.4663  0.3570
 5993TIP3    H139470   0.791   1.826   3.319  0.5549 -0.6214  0.6854
 5993TIP3    H239471   0.873   1.951   3.293  0.5811 -0.6561  0.6035
 5994TIP3   OH239472   2.111   1.572   0.682 -0.0863  0.1387  0.1641
 5994TIP3    H139473   2.202   1.544   0.675 -0.7723 -2.4014  0.8656
 5994TIP3    H239474   2.104   1.609   0.770  0.2062  0.1321  0.1892
 5995TIP3   OH239475   5.557   5.982   5.766 -0.2860 -0.2171 -0.1284
 5995TIP3    H139476   5.551   5.893   5.732 -1.0657 -0.6018  0.9986
 5995TIP3    H239477   5.605   5.974   5.848 -1.8988  0.1304  0.8859
 5996TIP3   OH239478   6.708   5.520   1.346  0.0240 -0.0611  0.0451
 5996TIP3    H139479   6.719   5.586   1.277 -0.9335  0.5936  0.4993
 5996TIP3    H239480   6.615   5.527   1.371 -0.0676 -1.5257  0.1629
 5997TIP3   OH239481   3.517   1.425  16.938  0.1821  0.2994  0.1020
 5997TIP3    H139482   3.475   1.412  16.853 -1.1755  0.4493  0.7346
 5997TIP3    H239483   3.610   1.434  16.917  0.0200 -0.8544 -1.2466
 5998TIP3   OH239484   5.261   0.512   1.734 -0.2664 -0.1766 -0.3109
 5998TIP3    H139485   5.336   0.560   1.699  0.3759 -2.3867 -2.0353
 5998TIP3    H239486   5.195   0.579   1.749  0.9727  1.3925 -1.6561
 5999TIP3   OH239487   4.099   5.250   1.616  0.4307 -0.1868 -0.7593
 5999TIP3    H139488   4.188   5.243   1.651 -0.2923  1.9918  1.6615
 5999TIP3    H239489   4.045   5.269   1.693 -2.0222 -0.6887 -2.3197
 6000TIP3   OH239490   4.285   1.725  15.690 -0.3574  0.4576 -0.2901
 6000TIP3    H139491   4.329   1.782  15.753 -0.1393 -1.1000  1.0157
 6000TIP3    H239492   4.222   1.675  15.744  0.0044 -1.0740 -1.2631
 6001TIP3   OH239493   3.503   5.385   5.444 -0.1838 -0.1712  0.2140
 6001TIP3    H139494   3.445   5.358   5.373  0.6154 -1.1842 -0.0577
 6001TIP3    H239495   3.443   5.410   5.515 -0.9754  0.7302 -0.7633
 6002TIP3   OH239496   5.776   1.152   1.948  0.3222 -0.1002  0.3579
 6002TIP3    H139497   5.759   1.075   1.895  1.2405  0.4270 -0.7079
 6002TIP3    H239498   5.796   1.117   2.035 -0.4580 -0.9926  0.1918
 6003TIP3   OH239499   1.958   3.092  17.251 -0.2496 -0.0946  0.8067
 6003TIP3    H139500   2.023   3.025  17.273  0.6799 -0.4853 -2.9162
 6003TIP3    H239501   2.004   3.175  17.260  0.7039 -0.3501 -1.4218
 6004TIP3   OH239502   1.683   3.716  17.024  1.4321 -0.1019 -0.4645
 6004TIP3    H139503   1.682   3.626  16.991 -1.8252  0.6775 -2.7165
 6004TIP3    H239504   1.618   3.717  17.093  0.6014  0.7920 -1.2425
 6005TIP3   OH239505   2.065   4.942   4.030  0.8769  0.1738 -0.0912
 6005TIP3    H139506   2.104   4.935   3.943 -0.2389  1.7918 -0.7401
 6005TIP3    H239507   2.005   5.016   4.024 -1.4435 -1.5084  1.1949
 6006TIP3   OH239508   3.396   0.639   3.028 -0.1341 -0.1461  0.3456
 6006TIP3    H139509   3.313   0.636   2.982  0.8040  1.0092 -1.4817
 6006TIP3    H239510   3.373   0.640   3.121 -2.1345  0.0277 -0.1495
 6007TIP3   OH239511   3.005   2.262  14.557  0.1557  0.0829 -0.1345
 6007TIP3    H139512   2.922   2.260  14.509 -0.2871 -0.5209  0.6332
 6007TIP3    H239513   3.071   2.239  14.493 -0.3096  0.2424 -0.6804
 6008TIP3   OH239514   0.921   0.719  13.441  0.0477 -0.4150  0.3383
 6008TIP3    H139515   0.843   0.683  13.400  0.1181 -1.2600  0.9307
 6008TIP3    H239516   0.992   0.664  13.410  0.2898 -0.1743  0.4674
 6009TIP3   OH239517   1.275   4.203   2.557 -0.1197 -0.2086 -0.1922
 6009TIP3    H139518   1.212   4.225   2.489  2.1564 -1.2084 -2.7119
 6009TIP3    H239519   1.357   4.188   2.510  2.0489  1.1830  2.9941
 6010TIP3   OH239520   0.538   2.938   0.067  0.1816 -0.2818 -0.3952
 6010TIP3    H139521   0.482   2.952  -0.010 -0.9035  1.7906  0.7198
 6010TIP3    H239522   0.621   2.981   0.045  0.4182 -1.0202 -0.9811
 6011TIP3   OH239523   0.167   4.527  12.839 -0.0147 -0.1532 -0.2044
 6011TIP3    H139524   0.109   4.471  12.788  0.7267 -0.8342 -0.3147
 6011TIP3    H239525   0.111   4.563  12.908 -0.2295 -2.0213  0.6222
 6012TIP3   OH239526   2.391   2.227  14.605  0.0967  0.3487 -0.3503
 6012TIP3    H139527   2.470   2.264  14.645 -0.9162  3.2137 -0.8590
 6012TIP3    H239528   2.418   2.202  14.517  0.6510  0.6126 -0.2589
 6013TIP3   OH239529   0.704   2.068  14.936  0.5141 -0.1673  0.3111
 6013TIP3    H139530   0.749   2.122  15.001  1.3159  1.0930 -1.2393
 6013TIP3    H239531   0.621   2.044  14.977  1.3934 -0.1702  2.1322
 6014TIP3   OH239532   6.136   3.568  14.939 -0.5495  0.6862 -0.3068
 6014TIP3    H139533   6.098   3.515  15.009 -1.5588  0.8651 -0.7082
 6014TIP3    H239534   6.222   3.593  14.973  0.0505 -1.3820 -0.1975
 6015TIP3   OH239535   0.633   4.691  15.166 -0.0997  0.3214 -0.1995
 6015TIP3    H139536   0.721   4.654  15.179  0.5540  2.2705  1.1060
 6015TIP3    H239537   0.592   4.684  15.252 -0.6688  0.8891 -0.4254
 6016TIP3   OH239538   0.981   4.962   1.262  0.6785  0.2996  0.5234
 6016TIP3    H139539   1.067   5.004   1.267  1.0453 -0.5895  2.1580
 6016TIP3    H239540   0.937   4.987   1.343 -0.0202 -0.4835  0.3931
 6017TIP3   OH239541   3.071   5.280   1.037 -0.0328  0.0033  0.7466
 6017TIP3    H139542   3.053   5.306   0.947  0.1402  1.3990  1.0979
 6017TIP3    H239543   3.164   5.255   1.036  0.0595  0.3388  0.5970
 6018TIP3   OH239544   5.437   2.885   1.622 -0.2618  0.1094 -0.0548
 6018TIP3    H139545   5.401   2.805   1.660  0.4021 -0.4053 -0.5013
 6018TIP3    H239546   5.401   2.956   1.676  0.0074 -0.5532  1.0172
 6019TIP3   OH239547   6.455   6.023  12.838 -0.1369  0.2184  0.0796
 6019TIP3    H139548   6.398   5.946  12.844 -0.2803  0.4496  1.9691
 6019TIP3    H239549   6.430   6.065  12.756  0.3307 -2.0423 -1.2625
 6020TIP3   OH239550   4.555   4.422  10.733  0.2981  0.0525  0.2755
 6020TIP3    H139551   4.463   4.445  10.726  0.7651  2.2323  0.9228
 6020TIP3    H239552   4.579   4.446  10.823  1.4710 -0.6457  0.1685
 6021TIP3   OH239553   3.294   4.856  14.894  0.2832  0.3387 -0.0228
 6021TIP3    H139554   3.283   4.831  14.802  0.8878 -0.4621  0.1130
 6021TIP3    H239555   3.210   4.834  14.935  0.0889  0.4867 -0.3361
 6022TIP3   OH239556   5.305   2.790   4.114  0.2926 -0.7006  0.1403
 6022TIP3    H139557   5.384   2.780   4.168  1.2065 -1.2174 -1.2740
 6022TIP3    H239558   5.319   2.870   4.065 -2.3928  2.0884  3.6751
 6023TIP3   OH239559   4.077   3.921  14.716  0.3143  0.1502  0.2863
 6023TIP3    H139560   4.103   4.011  14.737  1.4330 -0.6597  2.5168
 6023TIP3    H239561   4.159   3.876  14.697  0.1729 -1.2882  2.8412
 6024TIP3   OH239562   2.998   6.726  14.260 -0.3655  0.0272 -0.6079
 6024TIP3    H139563   3.038   6.788  14.320 -0.4318 -0.8984  0.4077
 6024TIP3    H239564   2.917   6.769  14.231 -0.9666 -0.0454  0.9452
 6025TIP3   OH239565   2.501   3.577   3.143 -0.1032 -0.9306  0.1775
 6025TIP3    H139566   2.537   3.489   3.147 -1.8914 -1.6953 -0.1528
 6025TIP3    H239567   2.483   3.592   3.050 -0.9131 -0.6843  0.3674
 6026TIP3   OH239568   1.968   3.184   2.847  0.8361  0.3351  0.9406
 6026TIP3    H139569   1.934   3.099   2.877  1.6869 -0.1676  0.4910
 6026TIP3    H239570   2.050   3.196   2.895  1.9916 -0.2727 -0.8201
 6027TIP3   OH239571   4.373   1.964  13.810 -0.1942  0.4722 -0.2168
 6027TIP3    H139572   4.327   2.041  13.845  0.4344  0.6096  0.3260
 6027TIP3    H239573   4.308   1.894  13.814 -1.5141  1.4666 -2.8485
 6028TIP3   OH239574   3.121   6.707   4.824  0.0044  0.3100  0.0609
 6028TIP3    H139575   3.102   6.613   4.832  0.6261  0.0280 -1.7092
 6028TIP3    H239576   3.073   6.735   4.747  0.5890  1.2515  0.0307
 6029TIP3   OH239577   5.649   6.178   2.768  0.1453  0.1675 -0.4386
 6029TIP3    H139578   5.571   6.199   2.820  0.6506  0.3715  0.2558
 6029TIP3    H239579   5.702   6.258   2.772  0.4700 -0.0293 -0.7586
 6030TIP3   OH239580   2.659   3.011  15.475 -0.0218  0.3781 -0.0561
 6030TIP3    H139581   2.707   2.960  15.541 -1.5293 -1.3089 -0.2117
 6030TIP3    H239582   2.579   3.037  15.519  0.2208  1.6470 -0.3560
 6031TIP3   OH239583   5.757   4.602  11.455  0.2928  0.3313 -0.4565
 6031TIP3    H139584   5.845   4.600  11.418  0.4122 -1.0977 -0.1223
 6031TIP3    H239585   5.703   4.555  11.391 -0.1204  0.7006 -0.3845
 6032TIP3   OH239586   2.467   3.551   0.787  0.1667  0.1952 -0.3607
 6032TIP3    H139587   2.510   3.555   0.872  0.0372  0.9647 -0.3210
 6032TIP3    H239588   2.498   3.629   0.741  2.1080 -1.4876 -1.9456
 6033TIP3   OH239589   3.383   1.988  14.033  0.5355 -0.3479  0.6299
 6033TIP3    H139590   3.312   2.024  13.981  1.2184  1.2089  0.7483
 6033TIP3    H239591   3.460   1.995  13.977  0.7301 -1.3990  0.7496
 6034TIP3   OH239592   5.870   3.322   5.949  0.5836 -0.4493  0.6952
 6034TIP3    H139593   5.894   3.262   6.020  0.3105 -0.0838  1.0987
 6034TIP3    H239594   5.819   3.391   5.992 -2.5268 -1.9836 -0.3290
 6035TIP3   OH239595   2.146   4.410  11.935  0.0102  0.0088  0.9831
 6035TIP3    H139596   2.060   4.384  11.902 -0.0512  0.7049  0.5761
 6035TIP3    H239597   2.130   4.491  11.985  0.7122  1.3376 -0.8692
 6036TIP3   OH239598   4.656   2.607  15.549  0.1426  0.3282 -0.5479
 6036TIP3    H139599   4.716   2.676  15.521  1.3880 -1.5510 -2.7049
 6036TIP3    H239600   4.630   2.563  15.467 -3.0151  0.1373  0.4754
 6037TIP3   OH239601   5.797   6.286  13.888 -0.4872 -0.9756  0.3272
 6037TIP3    H139602   5.858   6.359  13.897  0.8984 -1.8916 -1.1233
 6037TIP3    H239603   5.853   6.211  13.866 -1.8760 -2.4719  1.7616
 6038TIP3   OH239604   2.874   3.616   2.303 -0.4900 -0.0742 -0.6106
 6038TIP3    H139605   2.829   3.674   2.364  1.0437  0.2119  0.2764
 6038TIP3    H239606   2.935   3.673   2.256  0.7514 -0.8740  0.0007
 6039TIP3   OH239607   3.693   0.669  16.259 -0.1805 -0.0606 -0.0406
 6039TIP3    H139608   3.659   0.589  16.299 -1.0293 -0.2722 -1.1376
 6039TIP3    H239609   3.719   0.642  16.171  0.2569  0.7063 -0.1510
 6040TIP3   OH239610   1.703   2.879   4.280  0.0883 -0.4738  0.6629
 6040TIP3    H139611   1.698   2.912   4.369  0.6976  0.0631  0.4930
 6040TIP3    H239612   1.729   2.954   4.227 -4.4983  0.3498 -0.6233
 6041TIP3   OH239613   4.225   3.559   5.387 -0.1905 -0.0819 -0.3809
 6041TIP3    H139614   4.258   3.484   5.436 -1.6750 -0.1508  0.5216
 6041TIP3    H239615   4.150   3.525   5.338 -0.9875  0.8517  0.1761
 6042TIP3   OH239616   0.455   2.392   1.274 -0.3694 -0.2883  0.7134
 6042TIP3    H139617   0.501   2.475   1.287  1.2393 -0.8487 -1.2460
 6042TIP3    H239618   0.523   2.325   1.283 -0.8909 -1.1594 -1.6792
 6043TIP3   OH239619   0.971   6.556   0.582  0.0756 -0.4950 -0.0873
 6043TIP3    H139620   0.970   6.569   0.677  0.5266 -1.9218  0.1190
 6043TIP3    H239621   1.053   6.596   0.553 -0.2797  0.3529  0.0512
 6044TIP3   OH239622   0.396   3.900   2.364 -0.3345  0.2791  0.2404
 6044TIP3    H139623   0.391   3.983   2.316 -0.3138 -0.7725 -1.6302
 6044TIP3    H239624   0.354   3.836   2.306 -1.1038 -0.8864  2.0029
 6045TIP3   OH239625   5.427   3.816   0.835 -0.0323 -0.4037 -0.0675
 6045TIP3    H139626   5.383   3.778   0.759 -0.3771 -2.3853  1.0707
 6045TIP3    H239627   5.520   3.815   0.811 -0.2006 -0.3690 -0.7308
 6046TIP3   OH239628   5.770   3.937  16.067 -0.3211 -0.1206  0.2479
 6046TIP3    H139629   5.721   3.965  15.990  3.6267  4.7183 -0.7466
 6046TIP3    H239630   5.709   3.951  16.140 -1.7862  1.9734 -1.2987
 6047TIP3   OH239631   4.489   0.276   0.388  0.4638  0.1687 -0.0673
 6047TIP3    H139632   4.475   0.252   0.297  0.0290  1.4448 -0.3373
 6047TIP3    H239633   4.584   0.279   0.398  0.5080  0.2038 -0.5213
 6048TIP3   OH239634   2.631   3.345   3.180  0.5268  0.3198  0.4751
 6048TIP3    H139635   2.725   3.327   3.180  0.1939 -1.5408 -0.7956
 6048TIP3    H239636   2.591   3.266   3.145 -1.8753 -0.4280  4.6720
 6049TIP3   OH239637   3.953   0.716  12.255  0.3314 -0.6403  0.2564
 6049TIP3    H139638   3.892   0.648  12.226  0.9643 -0.8139 -0.6944
 6049TIP3    H239639   3.902   0.771  12.314 -0.0892 -2.1641  1.3581
 6050TIP3   OH239640   0.938   6.733   0.002  0.4281 -0.5463  0.0874
 6050TIP3    H139641   0.846   6.744  -0.022  0.4915  0.1857  0.1641
 6050TIP3    H239642   0.938   6.662   0.066 -0.0305 -0.8405 -0.2390
 6051TIP3   OH239643   5.767   4.013  12.458 -0.6875 -0.2821  0.1459
 6051TIP3    H139644   5.850   4.027  12.411 -1.1130 -1.3549 -0.9637
 6051TIP3    H239645   5.750   3.919  12.449 -1.1741 -0.3695  1.8236
 6052TIP3   OH239646   4.703   5.333   0.664  0.1565  0.0926  0.1541
 6052TIP3    H139647   4.610   5.348   0.683  0.1787 -0.4069  0.6660
 6052TIP3    H239648   4.705   5.248   0.619  0.2820  0.4988 -0.6162
 6053TIP3   OH239649   6.035   6.331   0.125  0.1728  0.6196 -0.5836
 6053TIP3    H139650   5.970   6.271   0.089  0.6185  0.1141 -0.5427
 6053TIP3    H239651   5.996   6.418   0.113  0.1753  0.4286 -1.9739
 6054TIP3   OH239652   5.785   0.850   3.995 -0.4107  0.0359 -0.5699
 6054TIP3    H139653   5.716   0.785   3.984  0.9227 -1.9980  2.4646
 6054TIP3    H239654   5.863   0.810   3.956 -0.1236  0.8417 -0.8508
 6055TIP3   OH239655   2.026   6.644   0.051 -0.3543  0.2401 -0.6760
 6055TIP3    H139656   1.951   6.654   0.110  1.1430 -0.8398  1.4747
 6055TIP3    H239657   2.044   6.550   0.052  2.6476  0.7652  0.9598
 6056TIP3   OH239658   6.265   3.374   3.505  0.4103  0.4624  0.1337
 6056TIP3    H139659   6.303   3.353   3.419 -0.1414  1.2231 -0.2925
 6056TIP3    H239660   6.235   3.464   3.497 -0.3018  0.2952  0.9000
 6057TIP3   OH239661   5.138   5.975   5.359 -0.0083 -0.1701 -0.0219
 6057TIP3    H139662   5.232   5.978   5.375 -0.1426 -0.1933  0.7969
 6057TIP3    H239663   5.127   6.008   5.269  0.6417  1.2341  0.4062
 6058TIP3   OH239664   4.889   5.611  16.950 -0.0493 -0.4098 -0.1131
 6058TIP3    H139665   4.899   5.681  17.015  0.6665 -0.1537 -0.4851
 6058TIP3    H239666   4.975   5.606  16.908 -0.2144 -1.2595 -0.3467
 6059TIP3   OH239667   5.980   1.850  12.357  0.1745  0.3218 -0.3269
 6059TIP3    H139668   5.921   1.920  12.385  0.6167  0.0533  1.3344
 6059TIP3    H239669   5.958   1.776  12.414  2.1633  0.2417  0.3830
 6060TIP3   OH239670   2.369   2.684   2.041  0.0809  0.4423  0.1542
 6060TIP3    H139671   2.277   2.685   2.068  0.2435  1.1033  0.7248
 6060TIP3    H239672   2.416   2.657   2.120  0.3798  0.1409 -0.1278
 6061TIP3   OH239673   6.227   3.845  16.750 -0.0190  0.1589 -0.1974
 6061TIP3    H139674   6.213   3.778  16.683  0.2553 -0.1698  0.0721
 6061TIP3    H239675   6.269   3.917  16.704  0.0353 -0.0099 -0.4109
 6062TIP3   OH239676   2.473   2.012   0.214 -0.1561  0.4512 -0.2147
 6062TIP3    H139677   2.511   2.024   0.301  1.8152  1.5019 -1.1798
 6062TIP3    H239678   2.396   2.069   0.213  0.2864  1.0682  0.5543
 6063TIP3   OH239679   5.876   3.389   3.058  0.3832 -0.6066 -0.0356
 6063TIP3    H139680   5.927   3.469   3.063  1.3177 -1.1151 -1.3561
 6063TIP3    H239681   5.827   3.395   2.976  0.5808 -1.4513 -0.2261
 6064TIP3   OH239682   5.771   5.478  14.286 -0.0918  0.6527 -0.0373
 6064TIP3    H139683   5.689   5.449  14.327  0.8410  0.0915  1.4537
 6064TIP3    H239684   5.827   5.400  14.287  0.5312  1.0843 -0.8920
 6065TIP3   OH239685   2.065   3.397  13.965 -0.3457 -0.2801  0.2058
 6065TIP3    H139686   2.157   3.397  13.938  0.2866 -0.1048  2.3095
 6065TIP3    H239687   2.017   3.374  13.885  1.5516 -0.9771 -0.7633
 6066TIP3   OH239688   6.374   2.054  16.643 -0.1081 -0.6710  0.0158
 6066TIP3    H139689   6.451   2.087  16.690 -1.2843 -1.6204  2.7324
 6066TIP3    H239690   6.311   2.032  16.712 -2.0800 -1.7597 -2.0453
 6067TIP3   OH239691   2.024   5.422  11.495  0.0912  0.0498 -0.2190
 6067TIP3    H139692   2.050   5.421  11.587 -1.2748  0.6006  0.1808
 6067TIP3    H239693   1.997   5.513  11.478  0.2874 -0.0588 -1.1417
 6068TIP3   OH239694   3.459   6.083  16.937 -0.5993 -0.2225  0.1490
 6068TIP3    H139695   3.553   6.101  16.941 -0.8484  0.8238  1.2754
 6068TIP3    H239696   3.444   6.017  17.005 -0.7331 -0.2024  0.1382
 6069TIP3   OH239697   3.325   4.279   3.579 -0.2997 -0.4104  0.1003
 6069TIP3    H139698   3.269   4.318   3.510  0.5514 -1.8553 -1.4425
 6069TIP3    H239699   3.382   4.218   3.532  2.1168  0.5029  1.7524
 6070TIP3   OH239700   2.131   1.458  11.023 -0.0561 -0.0934 -0.3978
 6070TIP3    H139701   2.067   1.511  10.976 -0.2802  0.5300  0.5934
 6070TIP3    H239702   2.098   1.368  11.014 -1.9386  0.3699  1.4071
 6071TIP3   OH239703   3.181   4.628   4.423 -0.1699  0.0250 -0.1706
 6071TIP3    H139704   3.222   4.560   4.477  0.7583 -0.1973 -1.1297
 6071TIP3    H239705   3.109   4.661   4.477  1.4565  0.6593  1.7089
 6072TIP3   OH239706   4.392   3.590  14.552  0.1070 -0.2856 -0.5739
 6072TIP3    H139707   4.379   3.506  14.597 -0.0824  0.4178  0.7191
 6072TIP3    H239708   4.455   3.637  14.608 -0.0757  0.5816 -1.0937
 6073TIP3   OH239709   4.724   1.986  12.148 -0.0921 -0.0087 -0.0501
 6073TIP3    H139710   4.691   2.066  12.107  1.8632  0.0184 -1.6462
 6073TIP3    H239711   4.820   1.996  12.147  0.1204 -1.4964  1.5376
 6074TIP3   OH239712   3.632   5.646   1.715 -0.0838  0.1877 -0.3813
 6074TIP3    H139713   3.707   5.697   1.685 -0.9528  0.8904 -1.4367
 6074TIP3    H239714   3.618   5.675   1.806  0.6831  0.3329 -0.3108
 6075TIP3   OH239715   0.531   1.920   6.344 -0.7263 -0.0877 -0.1531
 6075TIP3    H139716   0.476   1.998   6.337 -0.7467  0.1371  2.0191
 6075TIP3    H239717   0.621   1.955   6.350 -0.8498 -0.0973  2.3901
 6076TIP3   OH239718   5.959   2.715   4.936 -0.6429  0.3029 -0.2703
 6076TIP3    H139719   5.893   2.676   4.993 -1.0811  0.7609 -0.4642
 6076TIP3    H239720   5.909   2.762   4.869 -0.1218  0.5872 -0.4635
 6077TIP3   OH239721   3.594   1.987  11.565  0.1005  0.1265 -0.7746
 6077TIP3    H139722   3.658   1.974  11.635 -0.2830  1.2532 -0.2145
 6077TIP3    H239723   3.645   2.025  11.493 -0.1548  2.2134  0.1078
 6078TIP3   OH239724   0.565   4.579   4.048  0.3275 -0.0202 -0.2688
 6078TIP3    H139725   0.606   4.597   4.132  0.1315  2.7142 -0.7201
 6078TIP3    H239726   0.637   4.555   3.990  0.6315 -0.3875  0.2556
 6079TIP3   OH239727   4.681   4.499   1.214  0.1070 -0.2873 -0.0851
 6079TIP3    H139728   4.612   4.555   1.251  0.4459 -1.2107  2.0001
 6079TIP3    H239729   4.753   4.506   1.277  0.5483 -2.2029 -0.3691
 6080TIP3   OH239730   1.876   5.476   4.875  0.0174 -0.0918 -0.0921
 6080TIP3    H139731   1.840   5.432   4.797 -3.0816  3.0940 -0.6295
 6080TIP3    H239732   1.821   5.445   4.947  0.9344 -0.7426  0.3315
 6081TIP3   OH239733   1.995   5.062   0.825  0.1435 -0.1024 -0.3751
 6081TIP3    H139734   2.012   5.094   0.914  0.2682 -0.0320 -0.4249
 6081TIP3    H239735   2.067   5.097   0.773  0.3042 -0.4965 -0.4183
 6082TIP3   OH239736   0.344   6.608  14.024  0.2476  0.1399 -0.2845
 6082TIP3    H139737   0.340   6.662  13.945 -0.0001  0.5456  0.0012
 6082TIP3    H239738   0.429   6.627  14.062 -0.0246  0.6817  0.0605
 6083TIP3   OH239739   4.615   6.365   4.246 -0.0579 -0.2586  0.1224
 6083TIP3    H139740   4.704   6.390   4.272  0.6774 -1.0943 -1.5439
 6083TIP3    H239741   4.620   6.352   4.151 -2.1443  0.4182 -0.1071
 6084TIP3   OH239742   2.853   5.289  14.678 -0.3652 -0.4284  0.0893
 6084TIP3    H139743   2.823   5.228  14.610 -1.8021 -1.4537  1.6218
 6084TIP3    H239744   2.790   5.361  14.674  1.3831  1.0589 -1.7821
 6085TIP3   OH239745   6.324   6.809   6.175  0.2556 -0.6315 -0.1087
 6085TIP3    H139746   6.357   6.813   6.085 -1.1332 -0.3921 -0.6167
 6085TIP3    H239747   6.372   6.878   6.221  0.8104 -0.6022 -0.7234
 6086TIP3   OH239748   6.162   2.532   0.632  0.1672  0.1897  0.0948
 6086TIP3    H139749   6.211   2.536   0.550  1.4456 -0.5461  0.8041
 6086TIP3    H239750   6.097   2.601   0.624  1.6082  1.4925 -0.6964
 6087TIP3   OH239751   1.949   3.078   1.940  0.2162  0.0971  0.3708
 6087TIP3    H139752   1.941   3.084   2.036  0.7736 -0.0872  0.4288
 6087TIP3    H239753   2.043   3.085   1.923  0.1849 -0.5766 -0.1131
 6088TIP3   OH239754   5.521   6.139  11.318  0.4535  0.2662  0.6603
 6088TIP3    H139755   5.427   6.143  11.303  0.9777  1.6707 -2.7037
 6088TIP3    H239756   5.539   6.047  11.336 -1.1606 -0.5644 -1.8070
 6089TIP3   OH239757   3.878   1.769   3.486 -0.1555  0.0208 -0.1872
 6089TIP3    H139758   3.791   1.741   3.459 -0.5332  0.8147  0.1909
 6089TIP3    H239759   3.936   1.699   3.456 -0.8376 -0.1943 -1.0322
 6090TIP3   OH239760   5.855   2.388  15.907  0.0516 -0.3825 -0.0192
 6090TIP3    H139761   5.872   2.432  15.824  1.2015 -1.8830 -0.5958
 6090TIP3    H239762   5.822   2.301  15.883 -1.9803  0.0223  1.1039
 6091TIP3   OH239763   0.018   1.760   2.184 -0.4992 -0.0625  0.1444
 6091TIP3    H139764   0.070   1.685   2.213 -2.7341 -1.6242  0.2356
 6091TIP3    H239765  -0.072   1.739   2.211 -0.9980  3.1767  1.1865
 6092TIP3   OH239766   4.720   5.811  13.224 -0.5630 -0.1119  0.1247
 6092TIP3    H139767   4.694   5.791  13.134 -2.1813  0.6084  0.4223
 6092TIP3    H239768   4.776   5.888  13.217  0.3658 -0.8199 -0.3770
 6093TIP3   OH239769   0.733   5.039  13.594 -0.4883 -0.0402 -0.2384
 6093TIP3    H139770   0.715   5.007  13.683 -0.9784 -2.7732 -1.2633
 6093TIP3    H239771   0.656   5.091  13.571 -2.1033 -2.4145 -0.4100
 6094TIP3   OH239772   5.913   6.144  13.459 -0.7229 -0.2925  0.0345
 6094TIP3    H139773   5.998   6.108  13.488 -1.4266 -1.3271  0.8655
 6094TIP3    H239774   5.897   6.218  13.518 -1.2373 -1.2036  1.0502
 6095TIP3   OH239775   0.986   2.917   4.957 -0.0866  0.4947 -0.6763
 6095TIP3    H139776   0.975   2.853   4.886  0.4883  1.0880 -1.3087
 6095TIP3    H239777   1.059   2.884   5.008 -1.3814 -0.6793  0.4814
 6096TIP3   OH239778   1.757   3.854  15.726 -0.6386  0.3108  0.2202
 6096TIP3    H139779   1.797   3.939  15.704 -1.6492  0.8186  0.2892
 6096TIP3    H239780   1.731   3.864  15.818  1.1343 -0.8347  0.8687
 6097TIP3   OH239781   3.744   3.476   5.618 -0.0425 -0.2344 -0.1968
 6097TIP3    H139782   3.711   3.393   5.653 -1.7063  0.3444 -0.3421
 6097TIP3    H239783   3.814   3.501   5.677 -0.4776 -1.0451  0.6730
 6098TIP3   OH239784   3.633   2.224  15.054  0.1626  0.2380  0.1666
 6098TIP3    H139785   3.707   2.220  15.115  0.4232  1.2903 -0.0695
 6098TIP3    H239786   3.673   2.237  14.968 -0.1197 -2.8761 -0.4897
 6099TIP3   OH239787   1.769   1.167   3.025 -0.1946 -0.5445 -0.9198
 6099TIP3    H139788   1.727   1.243   3.066 -1.0546 -0.7483 -1.4026
 6099TIP3    H239789   1.802   1.115   3.099  1.7553  1.0436 -0.6452
 6100TIP3   OH239790   5.211   5.525  15.355  0.1255  0.3338  0.0369
 6100TIP3    H139791   5.268   5.579  15.409 -0.0298  0.3470  0.1882
 6100TIP3    H239792   5.185   5.453  15.412 -0.8818  0.9052  0.3260
 6101TIP3   OH239793   6.640   4.126  17.174  0.0714  0.1996  0.0891
 6101TIP3    H139794   6.627   4.122  17.269  0.7323  1.6918  0.2541
 6101TIP3    H239795   6.612   4.040  17.142  0.6580 -0.6150  1.7310
 6102TIP3   OH239796   1.036   6.021  12.398 -0.2381  0.0754 -0.2398
 6102TIP3    H139797   0.973   6.006  12.327 -0.9703  0.5596  0.3055
 6102TIP3    H239798   1.119   5.988  12.363 -0.6858 -0.1092 -1.1513
 6103TIP3   OH239799   6.345   0.310   2.406 -0.5783  0.6077 -0.3783
 6103TIP3    H139800   6.392   0.372   2.462  0.8769  0.0037 -0.8868
 6103TIP3    H239801   6.347   0.350   2.319  0.0351  0.0611 -0.6312
 6104TIP3   OH239802   4.364   6.575   1.221  0.0236 -0.7871  0.4129
 6104TIP3    H139803   4.439   6.557   1.164 -0.4666  3.3569 -1.7267
 6104TIP3    H239804   4.391   6.652   1.272 -1.9628 -0.5889  1.1916
 6105TIP3   OH239805   2.227   2.638   1.317  0.0445  0.0888 -0.4256
 6105TIP3    H139806   2.304   2.587   1.290  0.1455  0.1022 -0.1694
 6105TIP3    H239807   2.261   2.727   1.329  0.2716 -0.1764  0.9738
 6106TIP3   OH239808   3.851   5.757   1.291  0.2225  0.0124  0.5062
 6106TIP3    H139809   3.855   5.825   1.358  0.5878  0.8360 -0.3468
 6106TIP3    H239810   3.758   5.732   1.288  0.1899  0.0496  1.2442
 6107TIP3   OH239811   4.617   5.146  15.261 -0.1999 -0.6327 -0.2725
 6107TIP3    H139812   4.655   5.098  15.188 -0.3532  0.9970 -1.4453
 6107TIP3    H239813   4.523   5.125  15.257 -0.2304 -0.4210 -0.6318
 6108TIP3   OH239814   6.426   2.376  16.094  0.1455 -0.2457  0.2099
 6108TIP3    H139815   6.345   2.400  16.050  0.3530  0.7433  0.3458
 6108TIP3    H239816   6.491   2.436  16.059  1.1403 -1.9881 -0.9771
 6109TIP3   OH239817   0.575   5.767  12.405 -0.0940 -0.2637  0.1234
 6109TIP3    H139818   0.533   5.815  12.477 -0.9693 -1.0507  0.1486
 6109TIP3    H239819   0.502   5.741  12.348  0.4561 -0.8653 -0.3059
 6110TIP3   OH239820   4.917   0.767   3.374 -0.0904 -0.1898  0.2592
 6110TIP3    H139821   4.853   0.699   3.352 -0.7855  0.8062 -0.8580
 6110TIP3    H239822   4.920   0.823   3.297 -0.1638  1.5333  1.4729
 6111TIP3   OH239823   2.791   3.319  11.980 -0.7760 -0.1999 -0.7886
 6111TIP3    H139824   2.758   3.379  12.047 -0.7406 -2.8236  1.7016
 6111TIP3    H239825   2.840   3.375  11.919 -0.6738  2.2609  1.4655
 6112TIP3   OH239826   4.509   6.212  12.806  0.9363  0.3072  0.0788
 6112TIP3    H139827   4.517   6.141  12.742 -2.1021 -0.2628  0.2409
 6112TIP3    H239828   4.504   6.291  12.752  3.2243  0.3403 -0.1455
 6113TIP3   OH239829   5.056   6.660  12.455 -0.1026 -0.0627  0.4406
 6113TIP3    H139830   5.074   6.748  12.422  1.0597 -0.5058 -0.1275
 6113TIP3    H239831   4.976   6.633  12.408 -0.6120  0.7734  0.8081
 6114TIP3   OH239832   4.670   3.451  14.320 -0.2183  0.1076  0.7973
 6114TIP3    H139833   4.594   3.393  14.332 -2.2295  2.5223  0.1574
 6114TIP3    H239834   4.633   3.532  14.287  2.4767  1.9757  2.1497
 6115TIP3   OH239835   3.290   5.528   4.485 -0.1394 -0.1357  0.0433
 6115TIP3    H139836   3.250   5.441   4.498  1.3698 -0.8806 -0.2028
 6115TIP3    H239837   3.234   5.570   4.419 -0.5525 -1.1408 -0.2637
 6116TIP3   OH239838   0.378   6.146  12.833  0.1427  0.1254  0.5698
 6116TIP3    H139839   0.411   6.236  12.842  0.7668  0.0919 -1.3294
 6116TIP3    H239840   0.300   6.154  12.779 -0.6269 -0.3136  1.6067
 6117TIP3   OH239841   4.908   0.319   4.763  0.3421 -0.1882  0.3121
 6117TIP3    H139842   4.942   0.313   4.674 -0.4107 -2.0113  0.1374
 6117TIP3    H239843   4.892   0.413   4.776  1.8545  0.2651 -0.9215
 6118TIP3   OH239844   4.714   3.618  16.362  0.1016 -0.1772  0.2595
 6118TIP3    H139845   4.724   3.691  16.424 -1.0742 -0.8009  1.1874
 6118TIP3    H239846   4.621   3.595  16.367  0.0035 -0.2704 -1.7054
 6119TIP3   OH239847   5.859   4.047  12.833 -0.1051  0.2666 -0.3708
 6119TIP3    H139848   5.921   3.996  12.886 -1.3064 -1.8241 -0.8917
 6119TIP3    H239849   5.883   4.138  12.848  0.0218 -0.2943  3.2211
 6120TIP3   OH239850   2.368   6.217  10.953 -0.6048  0.4713 -0.4809
 6120TIP3    H139851   2.341   6.298  10.910  1.6922  1.0733 -0.8609
 6120TIP3    H239852   2.361   6.236  11.047 -1.6783  0.5431 -0.5743
 6121TIP3   OH239853   2.627   5.426  16.440 -0.2595  1.0287 -0.2612
 6121TIP3    H139854   2.632   5.334  16.411 -0.2755  1.3640 -1.3798
 6121TIP3    H239855   2.534   5.448  16.432 -0.1836  1.2808 -0.4590
 6122TIP3   OH239856   3.285   5.813  14.229  0.5816  0.0556  0.1848
 6122TIP3    H139857   3.223   5.741  14.215 -0.6680  1.3535 -1.1078
 6122TIP3    H239858   3.233   5.883  14.267  1.3464  0.9880 -0.4475
 6123TIP3   OH239859   0.419   4.102  15.865  0.5260 -0.1989 -0.3847
 6123TIP3    H139860   0.422   4.187  15.822 -0.1248 -1.6377 -3.3901
 6123TIP3    H239861   0.510   4.071  15.861  0.5379 -0.1605 -0.4196
 6124TIP3   OH239862   1.672   4.083  12.228 -0.3750 -0.4167 -0.1887
 6124TIP3    H139863   1.625   4.068  12.146 -0.1612  0.6465 -0.5235
 6124TIP3    H239864   1.607   4.074  12.296 -0.8306 -0.0452 -0.5736
 6125TIP3   OH239865   0.552   3.424  15.605  0.4376 -0.2755 -0.2912
 6125TIP3    H139866   0.639   3.453  15.633  1.0247 -1.9446 -0.3336
 6125TIP3    H239867   0.491   3.481  15.652  1.5527  1.4369 -0.8631
 6126TIP3   OH239868   2.616   4.531   3.367  0.6986  0.5355 -0.6311
 6126TIP3    H139869   2.547   4.466   3.354  0.6215  0.5105 -0.1101
 6126TIP3    H239870   2.570   4.609   3.398  1.0269  0.1652  0.8030
 6127TIP3   OH239871   1.231   4.427   0.320 -0.1371  0.1257 -0.4589
 6127TIP3    H139872   1.313   4.386   0.294 -0.1760 -0.5843  0.5178
 6127TIP3    H239873   1.177   4.426   0.241 -0.7312 -3.1765 -0.0580
 6128TIP3   OH239874   6.491   3.682  13.970 -0.4222  0.1788  0.1647
 6128TIP3    H139875   6.436   3.755  13.999 -0.4996  0.5228 -0.8477
 6128TIP3    H239876   6.533   3.713  13.890 -1.9257 -1.5400 -1.3376
 6129TIP3   OH239877   5.252   2.176  14.183  0.0158 -0.2756  0.0403
 6129TIP3    H139878   5.315   2.137  14.122 -1.1688 -0.7673 -0.8967
 6129TIP3    H239879   5.198   2.102  14.212  0.4415 -0.0161  1.5574
 6130TIP3   OH239880   0.449   6.319  15.407 -0.2000 -0.0175  0.1445
 6130TIP3    H139881   0.498   6.379  15.351 -1.1813 -0.9971 -1.8120
 6130TIP3    H239882   0.454   6.235  15.361 -0.6827 -0.9564  1.7526
 6131TIP3   OH239883   6.241   4.635   0.093 -0.1308  0.0506  0.1377
 6131TIP3    H139884   6.215   4.549   0.061 -0.2146 -0.0591  0.4952
 6131TIP3    H239885   6.310   4.617   0.158  0.3381  0.2932 -0.2895
 6132TIP3   OH239886   4.164   2.179  14.214 -0.1278 -0.2628  0.1283
 6132TIP3    H139887   4.237   2.241  14.213 -0.8815  0.6329  0.1256
 6132TIP3    H239888   4.190   2.111  14.276 -0.3317  1.3214  1.9675
 6133TIP3   OH239889   0.378   0.210  16.697  0.7347 -0.6061  0.0115
 6133TIP3    H139890   0.357   0.117  16.697  0.1331 -0.4932  1.7253
 6133TIP3    H239891   0.468   0.214  16.665  0.7792 -1.7822 -0.0339
 6134TIP3   OH239892   4.595   3.747  13.267  0.2301  0.5585 -0.1189
 6134TIP3    H139893   4.589   3.722  13.359  2.4584  0.6933  0.1118
 6134TIP3    H239894   4.513   3.718  13.228 -0.5612  0.1078  1.8184
 6135TIP3   OH239895   1.628   2.193  16.308  0.5394 -0.3189  0.6369
 6135TIP3    H139896   1.635   2.288  16.318  1.2035 -0.6268  3.1974
 6135TIP3    H239897   1.538   2.180  16.276 -0.0084  1.0618  1.5630
 6136TIP3   OH239898   5.135   5.828   3.006 -0.3994 -0.0041  0.3392
 6136TIP3    H139899   5.041   5.811   3.013 -0.8156  2.0062 -0.2063
 6136TIP3    H239900   5.157   5.877   3.085 -0.1520  0.9477 -0.3042
 6137TIP3   OH239901   5.624   2.441   3.910 -0.1035 -0.1900  0.5189
 6137TIP3    H139902   5.535   2.452   3.944 -0.5274 -0.6208 -0.4255
 6137TIP3    H239903   5.661   2.369   3.962 -1.1844 -1.7038 -0.7295
 6138TIP3   OH239904   5.678   3.985  11.957  0.1638 -0.2335 -0.8286
 6138TIP3    H139905   5.653   3.899  11.990  1.7604 -0.9396 -1.3876
 6138TIP3    H239906   5.706   4.033  12.035  0.6554 -0.7230 -0.7019
 6139TIP3   OH239907   2.508   2.131  14.365  0.0037  0.8426 -0.0055
 6139TIP3    H139908   2.473   2.166  14.283 -0.2654  0.4849 -0.0409
 6139TIP3    H239909   2.482   2.040  14.366  0.9948  0.5489 -0.0581
 6140TIP3   OH239910   5.085   0.262  12.088  0.0198 -0.2687 -0.1378
 6140TIP3    H139911   5.060   0.348  12.120 -0.8894 -0.2099 -0.9599
 6140TIP3    H239912   5.037   0.253  12.005 -0.8317 -2.0456  0.5311
 6141TIP3   OH239913   2.757   6.372   2.128  0.0566 -0.0951  0.7668
 6141TIP3    H139914   2.826   6.308   2.146  1.1128  0.8178  0.0381
 6141TIP3    H239915   2.801   6.457   2.133 -0.8366  0.4559 -0.5353
 6142TIP3   OH239916   2.912   3.296  10.677 -0.2999  0.5424  0.4949
 6142TIP3    H139917   2.820   3.284  10.701  0.0081  0.2201  1.5726
 6142TIP3    H239918   2.922   3.247  10.595 -1.1770  0.9216  0.1492
 6143TIP3   OH239919   3.704   0.997   1.442  0.0216  0.0461 -0.0440
 6143TIP3    H139920   3.673   0.907   1.432  1.0986 -0.3689  0.2798
 6143TIP3    H239921   3.720   1.026   1.352 -0.4442 -0.0405 -0.1582
 6144TIP3   OH239922   5.230   6.360  14.083  0.8789  0.4820  0.2826
 6144TIP3    H139923   5.200   6.382  13.995  0.9981  0.3924  0.2190
 6144TIP3    H239924   5.154   6.376  14.139  1.6169  3.1803  0.5642
 6145TIP3   OH239925   1.688   2.644   0.507  0.0762  0.0257 -0.3712
 6145TIP3    H139926   1.683   2.720   0.448  0.6766  0.3520 -0.0071
 6145TIP3    H239927   1.742   2.675   0.580  1.0795 -1.0364 -0.6528
 6146TIP3   OH239928   5.283   4.396   5.057  0.4932 -0.0438 -0.2469
 6146TIP3    H139929   5.329   4.387   5.141  0.3486  1.5770  0.0188
 6146TIP3    H239930   5.211   4.457   5.075  1.1548  1.2342 -1.8306
 6147TIP3   OH239931   3.058   3.133   1.838  0.1722 -0.1757 -0.4544
 6147TIP3    H139932   3.136   3.150   1.892 -0.4740  0.1791  0.3894
 6147TIP3    H239933   3.063   3.198   1.768  0.4656  0.0697 -0.2099
 6148TIP3   OH239934   0.976   4.635   3.173  0.1987 -0.0110 -0.0321
 6148TIP3    H139935   0.984   4.690   3.095  0.6188 -1.0480 -0.7266
 6148TIP3    H239936   0.884   4.639   3.196  0.1512  0.6445 -0.3326
 6149TIP3   OH239937   5.629   5.625  13.885  0.1813 -0.5025 -0.1429
 6149TIP3    H139938   5.615   5.594  13.796  1.8518 -2.5466  0.2840
 6149TIP3    H239939   5.675   5.708  13.874  0.1169 -0.5928 -1.1681
 6150TIP3   OH239940   4.633   4.460  15.669  0.2775 -0.1330  0.1771
 6150TIP3    H139941   4.563   4.412  15.624 -0.4481 -0.7567  1.9044
 6150TIP3    H239942   4.714   4.426  15.631 -0.2762 -1.6733  0.3296
 6151TIP3   OH239943   3.970   1.026   1.946 -0.1602 -0.1484  0.3234
 6151TIP3    H139944   3.912   1.047   2.020  0.3451  0.8457  0.4564
 6151TIP3    H239945   4.015   1.109   1.928  2.3503 -1.2519  1.2346
 6152TIP3   OH239946   3.877   4.765   1.257  0.7626 -0.0687 -0.4954
 6152TIP3    H139947   3.962   4.801   1.232  0.4046 -0.0825 -1.7735
 6152TIP3    H239948   3.891   4.729   1.344  1.6593  1.3076 -0.0623
 6153TIP3   OH239949   6.198   4.857  16.624 -0.4644  0.0583  0.6460
 6153TIP3    H139950   6.256   4.911  16.677  1.2317 -0.5337 -0.5628
 6153TIP3    H239951   6.231   4.768  16.636  0.1705 -0.0526 -1.6167
 6154TIP3   OH239952   0.988   0.275   3.125  0.0672 -0.0101 -0.1328
 6154TIP3    H139953   1.051   0.346   3.112 -0.0445  0.0238 -0.5066
 6154TIP3    H239954   0.981   0.266   3.220 -0.2449  0.7640 -0.0812
 6155TIP3   OH239955   4.968   0.041   4.286  0.2239 -0.1723 -0.4662
 6155TIP3    H139956   4.915   0.120   4.277 -1.4431 -1.4685 -2.5828
 6155TIP3    H239957   5.056   0.072   4.303 -0.5769  2.1071 -0.3571
 6156TIP3   OH239958   5.880   4.658  13.700  0.6142  0.0453  0.0893
 6156TIP3    H139959   5.818   4.637  13.770  1.1342 -0.3245  0.4505
 6156TIP3    H239960   5.896   4.575  13.656  0.9314  0.1134  0.0705
 6157TIP3   OH239961   3.449   6.404   1.124  0.8085  0.0228 -0.1848
 6157TIP3    H139962   3.391   6.333   1.096 -0.6411  0.3036  1.9536
 6157TIP3    H239963   3.507   6.363   1.188  0.4915  0.5607  0.4587
 6158TIP3   OH239964   3.187   3.732  12.373 -0.1597 -0.1980  0.4484
 6158TIP3    H139965   3.167   3.807  12.429  2.3195  1.6036 -0.9432
 6158TIP3    H239966   3.266   3.694  12.411  0.4622 -0.0931 -0.7052
 6159TIP3   OH239967   5.108   0.916   4.122  0.6052  0.2733 -0.1845
 6159TIP3    H139968   5.124   0.934   4.214  2.7966  0.1339 -0.5164
 6159TIP3    H239969   5.149   0.831   4.106 -1.5043 -0.6502 -0.8265
 6160TIP3   OH239970   1.428   0.351   2.661 -0.4483 -0.0537  0.3625
 6160TIP3    H139971   1.369   0.421   2.635  0.0210  0.1562 -0.1334
 6160TIP3    H239972   1.393   0.273   2.617  0.1581  0.2390 -0.6526
 6161TIP3   OH239973   4.124   2.654  15.920  0.6188 -0.0307 -0.0588
 6161TIP3    H139974   4.214   2.633  15.946  1.4072  0.0027 -2.5785
 6161TIP3    H239975   4.129   2.667  15.825 -1.9261  0.6799 -0.1376
 6162TIP3   OH239976   2.163   2.890  16.607  0.1796 -0.4544 -0.0124
 6162TIP3    H139977   2.115   2.821  16.560  0.9894 -0.3929 -0.9337
 6162TIP3    H239978   2.192   2.950  16.538 -0.6730  0.9163  0.7976
 6163TIP3   OH239979   0.779   2.696   0.570 -0.0539  0.1936  1.1494
 6163TIP3    H139980   0.693   2.656   0.558 -1.3431  2.6992  1.6240
 6163TIP3    H239981   0.834   2.627   0.606 -1.8866 -1.4277  0.8580
 6164TIP3   OH239982   2.773   4.664   2.470 -0.0371  0.0266  0.1329
 6164TIP3    H139983   2.714   4.659   2.545 -0.7098 -2.6029 -0.5091
 6164TIP3    H239984   2.736   4.733   2.415 -0.7756  0.4874  1.2024
 6165TIP3   OH239985   1.731   3.390   4.616  0.3964  0.0063 -0.0833
 6165TIP3    H139986   1.804   3.440   4.650  0.9035 -0.6113 -0.2438
 6165TIP3    H239987   1.654   3.424   4.662  1.0093 -0.5313  1.3690
 6166TIP3   OH239988   4.704   2.762   4.721  0.3021 -0.2135 -0.1445
 6166TIP3    H139989   4.761   2.808   4.783 -0.1916 -0.5985  0.5928
 6166TIP3    H239990   4.621   2.809   4.726  0.7082  0.7416 -1.6797
 6167TIP3   OH239991   2.544   2.243  12.308 -0.2975 -0.2293 -0.2785
 6167TIP3    H139992   2.514   2.212  12.223  0.2492 -0.5934 -0.3385
 6167TIP3    H239993   2.580   2.165  12.351  0.5642  0.2056 -0.2038
 6168TIP3   OH239994   4.614   2.596   3.138  0.6515  0.3642  0.3605
 6168TIP3    H139995   4.560   2.664   3.177  0.1846  0.2401 -0.0634
 6168TIP3    H239996   4.578   2.514   3.171 -0.2948  0.2152 -0.9934
 6169TIP3   OH239997   6.144   2.925   3.395 -0.7391  0.0534 -0.3646
 6169TIP3    H139998   6.127   2.830   3.393 -0.2534 -0.0128 -1.6078
 6169TIP3    H239999   6.068   2.964   3.352 -1.2184  0.2887  0.6621
 6170TIP3   OH240000   1.753   0.580  12.311  0.3124  0.2729 -0.1577
 6170TIP3    H140001   1.823   0.644  12.324  0.2813  0.1972  0.3700
 6170TIP3    H240002   1.717   0.565  12.398  1.2054 -1.4640 -0.0460
 6171TIP3   OH240003   1.000   5.437   5.931 -0.0989  0.5850  0.1736
 6171TIP3    H140004   0.977   5.502   5.997 -1.0170 -0.1526  0.5769
 6171TIP3    H240005   0.949   5.463   5.854 -0.2693  0.4942  0.2553
 6172TIP3   OH240006   0.660   5.818  16.862 -0.3001  0.3603 -0.3530
 6172TIP3    H140007   0.597   5.874  16.908 -0.4054 -0.4937  0.5673
 6172TIP3    H240008   0.743   5.866  16.868 -0.5984  0.9032 -0.4825
 6173TIP3   OH240009   2.880   1.813   2.125  0.0620 -0.2001  0.0553
 6173TIP3    H140010   2.820   1.881   2.154  1.7422  1.4220 -0.1978
 6173TIP3    H240011   2.906   1.840   2.037  0.8486 -1.0801  0.0089
 6174TIP3   OH240012   3.420   2.576   3.089 -0.1458  0.7351 -0.2620
 6174TIP3    H140013   3.365   2.549   3.015  0.1854  1.0191 -0.6121
 6174TIP3    H240014   3.461   2.658   3.060 -0.3533  1.0747  0.4038
 6175TIP3   OH240015   0.680   0.014   1.958 -0.2628 -0.2771 -0.2747
 6175TIP3    H140016   0.775   0.006   1.955 -0.1770  0.5051  0.2319
 6175TIP3    H240017   0.663   0.106   1.936 -0.7879  0.0511  1.3844
 6176TIP3   OH240018   1.089   1.585  12.352  0.2975  0.6437  0.4369
 6176TIP3    H140019   1.155   1.517  12.350  0.6860  1.0279  0.0127
 6176TIP3    H240020   1.055   1.583  12.441  1.0082  0.5640  0.7061
 6177TIP3   OH240021   5.257   5.999   4.636 -0.1128  0.3679 -0.1400
 6177TIP3    H140022   5.197   5.951   4.694  1.0483 -0.3573  0.4678
 6177TIP3    H240023   5.342   5.995   4.680  0.4049  1.3352 -1.0349
 6178TIP3   OH240024   3.828   6.168   0.694 -0.3801 -0.1779  0.2715
 6178TIP3    H140025   3.742   6.127   0.687  0.3409 -1.8957  1.4430
 6178TIP3    H240026   3.880   6.126   0.626  0.0545 -0.4277  0.7589
 6179TIP3   OH240027   6.723   4.765  11.399  0.1063  0.6482 -0.2800
 6179TIP3    H140028   6.637   4.723  11.392 -0.3640  1.3664  1.0692
 6179TIP3    H240029   6.779   4.715  11.339 -0.8529 -0.8295  0.0356
 6180TIP3   OH240030   5.206   2.686   0.847  0.8446 -0.0538  0.3651
 6180TIP3    H140031   5.148   2.623   0.890  0.2157  2.0836  2.7812
 6180TIP3    H240032   5.171   2.694   0.758  0.2895 -2.2670  0.3525
 6181TIP3   OH240033   3.734   5.972   3.458 -0.0627  0.0774 -0.4167
 6181TIP3    H140034   3.670   5.942   3.394 -0.8289 -0.7322  0.7074
 6181TIP3    H240035   3.731   5.907   3.528 -0.0459  1.5137  0.9595
 6182TIP3   OH240036   4.162   5.696  11.277  0.2297  0.4651  0.1127
 6182TIP3    H140037   4.118   5.631  11.332 -0.0980 -0.3811 -1.1432
 6182TIP3    H240038   4.193   5.647  11.201  3.0946  1.0826  0.7965
 6183TIP3   OH240039   4.212   3.363  15.135  0.0007 -0.1937  0.1480
 6183TIP3    H140040   4.281   3.388  15.196 -0.9301 -2.4560  2.1560
 6183TIP3    H240041   4.133   3.360  15.188 -0.8753 -1.9221 -1.2331
 6184TIP3   OH240042   1.445   1.523  12.007 -0.3384 -0.3709  0.6445
 6184TIP3    H140043   1.409   1.465  12.074 -2.0525  0.3042  0.3452
 6184TIP3    H240044   1.447   1.470  11.927 -0.2648 -0.5423  0.7596
 6185TIP3   OH240045   4.788   1.991  11.639 -0.0826  0.1415  0.0641
 6185TIP3    H140046   4.705   1.993  11.591  1.5556 -0.6448 -2.9036
 6185TIP3    H240047   4.827   1.907  11.615  0.3488 -0.7292  3.6285
 6186TIP3   OH240048   3.036   4.048   2.702  0.5230 -0.0783  0.0330
 6186TIP3    H140049   2.962   4.039   2.641  0.2619  1.8221  0.0359
 6186TIP3    H240050   3.067   4.138   2.688  1.5370 -0.1937  1.4894
 6187TIP3   OH240051   1.573   3.065   4.734 -0.4921  0.0293 -0.4788
 6187TIP3    H140052   1.623   3.145   4.752 -1.5681  0.9751 -1.5465
 6187TIP3    H240053   1.501   3.067   4.798 -1.3731  0.7195 -1.4629
 6188TIP3   OH240054   3.846   1.437  14.930  0.2771 -0.1758 -0.0047
 6188TIP3    H140055   3.860   1.367  14.866  0.7317  1.1090 -1.3495
 6188TIP3    H240056   3.761   1.474  14.906  1.0120  1.1191 -0.6659
 6189TIP3   OH240057   3.435   4.792  15.833 -0.0093 -0.3955  0.7889
 6189TIP3    H140058   3.360   4.851  15.845  0.0447 -0.2467  0.3968
 6189TIP3    H240059   3.420   4.750  15.749  0.3586 -0.3528  0.7007
 6190TIP3   OH240060   6.472   1.176  15.470  0.1833  0.0006  0.3362
 6190TIP3    H140061   6.461   1.122  15.391  1.8629 -1.0473  0.7916
 6190TIP3    H240062   6.516   1.255  15.438 -0.2655  0.1251  0.0213
 6191TIP3   OH240063   5.286   1.170   4.546  0.0576  0.0551  0.6738
 6191TIP3    H140064   5.283   1.246   4.604  0.7183  1.2643 -0.8400
 6191TIP3    H240065   5.366   1.125   4.571  0.1883  0.4033  0.8988
 6192TIP3   OH240066   3.693   0.621   6.501  0.2639 -0.1285  0.8793
 6192TIP3    H140067   3.772   0.654   6.457  0.3203 -0.6891  0.5418
 6192TIP3    H240068   3.720   0.536   6.536 -0.3539 -0.5993  0.2358
 6193TIP3   OH240069   4.592   1.373   3.507  0.1375  0.0113  0.2361
 6193TIP3    H140070   4.532   1.441   3.540  0.0190 -0.0857  0.2226
 6193TIP3    H240071   4.596   1.308   3.578  1.0250  0.5151  0.6545
 6194TIP3   OH240072   6.626   6.312  14.490 -0.2901  0.6323  0.7508
 6194TIP3    H140073   6.572   6.365  14.431  1.0628 -0.0024 -1.1348
 6194TIP3    H240074   6.573   6.236  14.510 -0.5813  0.6031 -0.0981
 6195TIP3   OH240075   5.042   0.514  13.163 -0.3842 -0.0895 -0.6426
 6195TIP3    H140076   5.036   0.421  13.141  0.9594 -0.3363  0.0011
 6195TIP3    H240077   5.124   0.543  13.124  0.4209  0.2355  1.2452
 6196TIP3   OH240078   6.009   2.104   5.936  0.5256 -0.0562 -0.0630
 6196TIP3    H140079   5.954   2.176   5.907 -1.1672 -1.0150  0.7142
 6196TIP3    H240080   6.067   2.144   6.002 -0.3862  0.5880  0.3528
 6197TIP3   OH240081   0.638   1.687   6.260  0.2995 -0.9677 -0.0461
 6197TIP3    H140082   0.604   1.615   6.313 -0.2960 -0.5196  0.1790
 6197TIP3    H240083   0.587   1.763   6.287  0.5033 -0.5866 -0.7274
 6198TIP3   OH240084   1.439   3.513  17.246 -0.2596 -0.0776  0.6017
 6198TIP3    H140085   1.498   3.453  17.202  1.9073  1.1375  1.7800
 6198TIP3    H240086   1.408   3.572  17.177  1.7887  0.7677  0.3786
 6199TIP3   OH240087   5.746   2.968  14.310  0.3637 -0.2497 -0.1392
 6199TIP3    H140088   5.840   2.968  14.326  0.4500 -1.1758 -0.5775
 6199TIP3    H240089   5.707   2.987  14.395  0.9686  1.3288 -0.1968
 6200TIP3   OH240090   5.714   6.701  13.650 -0.1166  0.2893 -0.1652
 6200TIP3    H140091   5.787   6.662  13.699  0.3437 -0.8811 -1.7211
 6200TIP3    H240092   5.756   6.762  13.589 -0.5090  0.3396 -0.3877
 6201TIP3   OH240093   6.242   5.545  14.150  0.2314  0.7018  0.1441
 6201TIP3    H140094   6.283   5.611  14.206  1.1220 -0.8254  1.3464
 6201TIP3    H240095   6.198   5.486  14.212  4.0089 -2.9476 -0.3992
 6202TIP3   OH240096   6.200   2.693  14.576 -0.0379  0.1501 -0.0989
 6202TIP3    H140097   6.252   2.770  14.553  1.0441  0.5412  3.3294
 6202TIP3    H240098   6.246   2.654  14.650 -3.1864 -0.9997  1.3838
 6203TIP3   OH240099   4.561   4.309   2.907 -0.4287  0.6009  0.1800
 6203TIP3    H140100   4.467   4.327   2.907 -0.4690  0.4398 -0.8619
 6203TIP3    H240101   4.568   4.215   2.923 -0.5365  0.3072 -1.3401
 6204TIP3   OH240102   6.363   5.338   3.913  0.0479 -0.4384 -0.3982
 6204TIP3    H140103   6.348   5.312   4.004  0.6694 -0.2281 -0.2361
 6204TIP3    H240104   6.397   5.427   3.919  0.2959 -0.5052 -0.8210
 6205TIP3   OH240105   2.215   4.067  15.802 -0.5181 -0.4607  0.0644
 6205TIP3    H140106   2.170   4.012  15.867  0.0927 -0.0103  0.8690
 6205TIP3    H240107   2.209   4.155  15.838 -2.8445  0.2560 -1.9669
 6206TIP3   OH240108   4.855   6.176  11.868 -0.0143 -0.6899 -0.5048
 6206TIP3    H140109   4.907   6.256  11.871 -0.8047 -0.1979  0.4146
 6206TIP3    H240110   4.799   6.187  11.791 -2.3429  1.0854  1.3358
 6207TIP3   OH240111   2.607   1.097  11.459  0.2606  0.2723 -0.0233
 6207TIP3    H140112   2.646   1.179  11.489 -0.0844 -0.0843  1.4462
 6207TIP3    H240113   2.516   1.120  11.438  0.4463  0.4807 -0.6041
 6208TIP3   OH240114   4.059   1.848  13.620  0.2230  0.7355  0.0137
 6208TIP3    H140115   4.040   1.897  13.540  1.4995 -0.0976 -0.8299
 6208TIP3    H240116   4.029   1.904  13.691 -1.7114  1.1266 -1.0785
 6209TIP3   OH240117   2.533   1.920  14.631 -0.4492  0.0318 -0.2290
 6209TIP3    H140118   2.459   1.860  14.646 -0.5667  0.5239  1.1896
 6209TIP3    H240119   2.520   1.990  14.694  0.6898  0.6413 -0.6643
 6210TIP3   OH240120   5.363   4.989   5.164  0.5545  0.0560  0.4123
 6210TIP3    H140121   5.413   4.932   5.106  1.7739  0.8765  0.6285
 6210TIP3    H240122   5.402   4.975   5.250  2.8102  3.3077 -0.0054
 6211TIP3   OH240123   6.521   4.524  11.638 -0.1175  0.0520 -0.2816
 6211TIP3    H140124   6.458   4.584  11.597 -2.6608 -2.8722 -0.9135
 6211TIP3    H240125   6.593   4.518  11.576  0.5570  2.9518  0.1391
 6212TIP3   OH240126   4.526   6.081  11.488 -0.2223  0.1100 -0.2134
 6212TIP3    H140127   4.609   6.051  11.451  0.2215  1.2598 -0.1748
 6212TIP3    H240128   4.510   6.023  11.563  0.6719  0.0535 -0.0643
 6213TIP3   OH240129   1.571   2.815   2.986  0.0287 -0.4174 -0.4911
 6213TIP3    H140130   1.591   2.729   2.947 -1.4304 -1.0694  0.1489
 6213TIP3    H240131   1.521   2.794   3.065  0.4417  1.0043  0.1599
 6214TIP3   OH240132   2.214   5.839  13.788  0.2019 -0.0218  0.0595
 6214TIP3    H140133   2.145   5.903  13.805 -0.3650 -0.2490 -1.3420
 6214TIP3    H240134   2.278   5.887  13.736 -0.2733 -0.6105 -1.0830
 6215TIP3   OH240135   0.696   4.819   1.377 -0.0840 -0.4367  0.1728
 6215TIP3    H140136   0.762   4.862   1.432  0.0757 -1.3647  0.7283
 6215TIP3    H240137   0.623   4.803   1.437  0.0823 -1.4371  0.1094
 6216TIP3   OH240138   5.914   3.156   6.168  0.5611 -0.5744 -0.4482
 6216TIP3    H140139   5.895   3.176   6.260  0.6142 -1.4958 -0.2279
 6216TIP3    H240140   5.917   3.060   6.165  0.6690 -0.5441 -1.3914
 6217TIP3   OH240141   3.746   6.769  15.863 -0.6950  0.0734 -0.6831
 6217TIP3    H140142   3.832   6.784  15.824 -0.6470  0.7769 -0.3182
 6217TIP3    H240143   3.764   6.752  15.955 -0.7876 -1.8197 -0.9908
 6218TIP3   OH240144   0.026   0.279   2.271 -0.0635 -0.3160 -0.4130
 6218TIP3    H140145   0.052   0.352   2.328  0.2596 -1.5706  1.0821
 6218TIP3    H240146   0.076   0.294   2.191  0.9579  0.4484  0.3336
 6219TIP3   OH240147   1.351   5.818  14.783  0.5121 -0.2295 -0.4627
 6219TIP3    H140148   1.386   5.730  14.795 -0.8918 -1.2425 -3.2556
 6219TIP3    H240149   1.428   5.875  14.786  1.2250 -1.2997  3.2269
 6220TIP3   OH240150   1.436   1.344  13.505  0.3267  0.2884 -0.3525
 6220TIP3    H140151   1.346   1.345  13.537  0.7734  0.2158  0.9146
 6220TIP3    H240152   1.444   1.424  13.453 -0.5117  0.2187 -0.5947
 6221TIP3   OH240153   0.447   2.422  16.819  0.7706  0.4812  0.0004
 6221TIP3    H140154   0.517   2.482  16.843 -0.3914  1.4667  1.0061
 6221TIP3    H240155   0.395   2.413  16.899 -0.1628 -0.3431 -0.6865
 6222TIP3   OH240156   4.733   5.647  13.436  0.3002  0.2117 -0.4090
 6222TIP3    H140157   4.639   5.641  13.453  0.4677  2.3393  1.4131
 6222TIP3    H240158   4.741   5.710  13.365  0.3353 -0.1611 -0.7378
 6223TIP3   OH240159   6.078   2.725  16.742 -0.1323 -0.0268 -0.5873
 6223TIP3    H140160   6.096   2.632  16.726  0.4818  0.0096 -0.1243
 6223TIP3    H240161   6.005   2.725  16.804 -0.1436 -0.1975 -0.6003
 6224TIP3   OH240162   1.723   5.331   4.045  0.0523  0.6033  0.2038
 6224TIP3    H140163   1.713   5.286   4.129  0.0150  1.9584  0.9395
 6224TIP3    H240164   1.770   5.411   4.066 -0.3709  1.1820 -0.9990
 6225TIP3   OH240165   2.459   3.367  15.793 -0.0445  0.1129 -0.1640
 6225TIP3    H140166   2.433   3.297  15.854  1.1088 -0.7478 -0.6473
 6225TIP3    H240167   2.553   3.376  15.806  0.0536  0.5470 -1.1921
 6226TIP3   OH240168   2.251   6.619   5.601  0.2545  0.4002  0.2871
 6226TIP3    H140169   2.312   6.658   5.538  0.2176 -1.0051 -0.6260
 6226TIP3    H240170   2.265   6.525   5.593  1.5087  0.2422  3.6485
 6227TIP3   OH240171   2.089   2.385  17.156 -0.1174 -0.0706  0.9093
 6227TIP3    H140172   2.148   2.407  17.229  0.1715 -0.5070  0.8096
 6227TIP3    H240173   2.146   2.387  17.079 -0.2895 -0.2420  0.7774
 6228TIP3   OH240174   1.781   4.202   5.311  0.2821 -0.0535  0.0063
 6228TIP3    H140175   1.795   4.124   5.365  0.5592  0.5212  0.7823
 6228TIP3    H240176   1.860   4.255   5.325  0.2194  0.2388 -0.7283
 6229TIP3   OH240177   3.067   3.774  13.387 -0.1587 -0.1233  0.1407
 6229TIP3    H140178   3.110   3.701  13.342 -0.4343 -0.5926  0.6332
 6229TIP3    H240179   2.997   3.801  13.327  0.7882  0.6209 -0.6498
 6230TIP3   OH240180   3.181   2.657  10.486  0.5410 -0.6799  0.4550
 6230TIP3    H140181   3.143   2.739  10.454  1.8597  0.3753  1.5363
 6230TIP3    H240182   3.180   2.666  10.581  2.1239 -1.2605  0.5388
 6231TIP3   OH240183   0.215   2.563  11.805 -0.1947  0.3031  0.2961
 6231TIP3    H140184   0.154   2.509  11.854 -1.6354 -0.6067 -2.3950
 6231TIP3    H240185   0.175   2.572  11.718  3.2781  0.0193 -1.4255
 6232TIP3   OH240186   0.183   2.007   4.007 -0.6144  0.1781  0.1184
 6232TIP3    H140187   0.195   1.972   4.095  0.0977  0.4654  0.1330
 6232TIP3    H240188   0.241   2.082   4.003  1.7416 -1.6668 -1.6484
 6233TIP3   OH240189   2.542   6.216  13.489  0.1431  1.0418  0.1572
 6233TIP3    H140190   2.512   6.272  13.560  1.9229  0.6271  1.2681
 6233TIP3    H240191   2.613   6.265  13.448 -1.5414  1.7286 -2.0229
 6234TIP3   OH240192   1.242   3.841   3.873  0.5119 -0.1254  0.3934
 6234TIP3    H140193   1.244   3.906   3.803  1.4692 -1.2556 -0.6684
 6234TIP3    H240194   1.254   3.891   3.954 -0.7171  1.2057 -0.2348
 6235TIP3   OH240195   4.508   4.479  13.562  0.3183  0.3857  0.7102
 6235TIP3    H140196   4.515   4.449  13.653  0.2218  1.2603  1.0122
 6235TIP3    H240197   4.431   4.536  13.562  0.1331  0.1420  0.0034
 6236TIP3   OH240198   2.944   4.272  12.056  0.7709 -0.2446 -0.1219
 6236TIP3    H140199   2.938   4.183  12.088  4.1269 -0.7723 -0.7072
 6236TIP3    H240200   2.945   4.326  12.135  2.1337 -1.0091  0.4063
 6237TIP3   OH240201   1.492   3.298   3.723  0.1713  0.0019 -0.1725
 6237TIP3    H140202   1.499   3.211   3.761 -0.9915 -0.3623 -0.7543
 6237TIP3    H240203   1.580   3.317   3.690  0.2401 -1.2888 -0.7600
 6238TIP3   OH240204   1.719   5.791  12.121 -0.4123  0.4573  0.0986
 6238TIP3    H140205   1.763   5.709  12.100 -0.6401 -0.0849  1.6817
 6238TIP3    H240206   1.657   5.804  12.049 -0.5782 -0.9119 -0.0124
 6239TIP3   OH240207   0.210   1.479  10.893  0.5493 -0.0066  0.0298
 6239TIP3    H140208   0.240   1.389  10.883 -1.6191 -0.8575  0.7701
 6239TIP3    H240209   0.168   1.499  10.809 -0.4225 -0.2878  0.4372
 6240TIP3   OH240210   6.382   3.038   3.311  0.0537 -0.4593  0.3642
 6240TIP3    H140211   6.370   2.999   3.224  0.5692  0.7631 -0.2621
 6240TIP3    H240212   6.296   3.028   3.353  0.3429 -2.8114  0.4553
 6241TIP3   OH240213   2.065   5.815   4.134  0.1659 -0.0808 -0.0381
 6241TIP3    H140214   1.993   5.876   4.151  0.7008  0.2714  1.0129
 6241TIP3    H240215   2.076   5.816   4.039 -0.5673  0.6083 -0.1170
 6242TIP3   OH240216   5.065   3.732  15.694 -0.1295  0.2556  0.1677
 6242TIP3    H140217   5.073   3.645  15.657  0.0304  0.1109  0.5365
 6242TIP3    H240218   4.979   3.732  15.737  0.3821 -0.1385  1.2290
 6243TIP3   OH240219   2.409   1.042   0.790  0.2414  0.1622  0.0552
 6243TIP3    H140220   2.395   1.002   0.704 -0.4757  0.4750  0.0267
 6243TIP3    H240221   2.404   1.136   0.773  0.9763  0.2498  0.2905
 6244TIP3   OH240222   6.318   4.353   0.629 -0.6906  0.1735 -0.3645
 6244TIP3    H140223   6.333   4.277   0.686 -0.6836 -0.9402 -1.8037
 6244TIP3    H240224   6.375   4.421   0.664  1.7688 -1.5032 -0.9859
 6245TIP3   OH240225   2.116   0.770  11.078 -0.5134 -0.1061  0.2670
 6245TIP3    H140226   2.167   0.719  11.016 -0.8594 -0.5180  0.3200
 6245TIP3    H240227   2.044   0.807  11.026 -1.2620 -1.1049  0.5713
 6246TIP3   OH240228   3.957   4.004   3.129 -0.0664  0.3098  0.0559
 6246TIP3    H140229   3.967   3.915   3.163  1.6571  0.1952 -0.7226
 6246TIP3    H240230   3.945   4.058   3.207 -3.2585 -0.8246  0.4421
 6247TIP3   OH240231   6.561   0.913   0.490 -0.4414  0.2920 -0.0133
 6247TIP3    H140232   6.534   0.917   0.398  1.4505 -0.6315 -0.6360
 6247TIP3    H240233   6.519   0.834   0.524  0.8191 -0.7288 -0.7733
 6248TIP3   OH240234   4.824   1.770  13.200  0.4898 -0.3287  0.3960
 6248TIP3    H140235   4.831   1.857  13.241  1.2976 -0.0542 -0.3251
 6248TIP3    H240236   4.730   1.750  13.206  0.1023  1.0951 -0.4354
 6249TIP3   OH240237   5.606   6.423   0.173  0.2374 -0.1377 -0.0647
 6249TIP3    H140238   5.514   6.399   0.160  0.2110 -0.3053  0.4388
 6249TIP3    H240239   5.644   6.418   0.085  0.1700 -1.8017 -0.0224
 6250TIP3   OH240240   4.333   5.414   5.150 -0.2203  0.1444 -0.2416
 6250TIP3    H140241   4.261   5.477   5.146  0.4353  0.8499 -1.3603
 6250TIP3    H240242   4.371   5.417   5.062  2.1463  0.9237  0.7891
 6251TIP3   OH240243   0.089   0.580   3.260 -0.1580 -0.2078 -0.4179
 6251TIP3    H140244   0.077   0.534   3.177  2.1743 -0.7036 -0.5097
 6251TIP3    H240245   0.026   0.539   3.320  0.5834 -2.2342 -0.9972
 6252TIP3   OH240246   0.984   1.222   2.061  0.6244  0.4227 -0.2886
 6252TIP3    H140247   1.073   1.208   2.027  0.6126 -0.1915 -0.0655
 6252TIP3    H240248   0.998   1.265   2.146  0.7755 -1.2458  0.5518
 6253TIP3   OH240249   5.710   6.551  16.666 -0.0827 -0.4209  0.0918
 6253TIP3    H140250   5.743   6.552  16.756 -1.1539  1.4381  0.4921
 6253TIP3    H240251   5.715   6.459  16.640 -0.1710 -1.0596  2.2123
 6254TIP3   OH240252   5.968   3.773  16.062 -0.1138  0.3851 -0.0354
 6254TIP3    H140253   5.933   3.685  16.054  0.8339  0.1428 -1.7488
 6254TIP3    H240254   5.891   3.830  16.054 -0.6732 -0.2471  0.7027
 6255TIP3   OH240255   4.565   3.215  11.955 -0.0386  0.0070 -0.3870
 6255TIP3    H140256   4.580   3.127  11.989 -0.0873  1.1084  2.6133
 6255TIP3    H240257   4.652   3.255  11.951 -0.0943  0.0742 -1.0620
 6256TIP3   OH240258   2.516   6.632   1.790  0.0289 -0.1919  0.4941
 6256TIP3    H140259   2.475   6.591   1.714 -1.2736  0.0865  1.0309
 6256TIP3    H240260   2.586   6.572   1.816 -0.5474 -1.0610  0.0416
 6257TIP3   OH240261   4.607   4.231  15.243  0.7855 -0.2504  0.1680
 6257TIP3    H140262   4.545   4.173  15.287 -0.3017  2.0970  1.8253
 6257TIP3    H240263   4.644   4.177  15.173 -0.3546 -2.8557  1.4847
 6258TIP3   OH240264   4.872   4.231   6.144  0.1027 -0.1846  0.8797
 6258TIP3    H140265   4.828   4.201   6.224  0.4038  0.3212  1.2465
 6258TIP3    H240266   4.888   4.152   6.093 -2.0862 -0.2777  0.2919
 6259TIP3   OH240267   1.762   0.755  15.487  0.4043  0.4330  0.1934
 6259TIP3    H140268   1.801   0.750  15.574  1.1383 -0.1901 -0.1738
 6259TIP3    H240269   1.779   0.845  15.459  3.1888 -0.3279 -0.7053
 6260TIP3   OH240270   1.883   6.264   1.162 -0.1987  0.3287  0.8937
 6260TIP3    H140271   1.819   6.194   1.151  0.6806 -0.4321  0.5492
 6260TIP3    H240272   1.844   6.340   1.118 -0.8009 -0.1590  0.5816
 6261TIP3   OH240273   2.824   3.651   0.840  0.0058  0.0623  0.1450
 6261TIP3    H140274   2.789   3.607   0.762  1.5127  1.3006 -1.2760
 6261TIP3    H240275   2.769   3.728   0.851 -0.4639 -0.3317  0.5478
 6262TIP3   OH240276   1.973   1.877  11.437  0.5096  0.2529  0.3634
 6262TIP3    H140277   1.972   1.966  11.474  1.1033  0.0211  0.9710
 6262TIP3    H240278   1.890   1.868  11.391  0.0099  0.7735  1.1492
 6263TIP3   OH240279   2.429   3.297  13.288  0.1982  0.2931  0.2312
 6263TIP3    H140280   2.377   3.372  13.261  1.8180  1.4685  0.3308
 6263TIP3    H240281   2.477   3.272  13.209  0.5371  0.0856  0.5010
 6264TIP3   OH240282   2.115   4.477  14.659 -0.1194 -0.3698 -0.1801
 6264TIP3    H140283   2.185   4.492  14.596 -0.4182  1.0276 -0.1985
 6264TIP3    H240284   2.047   4.541  14.636 -0.7132 -0.6140  0.8372
 6265TIP3   OH240285   2.451   4.000   4.397 -0.0556  0.4351 -0.4614
 6265TIP3    H140286   2.520   4.026   4.337 -1.9750  2.5912 -1.8194
 6265TIP3    H240287   2.440   3.906   4.381  1.6948  0.3151 -1.0827
 6266TIP3   OH240288   1.507   6.820   5.938  0.0504 -0.8129 -0.5611
 6266TIP3    H140289   1.590   6.772   5.930  1.7918  1.7929  1.1833
 6266TIP3    H240290   1.455   6.768   6.000  1.4894 -1.0214  0.4959
 6267TIP3   OH240291   2.222   4.132   5.978  0.0895 -0.1454  0.1619
 6267TIP3    H140292   2.249   4.089   6.059 -0.4469  2.1368  1.5923
 6267TIP3    H240293   2.126   4.123   5.977 -0.1478  1.9195  1.0507
 6268TIP3   OH240294   3.464   0.341  14.471  0.1363  0.1777  0.7958
 6268TIP3    H140295   3.453   0.248  14.450 -1.4696  0.2070  1.4663
 6268TIP3    H240296   3.545   0.344  14.521  0.7091 -0.7281 -0.0472
 6269TIP3   OH240297   1.481   5.701   2.618  0.6095 -0.0412 -0.3299
 6269TIP3    H140298   1.541   5.700   2.692 -2.0766  0.3829  1.9169
 6269TIP3    H240299   1.456   5.609   2.606  1.1765 -0.1333 -0.8556
 6270TIP3   OH240300   3.388   1.420  16.681 -0.3704  0.3421  0.2904
 6270TIP3    H140301   3.420   1.503  16.715  2.6034  0.3900 -2.3419
 6270TIP3    H240302   3.325   1.444  16.613  0.9753  0.5029 -0.9221
 6271TIP3   OH240303   6.575   3.243   1.672 -0.1129  0.6590 -0.4063
 6271TIP3    H140304   6.652   3.231   1.617 -0.5932 -3.5303 -0.2831
 6271TIP3    H240305   6.531   3.320   1.636  2.0621  0.7795 -2.8892
 6272TIP3   OH240306   3.507   3.240  15.316 -0.5619 -0.0445 -0.5658
 6272TIP3    H140307   3.541   3.306  15.255  1.4595  0.1695  0.7356
 6272TIP3    H240308   3.531   3.156  15.277  1.4865  0.1026  0.2947
 6273TIP3   OH240309   0.463   4.790   4.314 -0.4959  0.3103 -0.5000
 6273TIP3    H140310   0.544   4.784   4.262 -0.2890 -2.5079  0.0716
 6273TIP3    H240311   0.430   4.878   4.296  2.3027  1.2596 -1.3223
 6274TIP3   OH240312   2.738   4.456   4.218  0.7301 -0.5202  0.0551
 6274TIP3    H140313   2.778   4.529   4.265 -0.3429  0.4626 -0.5311
 6274TIP3    H240314   2.804   4.386   4.222  1.0545 -0.1342  2.1572
 6275TIP3   OH240315   1.134   6.589   3.264 -0.1378  0.1796  0.1424
 6275TIP3    H140316   1.202   6.586   3.331  0.1907  1.5779 -0.1102
 6275TIP3    H240317   1.061   6.634   3.305 -0.4766 -0.2747  0.0382
 6276TIP3   OH240318   1.823   5.572  13.403  0.2344 -0.2527  0.0418
 6276TIP3    H140319   1.759   5.584  13.333  0.5706 -1.9766 -0.5782
 6276TIP3    H240320   1.772   5.582  13.484 -0.2700  1.1237 -0.4306
 6277TIP3   OH240321   5.823   3.763  15.277  0.1349  0.0990  0.1937
 6277TIP3    H140322   5.735   3.728  15.290 -0.8784  1.7434 -1.8579
 6277TIP3    H240323   5.823   3.846  15.325  0.9327 -0.3640  1.0251
 6278TIP3   OH240324   5.323   6.588  11.789  0.4278 -0.0089 -0.4330
 6278TIP3    H140325   5.418   6.574  11.783  0.4612  0.1568 -0.2984
 6278TIP3    H240326   5.307   6.604  11.882  0.2484 -0.1729 -0.4350
 6279TIP3   OH240327   4.934   4.574   4.355 -0.6259 -0.0448 -0.4492
 6279TIP3    H140328   4.892   4.596   4.272 -0.8843  0.5498 -0.1631
 6279TIP3    H240329   4.891   4.493   4.383 -3.0966  1.6771  0.8835
 6280TIP3   OH240330   1.858   2.695  16.577 -0.2897 -0.5163  0.1415
 6280TIP3    H140331   1.877   2.634  16.648 -1.2337 -0.7885  0.1709
 6280TIP3    H240332   1.809   2.766  16.618 -0.2515 -0.3392 -0.1139
 6281TIP3   OH240333   5.985   4.543  12.319  0.8800 -0.1513 -0.4834
 6281TIP3    H140334   6.046   4.603  12.362  0.7035 -2.0425  2.5129
 6281TIP3    H240335   5.900   4.565  12.357  0.3531 -0.3386 -1.5451
 6282TIP3   OH240336   1.206   2.851   5.099  0.3894  0.1308  0.0834
 6282TIP3    H140337   1.270   2.904   5.147  0.5692 -0.3364  0.3740
 6282TIP3    H240338   1.209   2.766   5.144  2.5239 -1.1867 -2.4239
 6283TIP3   OH240339   2.544   0.929   5.236  0.8883  0.4325 -0.0416
 6283TIP3    H140340   2.499   0.876   5.301  0.7742 -0.0132 -0.4816
 6283TIP3    H240341   2.484   1.002   5.219 -0.1197 -0.6584 -1.3291
 6284TIP3   OH240342   5.539   5.248  12.362 -0.0514  0.0749 -0.0227
 6284TIP3    H140343   5.630   5.275  12.361  0.1046 -0.4305 -1.1431
 6284TIP3    H240344   5.508   5.265  12.273 -0.7548 -0.7227  0.0576
 6285TIP3   OH240345   0.838   4.877  16.001  0.1196 -1.1020  0.2929
 6285TIP3    H140346   0.845   4.895  16.095  0.1079  2.1085 -0.2570
 6285TIP3    H240347   0.744   4.882  15.983  0.3135  0.7382 -0.2991
 6286TIP3   OH240348   6.411   5.317  12.881 -0.1552 -0.2983 -0.4170
 6286TIP3    H140349   6.355   5.260  12.827 -0.4741 -0.7713  0.4047
 6286TIP3    H240350   6.463   5.256  12.933 -0.7645  0.1576  0.7404
 6287TIP3   OH240351   1.462   4.910  13.014  0.1057  0.2962  0.0175
 6287TIP3    H140352   1.478   4.845  13.082  0.4795  0.0293 -0.3278
 6287TIP3    H240353   1.549   4.941  12.989 -0.0092  0.0852 -0.6460
 6288TIP3   OH240354   6.485   5.521   3.038  0.4187  0.2720 -0.0110
 6288TIP3    H140355   6.558   5.580   3.017 -0.6580  1.4506 -0.5067
 6288TIP3    H240356   6.407   5.568   3.008 -0.4762 -1.3256 -0.2168
 6289TIP3   OH240357   3.903   1.778  14.641 -0.3227  0.4540 -0.0222
 6289TIP3    H140358   3.932   1.738  14.723 -0.2182  0.3245 -0.1210
 6289TIP3    H240359   3.843   1.847  14.667  1.0751  1.5832  0.2405
 6290TIP3   OH240360   0.033   2.231  13.618 -0.6504  0.0307  0.6701
 6290TIP3    H140361   0.024   2.316  13.661 -0.8944 -0.7000  2.0985
 6290TIP3    H240362   0.103   2.244  13.554 -2.4402  2.0077 -0.9660
 6291TIP3   OH240363   0.878   5.100  11.528 -0.0301  0.3923  0.7071
 6291TIP3    H140364   0.884   5.174  11.468  0.5664  0.3311  0.6855
 6291TIP3    H240365   0.898   5.023  11.474  0.7182  0.3589  1.0193
 6292TIP3   OH240366   5.057   4.421   0.341  0.0538 -0.0389  0.2135
 6292TIP3    H140367   5.054   4.514   0.361  1.6237  0.4821 -1.8891
 6292TIP3    H240368   5.064   4.416   0.246 -0.3285 -2.3215  0.2594
 6293TIP3   OH240369   0.457   4.330  14.142 -0.3180 -0.6516  0.1174
 6293TIP3    H140370   0.419   4.415  14.163 -0.2441 -0.6893  0.4143
 6293TIP3    H240371   0.432   4.314  14.051  0.6485  0.2033 -0.2941
 6294TIP3   OH240372   1.407   3.989  14.259 -0.2015  0.0053 -0.5784
 6294TIP3    H140373   1.409   4.040  14.178 -1.5080 -1.0836 -1.3242
 6294TIP3    H240374   1.499   3.972  14.279  0.2060  1.7209 -0.8932
 6295TIP3   OH240375   2.252   3.270   5.362  0.1160  0.1512  0.1926
 6295TIP3    H140376   2.208   3.218   5.428 -2.5046  2.4130  0.3244
 6295TIP3    H240377   2.344   3.271   5.389  0.1007 -3.6800  0.5744
 6296TIP3   OH240378   0.625   6.756   6.809 -0.0776  0.8390  0.0540
 6296TIP3    H140379   0.586   6.824   6.864 -2.9801 -1.1078  0.5061
 6296TIP3    H240380   0.551   6.718   6.762  1.3627 -2.5536  0.4035
 6297TIP3   OH240381   4.736   1.274   4.509  0.3294 -0.3050 -0.7728
 6297TIP3    H140382   4.706   1.293   4.419 -0.4830 -0.7520 -0.6024
 6297TIP3    H240383   4.672   1.211   4.542  0.4788  0.0607  0.2154
 6298TIP3   OH240384   3.888   5.216   2.829  0.1686 -0.2337 -0.3161
 6298TIP3    H140385   3.851   5.302   2.847  0.7461 -0.1136  0.3276
 6298TIP3    H240386   3.905   5.179   2.916 -1.8018 -1.7439 -0.5555
 6299TIP3   OH240387   5.360   0.994   5.634  0.0679  0.0360  0.0387
 6299TIP3    H140388   5.380   0.903   5.654  0.7117 -0.3316 -2.1272
 6299TIP3    H240389   5.265   1.001   5.647 -0.2285 -1.3429 -1.2334
 6300TIP3   OH240390   4.590   5.784   5.877  0.1082 -0.4357  0.1213
 6300TIP3    H140391   4.662   5.846   5.887 -0.2584  0.0456 -0.2266
 6300TIP3    H240392   4.625   5.701   5.912  1.0290 -0.3565 -0.5979
 6301TIP3   OH240393   6.164   2.899  15.702 -0.2739 -0.2118 -0.5236
 6301TIP3    H140394   6.255   2.894  15.671  0.3909 -0.5367  1.3890
 6301TIP3    H240395   6.146   2.811  15.734 -0.5025  0.4383  1.1511
 6302TIP3   OH240396   4.243   6.400   0.523  0.0261 -0.4168 -0.0476
 6302TIP3    H140397   4.212   6.380   0.611  2.2363  0.5414  0.9642
 6302TIP3    H240398   4.264   6.315   0.485 -1.7306 -0.9011  0.0252
 6303TIP3   OH240399   0.945   0.947  17.128  0.3179  0.1376  0.1562
 6303TIP3    H140400   0.969   0.897  17.050  0.1248 -0.9246  0.7634
 6303TIP3    H240401   0.849   0.943  17.131  0.2279  1.4810 -0.3870
 6304TIP3   OH240402   4.329   3.491   6.055 -0.3767 -0.0102 -0.2698
 6304TIP3    H140403   4.334   3.396   6.068 -1.1254 -0.0071  0.0539
 6304TIP3    H240404   4.382   3.528   6.126 -0.7686 -0.1514  0.0933
 6305TIP3   OH240405   3.861   6.360   5.448 -0.0815 -0.1148  0.2652
 6305TIP3    H140406   3.933   6.413   5.412 -1.4192  0.5055 -1.5608
 6305TIP3    H240407   3.783   6.413   5.434 -1.3701 -2.2991 -1.0447
 6306TIP3   OH240408   2.950   2.665  13.589 -0.4151  0.1730 -0.1297
 6306TIP3    H140409   2.958   2.574  13.562 -0.8750 -0.3246  1.3643
 6306TIP3    H240410   3.037   2.702  13.577 -0.3800 -0.2805 -1.3437
 6307TIP3   OH240411   6.402   4.667  15.572 -0.1764  0.5835 -0.1040
 6307TIP3    H140412   6.432   4.668  15.481 -0.4351  2.0691 -0.1905
 6307TIP3    H240413   6.481   4.647  15.622  0.0439  0.1194 -0.6222
 6308TIP3   OH240414   1.101   6.487   1.651  1.0811  0.2061 -0.3128
 6308TIP3    H140415   1.120   6.497   1.558 -1.2231 -0.7080 -0.9301
 6308TIP3    H240416   1.092   6.576   1.684  1.0955  0.5234 -1.1542
 6309TIP3   OH240417   1.376   4.595  13.139  0.5748 -0.4275  0.2192
 6309TIP3    H140418   1.390   4.668  13.199  1.0355 -1.0086  0.8192
 6309TIP3    H240419   1.281   4.595  13.124  0.8874  2.1484 -2.1470
 6310TIP3   OH240420   6.436   0.528   5.951 -0.4607  0.1528  0.1291
 6310TIP3    H140421   6.463   0.539   6.042  0.3816  0.2177 -0.1218
 6310TIP3    H240422   6.444   0.616   5.913  0.7194 -0.1735 -0.4068
 6311TIP3   OH240423   6.428   6.442   5.879  0.2524  0.4954  0.3226
 6311TIP3    H140424   6.471   6.513   5.833 -0.2360  1.2106  0.9625
 6311TIP3    H240425   6.441   6.462   5.972 -0.4624  0.1091  0.5151
 6312TIP3   OH240426   5.545   0.025   4.147 -0.0545 -0.0927  0.6772
 6312TIP3    H140427   5.592   0.000   4.226 -0.3100 -1.1819  0.4982
 6312TIP3    H240428   5.575   0.114   4.128  1.7464 -0.6709  0.7070
 6313TIP3   OH240429   1.927   1.181   1.541 -0.0339 -0.0714  0.2847
 6313TIP3    H140430   1.945   1.198   1.448 -0.6015 -0.2874  0.1354
 6313TIP3    H240431   2.011   1.197   1.585  0.4292 -0.6891 -0.3635
 6314TIP3   OH240432   6.659   0.258  12.370  0.4751 -0.0161  0.1779
 6314TIP3    H140433   6.707   0.323  12.319  0.3299 -0.3498 -0.3848
 6314TIP3    H240434   6.726   0.198  12.403  0.4232 -0.6500 -0.8480
 6315TIP3   OH240435   1.189   5.312  13.283 -0.2990  0.0842 -0.3000
 6315TIP3    H140436   1.175   5.402  13.255  1.5708  0.9016  1.2986
 6315TIP3    H240437   1.270   5.285  13.240  0.0493 -0.2450  0.5352
 6316TIP3   OH240438   4.973   6.402   1.049 -0.1176 -0.0294  0.1540
 6316TIP3    H140439   5.022   6.478   1.017  1.1464 -0.8737  0.0443
 6316TIP3    H240440   4.957   6.420   1.141 -0.2990  0.6161 -0.0033
 6317TIP3   OH240441   4.890   3.019   0.394  0.8155 -0.3542  1.0524
 6317TIP3    H140442   4.855   3.045   0.309  2.1112  0.6261  0.8037
 6317TIP3    H240443   4.817   3.033   0.455  0.1002 -0.4001  0.2250
 6318TIP3   OH240444   3.475   3.142  15.766 -0.2076  0.2606 -0.1797
 6318TIP3    H140445   3.514   3.189  15.692 -0.4373 -0.1270 -0.5493
 6318TIP3    H240446   3.542   3.145  15.834  0.4947 -0.4354 -0.8263
 6319TIP3   OH240447   1.034   2.134   5.020  0.1471  0.1911  0.3499
 6319TIP3    H140448   1.067   2.197   5.084 -0.2814 -0.1770  0.9386
 6319TIP3    H240449   1.103   2.128   4.954  0.3185  1.0482  0.4477
 6320TIP3   OH240450   3.225   4.194  13.301 -0.0133 -0.3411  0.1608
 6320TIP3    H140451   3.157   4.261  13.308 -0.4638 -0.7703 -0.0629
 6320TIP3    H240452   3.190   4.131  13.238  1.6664  0.7216 -1.9060
 6321TIP3   OH240453   3.482   5.018   1.177 -0.1937  0.3600  0.0236
 6321TIP3    H140454   3.572   5.020   1.210 -0.5114  0.9456  0.8727
 6321TIP3    H240455   3.441   4.944   1.222 -1.1042  2.1667  2.2435
 6322TIP3   OH240456   5.086   3.423   3.771 -0.4370  0.0568  0.0870
 6322TIP3    H140457   5.140   3.395   3.696 -1.2779 -0.5275 -0.3076
 6322TIP3    H240458   5.031   3.348   3.790 -1.5372  0.8569  0.1062
 6323TIP3   OH240459   2.623   6.264  15.360 -0.2875  0.3786 -0.1207
 6323TIP3    H140460   2.602   6.323  15.288  1.1422 -1.7232 -2.3598
 6323TIP3    H240461   2.566   6.189  15.346 -0.7056  0.3832  1.5415
 6324TIP3   OH240462   6.234   5.501  12.776  0.2674  0.2649  0.4155
 6324TIP3    H140463   6.233   5.492  12.680  0.4866  2.7789  0.1351
 6324TIP3    H240464   6.314   5.457  12.803 -0.8299 -2.2877 -0.3171
 6325TIP3   OH240465   5.257   5.007   4.450 -0.2772  0.1348  0.1353
 6325TIP3    H140466   5.235   5.084   4.502 -1.3406  0.7155 -1.1449
 6325TIP3    H240467   5.191   5.004   4.381 -1.4712 -3.1039  1.3377
 6326TIP3   OH240468   4.023   4.748  11.861 -0.2916  0.1228 -0.0970
 6326TIP3    H140469   3.992   4.823  11.912  2.2010  1.2728 -0.1986
 6326TIP3    H240470   3.944   4.698  11.842 -1.6645  1.3035  2.2563
 6327TIP3   OH240471   0.309   3.819  14.109  0.5241 -0.4887 -0.4684
 6327TIP3    H140472   0.289   3.774  14.027  1.0132 -2.2202  0.3412
 6327TIP3    H240473   0.396   3.856  14.095 -0.6696  1.9178 -1.8301
 6328TIP3   OH240474   0.375   5.693  10.839  0.2209  0.6785 -0.8196
 6328TIP3    H140475   0.412   5.671  10.753 -0.7741  0.8490 -1.2984
 6328TIP3    H240476   0.362   5.787  10.836 -2.0735  0.3665 -1.4004
 6329TIP3   OH240477   2.479   0.224  12.879 -0.2932 -0.6933 -0.2099
 6329TIP3    H140478   2.573   0.209  12.866 -0.6181 -2.9205 -0.1276
 6329TIP3    H240479   2.439   0.139  12.864 -2.3742  0.3647 -0.7717
 6330TIP3   OH240480   2.102   2.745   2.102  0.5404 -0.3135 -0.2982
 6330TIP3    H140481   2.045   2.703   2.167  1.2300 -0.0734  0.4784
 6330TIP3    H240482   2.062   2.725   2.018 -1.3011  0.7678  0.2970
 6331TIP3   OH240483   5.328   1.862  11.193 -0.4371  0.1872 -0.5392
 6331TIP3    H140484   5.374   1.819  11.265  0.7236 -0.0299 -1.4026
 6331TIP3    H240485   5.379   1.839  11.115 -0.6929  1.8409 -1.2050
 6332TIP3   OH240486   4.224   2.699   2.445  0.0877 -0.1035 -0.1248
 6332TIP3    H140487   4.298   2.658   2.401  1.4565 -0.1809  2.2048
 6332TIP3    H240488   4.147   2.668   2.397  1.5669  0.2372 -2.7716
 6333TIP3   OH240489   3.217   5.069  16.768 -0.8876  0.2398  0.2373
 6333TIP3    H140490   3.289   5.106  16.717 -0.2057 -0.2438  0.8343
 6333TIP3    H240491   3.244   4.979  16.786 -1.3385  0.2561  1.0275
 6334TIP3   OH240492   6.365   3.947  13.550  0.2035  0.2186  0.3005
 6334TIP3    H140493   6.404   3.860  13.542  0.1009  0.2216 -0.2621
 6334TIP3    H240494   6.399   3.995  13.475 -1.1524  0.1152 -0.3904
 6335TIP3   OH240495   5.116   4.730   5.278  0.5275 -0.2650 -0.3137
 6335TIP3    H140496   5.097   4.676   5.201  0.4208 -1.1594  0.3253
 6335TIP3    H240497   5.173   4.676   5.332  1.2974  0.6905 -0.1563
 6336TIP3   OH240498   6.531   0.748  16.768  0.1390 -0.4471 -0.3671
 6336TIP3    H140499   6.615   0.771  16.727  1.3630 -0.2367  2.1860
 6336TIP3    H240500   6.470   0.743  16.695  1.8620  1.7882 -2.0372
 6337TIP3   OH240501   2.630   5.842   4.930  0.1149  0.4016  0.5947
 6337TIP3    H140502   2.677   5.760   4.942 -2.0089 -0.9134  0.1850
 6337TIP3    H240503   2.572   5.848   5.006  0.3807  1.5986  0.7116
 6338TIP3   OH240504   2.398   2.881  13.127 -0.7522 -0.1490  0.0344
 6338TIP3    H140505   2.466   2.936  13.090 -0.3866 -0.0872  0.7809
 6338TIP3    H240506   2.339   2.862  13.054 -0.3081  0.3628 -0.4573
 6339TIP3   OH240507   1.558   6.473   2.764 -0.6130 -0.1389 -0.3244
 6339TIP3    H140508   1.540   6.398   2.707 -0.7806  0.5421 -1.1842
 6339TIP3    H240509   1.609   6.533   2.709 -1.9380  1.1239 -0.2077
 6340TIP3   OH240510   5.955   3.277  12.882 -0.5476 -0.2985 -0.0360
 6340TIP3    H140511   6.040   3.310  12.851 -1.1801  0.4733 -0.9425
 6340TIP3    H240512   5.926   3.342  12.945 -1.2038  0.2435 -0.8931
 6341TIP3   OH240513   6.586   6.376  11.826  0.1048  0.0906 -0.3532
 6341TIP3    H140514   6.570   6.338  11.739  2.5277 -1.9586  0.0343
 6341TIP3    H240515   6.537   6.320  11.886 -0.0132  0.3317 -0.2270
 6342TIP3   OH240516   3.826   3.852   5.328  0.4431 -0.3155 -0.3818
 6342TIP3    H140517   3.842   3.887   5.240 -1.1927  0.7517 -0.2606
 6342TIP3    H240518   3.759   3.785   5.316 -0.5332  0.5434  0.1825
 6343TIP3   OH240519   5.235   4.186   4.140  0.8693 -0.1832 -0.2366
 6343TIP3    H140520   5.167   4.253   4.134 -1.0479 -2.0203  0.5710
 6343TIP3    H240521   5.235   4.143   4.055  4.1117  2.6423 -1.8058
 6344TIP3   OH240522   3.298   6.348   2.199 -0.1934  0.1755  0.5219
 6344TIP3    H140523   3.356   6.311   2.132 -2.4208 -3.0864  0.3174
 6344TIP3    H240524   3.308   6.290   2.275 -0.2030  1.9124  1.8873
 6345TIP3   OH240525   1.092   5.242  10.524 -0.1190 -0.6172 -0.0154
 6345TIP3    H140526   1.123   5.164  10.569 -0.2208 -0.4138  0.4125
 6345TIP3    H240527   1.003   5.255  10.558 -0.1063 -0.3230 -0.0921
 6346TIP3   OH240528   1.786   6.304  10.760  0.6941 -0.1089  0.1290
 6346TIP3    H140529   1.818   6.279  10.673  0.9973  0.8649 -0.0460
 6346TIP3    H240530   1.770   6.221  10.804  2.0213 -0.6114 -0.3082
 6347TIP3   OH240531   0.482   5.188  12.685 -0.2661  0.0398 -0.1795
 6347TIP3    H140532   0.437   5.110  12.715  0.8133  0.1700  1.8653
 6347TIP3    H240533   0.424   5.226  12.619 -2.6866 -0.3122  1.7006
 6348TIP3   OH240534   5.001   2.922   1.519  0.0507  0.1466 -0.1628
 6348TIP3    H140535   4.989   2.910   1.613  1.1593 -1.5819 -0.2252
 6348TIP3    H240536   5.094   2.941   1.508 -0.1398  0.6938 -0.8732
 6349TIP3   OH240537   5.539   3.546   2.565  0.5066  0.8281 -0.2350
 6349TIP3    H140538   5.564   3.632   2.531  0.0841  0.8815 -0.4034
 6349TIP3    H240539   5.568   3.485   2.497  0.3356  0.8760 -0.3502
 6350TIP3   OH240540   6.661   2.299   5.491  0.3040  0.0936  0.4090
 6350TIP3    H140541   6.580   2.312   5.442 -0.6583  0.5654  2.0557
 6350TIP3    H240542   6.657   2.208   5.521 -0.1794  0.4574  1.4607
 6351TIP3   OH240543   6.607   2.274  12.332 -0.0458 -0.0589  0.2698
 6351TIP3    H140544   6.603   2.180  12.314 -0.6445  0.1028 -0.4436
 6351TIP3    H240545   6.695   2.288  12.368  0.4746 -0.6838 -0.7627
 6352TIP3   OH240546   0.159   1.513  14.195  0.1956  0.2371 -0.4470
 6352TIP3    H140547   0.120   1.567  14.264 -2.7930  0.0885 -1.9330
 6352TIP3    H240548   0.147   1.564  14.115  1.2971 -0.7231 -1.2461
 6353TIP3   OH240549   3.619   3.265  15.575 -0.8573 -0.3592 -0.2743
 6353TIP3    H140550   3.709   3.235  15.569 -1.1806 -1.2745 -0.6438
 6353TIP3    H240551   3.581   3.246  15.489 -0.3168  3.6808 -1.5089
 6354TIP3   OH240552   0.986   3.703  12.130  0.2497 -0.1218 -0.2717
 6354TIP3    H140553   1.056   3.703  12.195  1.7782 -0.4281 -1.9000
 6354TIP3    H240554   1.021   3.654  12.056 -1.1334  0.9941 -1.7017
 6355TIP3   OH240555   1.278   2.900  14.045 -0.8346 -0.2432 -0.0426
 6355TIP3    H140556   1.328   2.827  14.082 -1.2282 -1.7020 -2.2607
 6355TIP3    H240557   1.262   2.959  14.118  0.2463 -1.9715  1.6149
 6356TIP3   OH240558   6.178   1.123   5.332  0.2702 -0.2899  0.2286
 6356TIP3    H140559   6.093   1.158   5.307  0.5717  0.0099 -0.3882
 6356TIP3    H240560   6.197   1.057   5.265  0.2417 -0.7943  0.7145
 6357TIP3   OH240561   1.458   5.897  13.707 -0.6529  0.3025 -0.1640
 6357TIP3    H140562   1.480   5.966  13.644  1.7414  0.2535  0.5580
 6357TIP3    H240563   1.391   5.844  13.663  0.5588  0.5942 -2.4418
 6358TIP3   OH240564   1.488   3.456   1.243 -0.5439  0.2818 -0.5964
 6358TIP3    H140565   1.533   3.418   1.319 -1.9657  0.2827  0.2608
 6358TIP3    H240566   1.430   3.387   1.212 -0.4019  0.4861 -1.3340
 6359TIP3   OH240567   0.314   5.884  14.592  0.5670 -0.2142  0.0527
 6359TIP3    H140568   0.333   5.793  14.569 -0.0981 -0.5352  0.7916
 6359TIP3    H240569   0.243   5.879  14.655 -0.0039  0.8618 -0.5017
 6360TIP3   OH240570   3.391   4.663   5.887 -0.4368 -0.2804 -0.0626
 6360TIP3    H140571   3.299   4.691   5.882 -0.4167 -0.0192  0.8681
 6360TIP3    H240572   3.391   4.596   5.956  0.1092 -0.1274  0.0829
 6361TIP3   OH240573   0.808   5.354   0.130  0.1129  0.1366 -0.7588
 6361TIP3    H140574   0.888   5.326   0.174 -0.1519  0.0774 -0.3107
 6361TIP3    H240575   0.822   5.447   0.110  0.0962  0.2468 -0.2503
 6362TIP3   OH240576   5.415   6.198   0.033  0.0371  0.6627 -0.1726
 6362TIP3    H140577   5.377   6.278   0.068 -0.9361 -0.0449  0.4125
 6362TIP3    H240578   5.417   6.212  -0.062  0.5918  1.6790 -0.0192
 6363TIP3   OH240579   0.686   2.332   3.463 -0.3827  0.1768 -0.5101
 6363TIP3    H140580   0.699   2.405   3.522  1.2745 -1.3887  1.1260
 6363TIP3    H240581   0.757   2.271   3.483 -0.3436 -0.8324 -3.4593
 6364TIP3   OH240582   5.596   1.496  11.336 -0.8233  0.0577 -0.3625
 6364TIP3    H140583   5.660   1.479  11.267  0.8878  0.2666  1.1535
 6364TIP3    H240584   5.589   1.413  11.384 -3.2908 -0.6153 -1.7775
 6365TIP3   OH240585   4.289   1.238   0.616  0.3479 -0.4296  0.1111
 6365TIP3    H140586   4.383   1.251   0.604 -0.3931  1.9600 -4.1263
 6365TIP3    H240587   4.263   1.186   0.539 -2.0445  0.3646  0.3619
 6366TIP3   OH240588   3.653   2.483  14.686  0.6670  0.1244  0.1628
 6366TIP3    H140589   3.634   2.559  14.632  0.9009  1.0993  1.4240
 6366TIP3    H240590   3.613   2.503  14.771  1.2632 -0.8959  0.6964
 6367TIP3   OH240591   1.678   4.768   6.655 -0.1678  0.2044 -0.2054
 6367TIP3    H140592   1.699   4.675   6.641  0.0255 -0.1136  2.0830
 6367TIP3    H240593   1.587   4.776   6.628 -0.5673 -0.9258  0.7793
 6368TIP3   OH240594   1.442   6.425  13.574 -0.2400  0.3768 -0.2159
 6368TIP3    H140595   1.494   6.365  13.627 -1.8211 -0.8878 -0.0573
 6368TIP3    H240596   1.455   6.395  13.484  0.0318  0.6171 -0.2539
 6369TIP3   OH240597   4.648   2.088   3.960  0.1225 -0.2105  0.1153
 6369TIP3    H140598   4.582   2.139   3.913 -0.3887 -0.6136  0.3851
 6369TIP3    H240599   4.658   2.133   4.044 -1.4777 -1.4142  0.9882
 6370TIP3   OH240600   1.010   5.727   1.290  0.1775 -0.2391 -0.5703
 6370TIP3    H140601   0.993   5.642   1.249 -0.0395  0.4742 -2.0084
 6370TIP3    H240602   0.947   5.786   1.249 -0.0287  0.5118  0.8066
 6371TIP3   OH240603   4.594   0.509   6.183  0.2583  0.4242 -0.0467
 6371TIP3    H140604   4.602   0.508   6.278 -1.1520  0.4012  0.0925
 6371TIP3    H240605   4.505   0.477   6.167  0.6396  0.0312 -1.3883
 6372TIP3   OH240606   2.983   6.700  15.632 -0.1037  0.7378  0.2650
 6372TIP3    H140607   3.039   6.631  15.667 -2.0991 -0.2354  1.6318
 6372TIP3    H240608   3.033   6.781  15.644  2.3373 -0.4434 -1.5086
 6373TIP3   OH240609   1.994   3.628   6.442  0.1188  0.0703 -0.2913
 6373TIP3    H140610   1.917   3.664   6.396 -1.5636 -0.1232  2.2693
 6373TIP3    H240611   1.995   3.536   6.417 -0.9804 -0.1078  0.2538
 6374TIP3   OH240612   3.778   2.704   2.974  0.5244 -0.3032  0.2325
 6374TIP3    H140613   3.778   2.663   3.060  1.8236  0.1957  0.4793
 6374TIP3    H240614   3.686   2.704   2.947  0.0249  0.1280  1.9024
 6375TIP3   OH240615   0.768   3.973  13.593  0.4964 -0.5363 -0.0025
 6375TIP3    H140616   0.793   4.024  13.516  1.7195 -0.5851  0.3461
 6375TIP3    H240617   0.676   3.951  13.579 -0.0980  1.8706 -0.1272
 6376TIP3   OH240618   1.726   0.023   1.103  0.1269  0.2698 -0.1325
 6376TIP3    H140619   1.815   0.041   1.072 -0.2761 -1.3780 -2.2813
 6376TIP3    H240620   1.726   0.055   1.194  2.7686  0.6679 -0.2404
 6377TIP3   OH240621   1.278   0.358  16.291  0.0455 -0.5510  0.1031
 6377TIP3    H140622   1.268   0.265  16.274  1.8484 -0.7521  0.0788
 6377TIP3    H240623   1.271   0.399  16.205  0.3907 -0.7703 -0.0306
 6378TIP3   OH240624   1.145   6.555   2.282  0.0359 -0.3908  0.5217
 6378TIP3    H140625   1.201   6.627   2.252 -0.0534  0.2316  1.8128
 6378TIP3    H240626   1.059   6.595   2.292  0.0763 -0.5737  1.6412
 6379TIP3   OH240627   1.380   2.136  11.713 -0.2796  0.5792 -0.1312
 6379TIP3    H140628   1.422   2.199  11.771  0.7176 -0.7108  0.5715
 6379TIP3    H240629   1.331   2.079  11.771 -0.9421  0.5241 -0.7404
 6380TIP3   OH240630   2.592   5.305   5.675 -0.0459 -0.0840  0.4745
 6380TIP3    H140631   2.526   5.368   5.646 -0.0661 -0.0153  0.6638
 6380TIP3    H240632   2.552   5.263   5.752 -0.9361 -1.8778 -0.9236
 6381TIP3   OH240633   2.008   1.820  13.311  0.7423 -0.3644 -0.0867
 6381TIP3    H140634   2.075   1.876  13.271  1.4528 -1.0217  0.1741
 6381TIP3    H240635   1.932   1.830  13.254  0.8179  0.9639  0.0187
 6382TIP3   OH240636   0.006   2.227  16.528 -0.1109 -0.2863  0.1432
 6382TIP3    H140637  -0.027   2.247  16.440 -0.9493 -0.9595  0.3047
 6382TIP3    H240638   0.097   2.199  16.513 -0.0115  0.3325 -0.4283
 6383TIP3   OH240639   3.288   2.944   2.681 -0.1373 -0.4817  0.8014
 6383TIP3    H140640   3.278   2.930   2.775  0.4227  0.7168  1.0504
 6383TIP3    H240641   3.379   2.922   2.663  0.8099  2.8083  1.2292
 6384TIP3   OH240642   2.735   1.713   0.494 -0.4867 -0.9838  0.1279
 6384TIP3    H140643   2.815   1.758   0.523 -0.6000  0.8848 -2.3292
 6384TIP3    H240644   2.669   1.739   0.559  0.2222 -0.2191  0.5685
 6385TIP3   OH240645   5.975   5.905  12.104 -0.3284  0.0624  0.0200
 6385TIP3    H140646   5.937   5.992  12.094  1.7830  1.0035 -0.0625
 6385TIP3    H240647   5.946   5.856  12.028 -0.9367  0.9220 -0.3002
 6386TIP3   OH240648   6.820   6.688  12.334 -0.2173 -0.2929  0.2334
 6386TIP3    H140649   6.855   6.726  12.254 -0.5625 -0.5437 -0.0388
 6386TIP3    H240650   6.870   6.608  12.347  1.2304  0.7765  1.3781
 6387TIP3   OH240651   2.132   0.894  16.282 -0.2989  0.5052  0.0477
 6387TIP3    H140652   2.076   0.906  16.359 -1.1464  0.0299 -0.4815
 6387TIP3    H240653   2.143   0.799  16.275 -0.7969  0.4978 -0.8024
 6388TIP3   OH240654   2.772   1.645   0.812  0.0745  0.5873  0.4772
 6388TIP3    H140655   2.812   1.646   0.725  0.1405 -3.6611  0.3415
 6388TIP3    H240656   2.684   1.681   0.798  0.4029  0.7884 -1.1449
 6389TIP3   OH240657   4.816   3.817  13.828 -0.3338 -0.2069 -0.7487
 6389TIP3    H140658   4.758   3.741  13.830 -1.0486  0.2631 -2.7466
 6389TIP3    H240659   4.757   3.892  13.832  0.3194  0.2523  0.3022
 6390TIP3   OH240660   6.553   0.119  14.761  0.3642 -0.1262  0.2249
 6390TIP3    H140661   6.601   0.158  14.688  0.1493  0.0679  0.1899
 6390TIP3    H240662   6.489   0.185  14.787 -2.1684 -1.6374 -1.9146
 6391TIP3   OH240663   2.577   5.434  15.522  0.9325  0.5977 -0.1680
 6391TIP3    H140664   2.506   5.399  15.576  1.8005  2.2571  2.0865
 6391TIP3    H240665   2.579   5.376  15.446 -2.9288  0.5708 -0.3760
 6392TIP3   OH240666   2.188   6.229  13.733 -0.4071 -0.1551  0.2735
 6392TIP3    H140667   2.145   6.217  13.648 -0.1252  0.7867 -0.0117
 6392TIP3    H240668   2.158   6.314  13.764  1.1472  0.4834  0.1081
 6393TIP3   OH240669   1.269   2.184   0.387  0.6349  0.4107  0.3506
 6393TIP3    H140670   1.245   2.192   0.479 -2.0347  1.6439 -0.4105
 6393TIP3    H240671   1.268   2.273   0.354  0.7036 -0.1156 -1.0905
 6394TIP3   OH240672   5.050   3.850   1.518  0.3515 -0.1684  0.4715
 6394TIP3    H140673   5.039   3.926   1.576  1.1909 -1.1486  1.9426
 6394TIP3    H240674   5.040   3.774   1.576  1.0050 -1.1633 -0.7077
 6395TIP3   OH240675   4.297   1.117  13.692 -0.0887 -0.4839 -0.3627
 6395TIP3    H140676   4.212   1.108  13.648  0.0347 -1.3128 -0.4325
 6395TIP3    H240677   4.287   1.066  13.773  0.9840 -2.2064 -1.2891
 6396TIP3   OH240678   2.808   3.345   1.394  0.2283 -0.2728 -0.4683
 6396TIP3    H140679   2.784   3.431   1.429 -0.9431 -1.0819  0.7348
 6396TIP3    H240680   2.904   3.341   1.404  0.2467  0.7270 -0.1734
 6397TIP3   OH240681   2.799   3.311  17.219 -0.9195 -0.4926 -0.5043
 6397TIP3    H140682   2.759   3.282  17.137 -1.6034  0.7240 -0.6046
 6397TIP3    H240683   2.883   3.265  17.222 -0.7652 -0.3320 -2.0245
 6398TIP3   OH240684   4.812   4.867   0.824 -0.3845  0.0359  0.3496
 6398TIP3    H140685   4.856   4.828   0.900  0.8623  0.4795 -0.1316
 6398TIP3    H240686   4.776   4.950   0.858 -0.0574  0.1079  0.5225
 6399TIP3   OH240687   2.262   2.169   0.150 -0.7175  0.3489  0.2792
 6399TIP3    H140688   2.300   2.173   0.063 -0.4587 -1.2946  0.3075
 6399TIP3    H240689   2.170   2.194   0.137 -1.2317 -1.9525 -0.8411
 6400TIP3   OH240690   3.672   6.758   1.708  0.2343  0.0026 -0.0998
 6400TIP3    H140691   3.768   6.753   1.705  0.3144  0.7375  0.8874
 6400TIP3    H240692   3.643   6.698   1.640  1.3504 -2.1631  1.2638
 6401TIP3   OH240693   0.504   4.465  14.669 -0.4532 -0.1592  0.1948
 6401TIP3    H140694   0.544   4.532  14.725 -2.4812  0.7400  0.5837
 6401TIP3    H240695   0.502   4.504  14.582  1.1965 -0.9377 -0.2267
 6402TIP3   OH240696   3.472   0.657   5.476 -0.0545  0.4450 -0.5494
 6402TIP3    H140697   3.551   0.604   5.484  0.3896  1.2282  0.3829
 6402TIP3    H240698   3.400   0.595   5.485  0.4372 -0.4898 -2.8581
 6403TIP3   OH240699   6.719   2.028   1.174 -0.4443  0.1795 -0.0569
 6403TIP3    H140700   6.647   2.091   1.178 -2.3692 -2.0384  1.8850
 6403TIP3    H240701   6.694   1.967   1.104  0.2227  0.1772 -0.2987
 6404TIP3   OH240702   4.868   0.998   4.008 -0.0177 -0.0277 -0.2691
 6404TIP3    H140703   4.963   1.001   4.017 -0.0517 -0.8763  0.4008
 6404TIP3    H240704   4.845   1.080   3.964  0.6193  2.1824  3.3218
 6405TIP3   OH240705   4.649   3.810  14.154 -0.4936 -0.1265  0.4831
 6405TIP3    H140706   4.617   3.900  14.146  1.0868  0.6759  2.7188
 6405TIP3    H240707   4.585   3.766  14.210 -1.6215 -0.6185 -1.1439
 6406TIP3   OH240708   0.217   2.145   4.539  0.4181 -0.3961  0.1779
 6406TIP3    H140709   0.301   2.126   4.580 -0.4378  0.0410  2.1785
 6406TIP3    H240710   0.176   2.059   4.529 -0.2981 -0.3348  2.3253
 6407TIP3   OH240711   2.715   6.520  11.382 -0.4796  0.1873 -0.0218
 6407TIP3    H140712   2.680   6.432  11.367  0.2987 -0.2403  0.6129
 6407TIP3    H240713   2.639   6.572  11.408 -0.9373 -0.3104 -0.3501
 6408TIP3   OH240714   1.117   2.811  13.842 -0.2624 -0.2171  0.3626
 6408TIP3    H140715   1.163   2.866  13.905  0.5075  0.3914 -0.6978
 6408TIP3    H240716   1.169   2.730  13.838 -1.9588 -1.4810  2.6751
 6409TIP3   OH240717   4.995   4.584   2.923  0.0971  0.5299  0.3684
 6409TIP3    H140718   5.032   4.502   2.955  0.4950  0.8701  0.7971
 6409TIP3    H240719   5.068   4.630   2.882 -0.0496  0.8086  0.4124
 6410TIP3   OH240720   0.966   3.555   2.630  0.1021 -0.0240  0.2756
 6410TIP3    H140721   0.889   3.569   2.685  0.8300  1.0310  1.0485
 6410TIP3    H240722   0.978   3.637   2.584 -0.2654 -0.7744 -1.1987
 6411TIP3   OH240723   2.771   1.756  14.120  0.2513  0.3801 -0.0988
 6411TIP3    H140724   2.846   1.737  14.063  1.2390  0.9886  0.9619
 6411TIP3    H240725   2.763   1.852  14.117  0.4436  0.4378  0.9152
 6412TIP3   OH240726   6.468   4.643  15.293 -0.6530  0.4229  0.2390
 6412TIP3    H140727   6.481   4.738  15.289 -0.1409  0.2895 -2.0054
 6412TIP3    H240728   6.401   4.625  15.228 -1.4532 -0.6710  1.3369
 6413TIP3   OH240729   6.158   4.529   3.191 -0.8205 -0.1346  0.3117
 6413TIP3    H140730   6.152   4.436   3.172  0.9795 -0.5986  1.8710
 6413TIP3    H240731   6.122   4.538   3.279  1.9489  0.0989  1.4844
 6414TIP3   OH240732   2.473   2.079   1.316  0.6539 -0.3439 -0.0830
 6414TIP3    H140733   2.378   2.091   1.325  0.6520 -0.5515  0.1849
 6414TIP3    H240734   2.497   2.133   1.241  0.6229  1.2111  1.0183
 6415TIP3   OH240735   4.853   1.529   0.067 -0.1396  0.1380  0.1272
 6415TIP3    H140736   4.827   1.451   0.115 -0.8691  0.6841  0.6445
 6415TIP3    H240737   4.772   1.560   0.026  0.5064 -0.4104 -1.5818
 6416TIP3   OH240738   4.742   1.726  16.397 -0.3517 -0.1262  0.1156
 6416TIP3    H140739   4.721   1.746  16.306 -0.2029  0.3042  0.1749
 6416TIP3    H240740   4.810   1.789  16.420 -2.4214  1.7116  1.4182
 6417TIP3   OH240741   5.642   0.798  14.240  0.1307  1.0057 -0.4491
 6417TIP3    H140742   5.610   0.710  14.256 -0.5510  1.4583  0.7166
 6417TIP3    H240743   5.565   0.849  14.217  0.5967  1.1881 -1.6642
 6418TIP3   OH240744   4.788   5.029  12.809 -0.2295 -0.4757 -0.3330
 6418TIP3    H140745   4.859   5.009  12.870 -1.2291 -2.0245  0.3672
 6418TIP3    H240746   4.815   4.989  12.726 -0.8378 -2.1793  0.2657
 6419TIP3   OH240747   1.450   1.505   5.707  0.3541 -0.3429 -0.4569
 6419TIP3    H140748   1.399   1.578   5.742 -0.3169  1.4348 -4.8238
 6419TIP3    H240749   1.404   1.427   5.738 -1.0633  1.1047  1.2359
 6420TIP3   OH240750   3.961   0.692   2.538  0.2003 -0.2640 -0.0067
 6420TIP3    H140751   4.002   0.618   2.583 -0.7540 -0.1673  1.0486
 6420TIP3    H240752   3.999   0.770   2.579 -0.2458 -0.1763  0.2485
 6421TIP3   OH240753   5.380   3.551   6.181  0.1632  0.2437 -0.5446
 6421TIP3    H140754   5.440   3.621   6.208  0.2773  0.5508 -1.6005
 6421TIP3    H240755   5.424   3.470   6.210 -0.5952  0.6449  1.8871
 6422TIP3   OH240756   5.304   3.657   3.810 -0.2256  0.1458  0.4159
 6422TIP3    H140757   5.356   3.736   3.822  2.5659 -1.3365 -1.2388
 6422TIP3    H240758   5.296   3.648   3.715 -3.2843  0.1390  0.6190
 6423TIP3   OH240759   0.315   3.904   1.482 -0.4683 -0.6042  0.8985
 6423TIP3    H140760   0.265   3.825   1.504  1.4717 -2.0588  0.2717
 6423TIP3    H240761   0.407   3.878   1.492  0.1905  1.9253  1.7692
 6424TIP3   OH240762   5.731   3.284  13.188 -0.3550 -0.3673  0.5810
 6424TIP3    H140763   5.647   3.287  13.235 -2.0835  2.0798 -2.4760
 6424TIP3    H240764   5.716   3.220  13.118  0.7620 -0.8014  0.7303
 6425TIP3   OH240765   2.115   1.364   3.340  0.2901  0.2377 -0.2639
 6425TIP3    H140766   2.068   1.390   3.260  0.4637  1.5804  0.0631
 6425TIP3    H240767   2.046   1.350   3.404  0.1352 -1.0475 -0.6868
 6426TIP3   OH240768   4.140   4.594  15.808  0.6486 -0.4919 -0.1918
 6426TIP3    H140769   4.075   4.577  15.741 -0.9749  1.3066  0.8698
 6426TIP3    H240770   4.152   4.510  15.852 -1.8328 -0.6047  0.3491
 6427TIP3   OH240771   2.695   2.640  13.720  0.6297 -0.3353  0.3056
 6427TIP3    H140772   2.781   2.646  13.679  1.0745  0.5068  1.3542
 6427TIP3    H240773   2.663   2.730  13.721 -0.3230 -0.6627 -0.1891
 6428TIP3   OH240774   1.801   0.300  11.506  0.0355  0.5977  0.4002
 6428TIP3    H140775   1.866   0.230  11.513 -1.1484 -0.5633  0.1448
 6428TIP3    H240776   1.718   0.257  11.526 -0.9802  1.4514 -1.7775
 6429TIP3   OH240777   3.503   1.575   5.457  0.1177  0.2954  0.8046
 6429TIP3    H140778   3.442   1.523   5.406  0.7286  0.7379 -0.3829
 6429TIP3    H240779   3.579   1.517   5.471  0.8165  0.8596 -0.5548
 6430TIP3   OH240780   0.382   6.800   5.132  0.0985  0.1926  0.0524
 6430TIP3    H140781   0.427   6.875   5.171 -1.3603  0.4432  1.3164
 6430TIP3    H240782   0.313   6.778   5.195 -0.7459 -0.9592 -1.2400
 6431TIP3   OH240783   3.518   4.813   2.527  0.3185  0.0056 -0.2282
 6431TIP3    H140784   3.457   4.844   2.461 -0.8577 -0.3232  0.6947
 6431TIP3    H240785   3.604   4.819   2.485 -0.3242  0.6148 -1.4738
 6432TIP3   OH240786   4.593   6.643  16.543  0.5931  0.1911 -0.3338
 6432TIP3    H140787   4.530   6.581  16.508  0.2424  0.8655 -0.9166
 6432TIP3    H240788   4.551   6.680  16.620  1.5141 -1.5653  1.0504
 6433TIP3   OH240789   4.227   1.244   5.872 -0.1551 -0.0018  0.0223
 6433TIP3    H140790   4.228   1.264   5.965 -0.1579  2.4506 -0.4700
 6433TIP3    H240791   4.167   1.308   5.834 -1.3021 -1.8983 -1.4864
 6434TIP3   OH240792   4.467   2.576  13.852  0.0886 -0.3311  0.4049
 6434TIP3    H140793   4.482   2.488  13.815 -2.1122 -0.5981  0.0818
 6434TIP3    H240794   4.374   2.593  13.835  0.3198  1.7465  1.1675
 6435TIP3   OH240795   3.954   1.644   5.360  0.1677 -0.1752  0.0453
 6435TIP3    H140796   3.940   1.650   5.454 -0.2383 -0.7044  0.0228
 6435TIP3    H240797   3.874   1.604   5.326  0.8857 -1.3206 -0.3445
 6436TIP3   OH240798   0.322   1.731  13.612  0.3129 -0.2752 -0.1753
 6436TIP3    H140799   0.415   1.736  13.636  0.4004 -0.8914 -0.3574
 6436TIP3    H240800   0.301   1.818  13.579  0.3198  0.4374  1.6481
 6437TIP3   OH240801   2.421   4.057  16.185  0.2383 -0.0181 -0.0205
 6437TIP3    H140802   2.436   4.100  16.101 -1.5223  0.4176 -0.1335
 6437TIP3    H240803   2.445   4.124  16.250 -0.0800  0.2579 -0.1830
 6438TIP3   OH240804   5.793   3.982  14.079  0.2197  0.0170  0.0373
 6438TIP3    H140805   5.732   4.054  14.062  0.0825 -0.4280 -1.4387
 6438TIP3    H240806   5.749   3.905  14.043  0.6663 -0.6962  0.9955
 6439TIP3   OH240807   6.767   0.644  13.753  0.4334 -0.2980  0.5803
 6439TIP3    H140808   6.820   0.580  13.706 -1.4852 -0.8268 -0.9167
 6439TIP3    H240809   6.695   0.594  13.789 -2.9345  1.3972 -3.3845
 6440TIP3   OH240810   2.529   4.782  12.413 -0.2666  0.3004  0.2080
 6440TIP3    H140811   2.558   4.753  12.500 -0.0878 -0.5566 -0.1268
 6440TIP3    H240812   2.448   4.734  12.399 -0.2449  0.3665 -0.1346
 6441TIP3   OH240813   0.666   2.980   3.008  0.2714 -0.8912 -0.1959
 6441TIP3    H140814   0.612   3.042   3.056  2.5544 -0.6062  2.0791
 6441TIP3    H240815   0.612   2.902   2.999 -1.5368  0.3759 -0.4986
 6442TIP3   OH240816   3.473   5.751  15.326  0.5205  0.2787  0.0306
 6442TIP3    H140817   3.378   5.757  15.331  0.4466 -0.6926 -0.0468
 6442TIP3    H240818   3.489   5.698  15.247  1.0934 -0.3540  0.5673
 6443TIP3   OH240819   4.328   5.085   4.254 -0.3306 -0.3604 -0.5943
 6443TIP3    H140820   4.314   5.180   4.259 -0.3636 -0.3395 -1.0367
 6443TIP3    H240821   4.403   5.069   4.311  0.1005  0.0252 -1.0421
 6444TIP3   OH240822   4.876   0.590   4.787 -0.4532  0.1437 -0.2974
 6444TIP3    H140823   4.955   0.609   4.737 -1.8095 -0.7976 -2.8645
 6444TIP3    H240824   4.835   0.676   4.801 -0.6240  0.3069 -1.7589
 6445TIP3   OH240825   4.662   3.185  14.658 -0.5305  0.4957 -0.3283
 6445TIP3    H140826   4.693   3.271  14.684 -0.6659 -0.2442  2.4677
 6445TIP3    H240827   4.704   3.168  14.574  1.2811  2.3251  0.1782
 6446TIP3   OH240828   1.384   6.352  16.693  0.2148  0.6313  0.1658
 6446TIP3    H140829   1.459   6.293  16.689 -0.3159  0.0273 -1.0936
 6446TIP3    H240830   1.410   6.429  16.643  0.4059  0.9009  0.6760
 6447TIP3   OH240831   5.653   1.363   1.831 -0.2172 -0.0124  0.3292
 6447TIP3    H140832   5.719   1.302   1.863 -0.9648  0.0612  2.1085
 6447TIP3    H240833   5.615   1.321   1.755  0.1594 -1.1850  0.7852
 6448TIP3   OH240834   0.643   5.801  16.482 -0.2616 -0.7650 -0.0193
 6448TIP3    H140835   0.652   5.706  16.476 -0.0759 -0.6538 -1.6515
 6448TIP3    H240836   0.625   5.829  16.392 -0.0501  0.7722  0.4094
 6449TIP3   OH240837   0.202   3.803  11.514 -0.4127 -0.0680  0.4336
 6449TIP3    H140838   0.208   3.739  11.443  2.3233 -1.4273  1.7951
 6449TIP3    H240839   0.254   3.877  11.484  0.5014 -0.5243  0.8595
 6450TIP3   OH240840   1.440   0.729  13.014 -0.0477  0.3106  0.4054
 6450TIP3    H140841   1.478   0.667  12.953 -0.8333 -1.3985  1.6039
 6450TIP3    H240842   1.370   0.772  12.965 -0.7853 -1.1650  0.1302
 6451TIP3   OH240843   4.141   5.541  11.046 -0.1529 -0.2761  0.3852
 6451TIP3    H140844   4.194   5.463  11.058  0.3772 -0.0797 -0.6026
 6451TIP3    H240845   4.082   5.519  10.973 -0.8469 -0.1996  0.9225
 6452TIP3   OH240846   5.398   2.559  16.757 -0.2174 -0.2342  0.4653
 6452TIP3    H140847   5.420   2.605  16.838  0.4820 -0.1602  0.2347
 6452TIP3    H240848   5.396   2.627  16.690 -0.9402 -0.2750  0.4424
 6453TIP3   OH240849   0.204   6.563   3.248 -0.1572 -0.0433 -0.9582
 6453TIP3    H140850   0.185   6.550   3.341 -0.2639  1.6719 -0.7264
 6453TIP3    H240851   0.119   6.588   3.210  0.0063 -0.1764 -1.4151
 6454TIP3   OH240852   5.499   3.796   3.110  0.1948  0.0206  0.3196
 6454TIP3    H140853   5.411   3.794   3.149 -0.1619 -0.5922 -0.5135
 6454TIP3    H240854   5.484   3.791   3.016  1.0481  1.7151  0.0570
 6455TIP3   OH240855   1.138   1.607  15.981  0.1882 -0.0386  0.2370
 6455TIP3    H140856   1.161   1.699  15.994  1.5065 -0.4124  0.5906
 6455TIP3    H240857   1.201   1.576  15.915 -0.3756 -0.6316 -0.0240
 6456TIP3   OH240858   4.970   1.490   4.196  0.1163 -0.3586 -0.9027
 6456TIP3    H140859   4.981   1.402   4.160  1.6240 -0.1927 -0.9002
 6456TIP3    H240860   4.880   1.492   4.229  0.1975 -2.0242 -0.5581
 6457TIP3   OH240861   2.326   4.055  15.535  0.3489 -0.0721 -0.1293
 6457TIP3    H140862   2.284   4.130  15.493 -0.0638 -0.5401 -0.5758
 6457TIP3    H240863   2.299   4.060  15.627  2.7649  2.0055  0.5056
 6458TIP3   OH240864   3.581   5.600   2.368  0.1766 -0.0960 -0.0645
 6458TIP3    H140865   3.530   5.582   2.288  0.1051  3.5396 -0.9066
 6458TIP3    H240866   3.515   5.613   2.436  0.1099  0.3923 -0.2205
 6459TIP3   OH240867   3.125   6.028  13.672  0.2622 -0.6887  0.1790
 6459TIP3    H140868   3.146   6.120  13.661  2.7226 -1.1970  0.3225
 6459TIP3    H240869   3.122   6.014  13.766 -1.4891 -0.4797  0.1693
 6460TIP3   OH240870   2.467   4.628   5.317 -0.1466 -0.0268  0.0033
 6460TIP3    H140871   2.485   4.705   5.370 -0.1979  0.9642 -1.4018
 6460TIP3    H240872   2.485   4.655   5.227 -1.2010 -1.3219 -0.6294
 6461TIP3   OH240873   5.040   4.297  15.060 -0.4647  0.0872  0.2559
 6461TIP3    H140874   4.944   4.292  15.056 -0.7299  2.8009  1.7498
 6461TIP3    H240875   5.059   4.314  15.153  1.3820  0.6301 -0.2074
 6462TIP3   OH240876   4.440   0.658  15.718 -0.0561 -0.4935  0.4582
 6462TIP3    H140877   4.479   0.648  15.804  0.1804 -1.1839  0.2707
 6462TIP3    H240878   4.419   0.569  15.690 -1.8333 -0.1434  0.5856
 6463TIP3   OH240879   4.237   6.711  13.857  0.2256 -0.1599 -0.2684
 6463TIP3    H140880   4.230   6.806  13.864  0.9260 -0.0879 -0.4880
 6463TIP3    H240881   4.289   6.697  13.777  2.2228 -0.6530  1.0635
 6464TIP3   OH240882   6.162   1.885  15.423  0.1212  0.9417  0.3301
 6464TIP3    H140883   6.134   1.976  15.415 -0.0874  0.8028 -0.6118
 6464TIP3    H240884   6.232   1.876  15.358  0.4410  0.5419  0.7253
 6465TIP3   OH240885   3.521   5.319   3.989  0.2269  0.0782 -0.1177
 6465TIP3    H140886   3.573   5.305   4.068 -1.4736  0.3780  1.0753
 6465TIP3    H240887   3.450   5.256   3.995 -0.8973  1.2697 -0.5276
 6466TIP3   OH240888   2.984   0.677  13.334 -0.8232 -0.1268  0.4851
 6466TIP3    H140889   2.986   0.756  13.279 -1.3424  1.7452  3.0462
 6466TIP3    H240890   2.892   0.670  13.361 -0.1352  0.4948  3.1487
 6467TIP3   OH240891   5.641   0.540   6.162 -0.2328  0.3530  0.1775
 6467TIP3    H140892   5.612   0.604   6.228 -1.4502  0.8075 -0.7730
 6467TIP3    H240893   5.685   0.593   6.096 -1.6850  0.2993 -0.8603
 6468TIP3   OH240894   4.276   5.113   1.168  0.0970  0.3735  0.3877
 6468TIP3    H140895   4.252   5.184   1.228  1.2702  0.2710  0.9896
 6468TIP3    H240896   4.242   5.141   1.083  2.0590  2.4972  0.2575
 6469TIP3   OH240897   4.221   4.912  10.779 -0.0648 -0.0880  0.0459
 6469TIP3    H140898   4.213   4.961  10.861  1.3313  0.3813 -0.0920
 6469TIP3    H240899   4.315   4.912  10.760 -0.4815  0.6823 -2.0786
 6470TIP3   OH240900   1.728   2.152  12.411 -0.2562  0.0260 -0.0875
 6470TIP3    H140901   1.678   2.214  12.465 -2.0076 -0.3184 -1.2610
 6470TIP3    H240902   1.666   2.081  12.394  1.0960 -1.0814 -0.4391
 6471TIP3   OH240903   4.986   4.981  15.276  0.1180  0.1260 -0.6977
 6471TIP3    H140904   4.924   4.910  15.294  0.1328 -0.0674 -1.4159
 6471TIP3    H240905   5.021   4.962  15.189  1.4983  0.0090 -0.1252
 6472TIP3   OH240906   1.569   3.778   0.766 -0.3284  0.0683 -0.2991
 6472TIP3    H140907   1.588   3.687   0.744  1.9774  0.1537  1.1696
 6472TIP3    H240908   1.542   3.775   0.858  2.3502  1.1287  0.5649
 6473TIP3   OH240909   1.900   4.103   5.807  1.0802  0.4008 -0.0662
 6473TIP3    H140910   1.960   4.129   5.738 -0.2805  0.3671 -1.2874
 6473TIP3    H240911   1.831   4.054   5.762  0.4512 -0.0818  1.3817
 6474TIP3   OH240912   3.937   5.235   4.163 -0.0595  0.6745 -0.0504
 6474TIP3    H140913   3.879   5.207   4.092 -0.8837  1.5113  0.2874
 6474TIP3    H240914   3.959   5.154   4.209 -1.3091  0.4107  0.0912
 6475TIP3   OH240915   3.377   5.186  15.744  0.1741  0.2990  0.0006
 6475TIP3    H140916   3.390   5.272  15.706 -1.5491  0.9551  0.8429
 6475TIP3    H240917   3.421   5.190  15.829  0.3880  0.2298 -0.1060
 6476TIP3   OH240918   0.560   4.670  12.288 -0.1148  0.1435  0.1681
 6476TIP3    H140919   0.655   4.676  12.277 -0.1787 -2.0340 -1.8474
 6476TIP3    H240920   0.525   4.702  12.205 -1.2492  2.6929  1.5595
 6477TIP3   OH240921   0.366   1.578  11.856  0.3065 -0.0551 -0.7460
 6477TIP3    H140922   0.308   1.632  11.803  1.9465  1.6969 -0.7784
 6477TIP3    H240923   0.392   1.634  11.929  2.0785 -0.7483 -0.8168
 6478TIP3   OH240924   6.395   1.142  12.518  0.1132 -0.1844  0.4732
 6478TIP3    H140925   6.354   1.212  12.467  0.5031 -0.2879  0.0162
 6478TIP3    H240926   6.431   1.082  12.453 -1.5231 -1.6075  0.8328
 6479TIP3   OH240927   4.343   3.698  16.078  0.1097 -0.1528  0.3828
 6479TIP3    H140928   4.347   3.745  15.994 -0.7611 -0.4482  0.1685
 6479TIP3    H240929   4.400   3.747  16.136 -0.8198  1.1908  0.1727
 6480TIP3   OH240930   2.550   5.954   3.481 -0.1344 -0.1742 -0.0584
 6480TIP3    H140931   2.520   6.024   3.539  1.3540  1.3840 -1.0958
 6480TIP3    H240932   2.539   5.874   3.532  0.7058  1.1049  2.2222
 6481TIP3   OH240933   4.144   3.245   1.228 -0.0355 -0.0556  0.5427
 6481TIP3    H140934   4.204   3.229   1.155 -0.5743 -1.3577  0.3666
 6481TIP3    H240935   4.182   3.319   1.275  1.3302 -0.4215  0.0285
 6482TIP3   OH240936   1.223   0.490   6.173  0.3496  0.3271 -0.3274
 6482TIP3    H140937   1.225   0.474   6.079 -1.1855 -1.0682 -0.1621
 6482TIP3    H240938   1.130   0.500   6.194  0.4576 -1.6667  1.3601
 6483TIP3   OH240939   3.896   2.416   0.870 -0.2302 -0.6671 -0.3288
 6483TIP3    H140940   3.865   2.345   0.814 -0.2439 -0.0654 -1.0907
 6483TIP3    H240941   3.991   2.415   0.860 -0.2729 -0.1959 -0.8116
 6484TIP3   OH240942   5.552   1.086  14.383 -0.3762 -0.2714 -0.0289
 6484TIP3    H140943   5.523   1.056  14.297 -0.5436 -0.8598  0.2261
 6484TIP3    H240944   5.495   1.159  14.404 -0.9772 -0.7484  0.0041
 6485TIP3   OH240945   3.402   5.133  14.351  0.2722 -0.5708  0.0340
 6485TIP3    H140946   3.318   5.174  14.333  0.3786 -0.1465  0.4751
 6485TIP3    H240947   3.413   5.141  14.446  1.9414  1.6769 -0.2791
 6486TIP3   OH240948   1.301   4.520   1.972  0.2510 -0.2333 -0.1269
 6486TIP3    H140949   1.284   4.567   2.054 -0.0957  0.9024 -0.8457
 6486TIP3    H240950   1.347   4.584   1.917 -2.9072  0.2947 -2.2524
 6487TIP3   OH240951   0.147   1.868  13.782 -0.8256  0.2803 -0.3476
 6487TIP3    H140952   0.185   1.951  13.754  0.5032 -0.0122  0.5273
 6487TIP3    H240953   0.191   1.802  13.727 -0.6346  0.0160  0.1115
 6488TIP3   OH240954   1.049   6.288   2.919 -0.3794 -0.4066 -0.6130
 6488TIP3    H140955   1.063   6.381   2.939  1.4380 -1.1896  2.0418
 6488TIP3    H240956   0.954   6.278   2.920 -0.5888  1.3435 -0.5341
 6489TIP3   OH240957   2.734   2.289   0.922 -0.0860 -0.6694  0.2102
 6489TIP3    H140958   2.794   2.289   0.996  1.5900 -0.8810 -1.1337
 6489TIP3    H240959   2.730   2.381   0.895  1.1714 -0.9405 -0.9231
 6490TIP3   OH240960   2.243   1.106  12.601 -0.1222  0.5833 -0.2231
 6490TIP3    H140961   2.281   1.107  12.689 -0.8071  0.7013  0.0783
 6490TIP3    H240962   2.218   1.197  12.585 -3.7219 -0.0597  1.1305
 6491TIP3   OH240963   4.095   1.376   2.481  0.0541  0.5452 -0.3013
 6491TIP3    H140964   4.093   1.335   2.394 -1.5820 -0.4276  0.1622
 6491TIP3    H240965   4.167   1.332   2.527  1.8254  2.0362 -1.6035
 6492TIP3   OH240966   5.546   5.259  16.554  0.1558  0.1198 -0.4910
 6492TIP3    H140967   5.599   5.266  16.634  0.6991  0.6534 -0.8926
 6492TIP3    H240968   5.456   5.260  16.585  0.3676  0.0215  0.1425
 6493TIP3   OH240969   4.484   3.378  16.602  0.0732  0.5003  0.2564
 6493TIP3    H140970   4.565   3.422  16.626 -0.0081  1.4011 -1.0948
 6493TIP3    H240971   4.484   3.377  16.507 -1.1091 -0.2322  0.2486
 6494TIP3   OH240972   1.881   1.786   4.476  0.4543 -0.1086 -0.0608
 6494TIP3    H140973   1.859   1.879   4.467 -1.3074 -0.5156 -0.1161
 6494TIP3    H240974   1.972   1.786   4.504  1.5904  1.5399 -3.5575
 6495TIP3   OH240975   2.952   3.366  12.657  0.2200  0.1295 -0.6559
 6495TIP3    H140976   2.979   3.370  12.749 -1.7478 -0.9706 -0.0144
 6495TIP3    H240977   2.918   3.454  12.639 -0.3344  0.0451 -0.0320
 6496TIP3   OH240978   5.430   1.522  14.463  1.1150 -0.6893  0.1602
 6496TIP3    H140979   5.377   1.443  14.463 -0.1130  0.0838  1.7908
 6496TIP3    H240980   5.400   1.572  14.387 -1.1921  0.1465  1.5701
 6497TIP3   OH240981   0.529   3.217  12.878 -0.0629 -0.1613 -0.3662
 6497TIP3    H140982   0.535   3.309  12.854  0.2969  0.2576  1.2886
 6497TIP3    H240983   0.515   3.217  12.973 -1.3431 -1.7711 -0.5186
 6498TIP3   OH240984   0.386   1.271   5.624  0.4208  0.1288  0.5825
 6498TIP3    H140985   0.417   1.238   5.708  0.5806 -0.4058  0.3140
 6498TIP3    H240986   0.353   1.359   5.644 -0.7459 -0.4859  1.4558
 6499TIP3   OH240987   1.440   5.261  12.477 -0.4458  0.2028 -0.8351
 6499TIP3    H140988   1.481   5.186  12.434  1.4095  0.1707  0.8802
 6499TIP3    H240989   1.357   5.228  12.511 -0.2913 -0.6947 -1.3223
 6500TIP3   OH240990   5.090   6.486  16.571 -0.6985 -0.0130  0.0366
 6500TIP3    H140991   5.096   6.561  16.630 -1.7172  0.0824  0.0387
 6500TIP3    H240992   5.118   6.519  16.486 -1.5899  0.5040 -0.0645
 6501TIP3   OH240993   1.091   5.166  17.233  0.3233 -0.0306  0.2454
 6501TIP3    H140994   1.106   5.082  17.278  0.6642 -0.5575 -0.8397
 6501TIP3    H240995   1.050   5.142  17.151 -1.2061  1.0187  0.6989
 6502TIP3   OH240996   2.318   4.258   5.426 -0.3874  0.1363 -0.0984
 6502TIP3    H140997   2.286   4.198   5.494 -1.1550 -0.1769 -0.7256
 6502TIP3    H240998   2.331   4.202   5.349  1.0384  0.3805 -0.0554
 6503TIP3   OH240999   5.994   3.918   0.712 -0.3227 -0.0886 -0.0657
 6503TIP3    H141000   5.938   3.957   0.778  1.7011  1.2461  0.9007
 6503TIP3    H241001   5.993   3.980   0.639 -1.6988 -1.0496 -0.9006
 6504TIP3   OH241002   2.092   2.178   0.572  0.1859  0.0808  0.1254
 6504TIP3    H141003   2.086   2.229   0.491  0.1862 -1.4668 -0.8920
 6504TIP3    H241004   2.076   2.088   0.543  0.2924 -0.4959  1.8513
 6505TIP3   OH241005   1.100   6.742  14.534 -0.0817 -0.5401  0.2432
 6505TIP3    H141006   1.046   6.672  14.498 -0.1169  0.2436 -1.2422
 6505TIP3    H241007   1.045   6.783  14.601 -0.9414 -0.4109 -0.5398
 6506TIP3   OH241008   5.715   6.043  11.646  0.3150  0.5092 -0.2235
 6506TIP3    H141009   5.698   6.132  11.677 -2.0620  0.2893 -0.8130
 6506TIP3    H241010   5.771   6.054  11.569  0.0915  1.4827 -0.2497
 6507TIP3   OH241011   4.189   3.499   5.831 -0.3310  0.5401  0.4093
 6507TIP3    H141012   4.239   3.439   5.776 -2.9848 -0.1653 -1.3112
 6507TIP3    H241013   4.246   3.516   5.906  1.1331 -2.8206  0.1252
 6508TIP3   OH241014   4.040   6.340   0.723 -0.5596  0.4233  0.3003
 6508TIP3    H141015   4.037   6.346   0.818 -0.0629  0.8757  0.2928
 6508TIP3    H241016   3.985   6.264   0.701  1.1150 -1.0522  1.0968
 6509TIP3   OH241017   0.495   2.553   1.830  0.6979  0.1160  0.1589
 6509TIP3    H141018   0.430   2.617   1.801 -1.1476 -1.2616  1.1597
 6509TIP3    H241019   0.549   2.601   1.893 -1.1663  0.4740  1.5030
 6510TIP3   OH241020   6.280   1.822  14.628 -0.1316 -0.3866 -0.5055
 6510TIP3    H141021   6.332   1.779  14.560 -0.7301  1.1681 -1.9807
 6510TIP3    H241022   6.193   1.785  14.619 -1.0067  2.0434 -2.7078
 6511TIP3   OH241023   6.020   0.951   2.587  0.7169 -0.3200 -0.0549
 6511TIP3    H141024   6.067   0.868   2.581  1.2740  0.0381 -0.8776
 6511TIP3    H241025   5.937   0.930   2.628  1.8637 -0.8683  2.0749
 6512TIP3   OH241026   6.218   5.731  16.253 -0.4871  0.3039  0.0556
 6512TIP3    H141027   6.222   5.717  16.347  0.0574  1.6955  0.2452
 6512TIP3    H241028   6.135   5.776  16.238 -0.7692 -0.2829 -0.1890
 6513TIP3   OH241029   4.262   4.970   1.841 -0.2948 -0.4458 -0.5664
 6513TIP3    H141030   4.282   4.924   1.760  1.4365 -2.2212  0.8225
 6513TIP3    H241031   4.171   4.999   1.831 -0.4270 -1.5414 -2.6897
 6514TIP3   OH241032   2.667   3.245   0.182 -0.2312  0.0108 -0.0021
 6514TIP3    H141033   2.720   3.169   0.157 -0.5301 -0.2306  0.0897
 6514TIP3    H241034   2.699   3.316   0.127 -1.0638 -0.5744 -1.2639
 6515TIP3   OH241035   6.400   2.323  12.711 -0.1074  0.3081  0.4341
 6515TIP3    H141036   6.485   2.278  12.708 -0.4285 -0.2772  0.0795
 6515TIP3    H241037   6.366   2.304  12.798 -0.9657 -1.4846 -0.2677
 6516TIP3   OH241038   2.681   2.301  15.433  0.6551  0.0408  0.1171
 6516TIP3    H141039   2.722   2.350  15.362 -1.4886  3.4240  1.0495
 6516TIP3    H241040   2.728   2.329  15.512 -0.9816  1.1331  0.7343
 6517TIP3   OH241041   4.555   1.403  16.096 -0.1857  0.4301 -0.1221
 6517TIP3    H141042   4.515   1.389  16.010  0.1672  0.1903 -0.2490
 6517TIP3    H241043   4.614   1.328  16.107  0.7278  1.1174 -0.2310
 6518TIP3   OH241044   0.150   2.513   0.831 -0.3746  0.3922 -0.2091
 6518TIP3    H141045   0.189   2.587   0.878 -0.0747  0.7817 -1.0552
 6518TIP3    H241046   0.060   2.540   0.815 -0.5166  0.2024  0.2491
 6519TIP3   OH241047   5.480   5.673   2.995  0.6251 -0.3882  0.3727
 6519TIP3    H141048   5.464   5.721   2.914  1.9377  0.8890  0.8256
 6519TIP3    H241049   5.576   5.666   3.000  0.4641 -2.7768  0.4998
 6520TIP3   OH241050   5.372   0.775   0.862 -0.0506 -0.0483  0.8517
 6520TIP3    H141051   5.369   0.752   0.955 -0.1905  3.2783  1.7454
 6520TIP3    H241052   5.285   0.812   0.845  0.4306  0.5582 -0.2817
 6521TIP3   OH241053   6.658   0.821   4.835  0.1202 -0.0520 -0.1127
 6521TIP3    H141054   6.641   0.862   4.920  0.9087 -0.9637  0.4944
 6521TIP3    H241055   6.753   0.819   4.828  0.1106 -2.4006  0.1781
 6522TIP3   OH241056   1.436   6.271  11.743 -0.8225 -0.2540 -0.1776
 6522TIP3    H141057   1.403   6.351  11.702 -0.5384 -0.6971 -1.2749
 6522TIP3    H241058   1.518   6.253  11.698  0.6217  0.4717  2.0780
 6523TIP3   OH241059   2.541   4.105  12.565  0.0483  0.1220 -0.0879
 6523TIP3    H141060   2.573   4.175  12.509 -0.6821  2.7708  2.6349
 6523TIP3    H241061   2.446   4.115  12.564  0.0944  1.7307  3.3284
 6524TIP3   OH241062   1.486   3.912   1.405  0.4671 -0.0861 -0.7450
 6524TIP3    H141063   1.493   3.909   1.309 -1.9737 -1.1104 -0.9399
 6524TIP3    H241064   1.487   3.820   1.431 -0.8178  0.1075  0.0290
 6525TIP3   OH241065   1.725   3.650  12.387  0.2107  0.0599 -0.0891
 6525TIP3    H141066   1.723   3.568  12.436 -0.1882 -0.4106 -0.8874
 6525TIP3    H241067   1.795   3.639  12.323  0.7164  0.6673  0.3402
 6526TIP3   OH241068   0.143   3.562   3.622  0.3359 -0.8543 -0.0058
 6526TIP3    H141069   0.120   3.614   3.698 -0.4688 -0.3867 -0.5717
 6526TIP3    H241070   0.072   3.499   3.613  1.5338 -2.4102  0.9703
 6527TIP3   OH241071   3.209   5.850  15.749 -0.7929 -0.5139  0.0211
 6527TIP3    H141072   3.244   5.869  15.662  0.7050  0.7979  0.8736
 6527TIP3    H241073   3.250   5.766  15.773 -0.4363 -0.3940 -0.1540
 6528TIP3   OH241074   5.350   5.003  14.203  0.2172  0.0374 -0.3733
 6528TIP3    H141075   5.293   5.076  14.178 -2.4583 -1.9376 -0.3048
 6528TIP3    H241076   5.438   5.030  14.177 -0.8700  2.8654 -1.2126
 6529TIP3   OH241077   5.010   1.874   1.362  0.4587 -0.4668  0.2036
 6529TIP3    H141078   4.944   1.836   1.421 -0.2587 -0.7059 -0.7419
 6529TIP3    H241079   4.962   1.936   1.308  0.7380 -1.5623 -1.3538
 6530TIP3   OH241080   0.162   6.803   4.959 -1.1100  0.2596 -0.8309
 6530TIP3    H141081   0.229   6.797   5.027 -2.6900  0.9579  0.8534
 6530TIP3    H241082   0.194   6.747   4.888  1.3014  0.7106 -0.1521
 6531TIP3   OH241083   3.961   5.049   3.721  0.1309 -1.2086  0.3304
 6531TIP3    H141084   3.927   4.960   3.710 -0.3510 -1.0590  0.5960
 6531TIP3    H241085   3.960   5.086   3.633  0.5922 -1.5580  0.1756
 6532TIP3   OH241086   4.059   2.831  10.579  0.2003  0.2482  0.3137
 6532TIP3    H141087   4.058   2.780  10.499  0.2594  0.7615 -0.0147
 6532TIP3    H241088   3.971   2.870  10.584  0.1556  0.1213  0.5625
 6533TIP3   OH241089   2.132   6.713   1.094  0.4094  0.4336 -0.7621
 6533TIP3    H141090   2.087   6.664   1.025 -2.0416  0.5744  0.6552
 6533TIP3    H241091   2.093   6.801   1.089  1.3216  0.8806 -0.1865
 6534TIP3   OH241092   0.068   0.374   0.242 -0.0306  0.3350 -0.3159
 6534TIP3    H141093   0.085   0.297   0.297  0.9218  1.5608  1.1719
 6534TIP3    H241094   0.070   0.341   0.153  0.0723 -1.4214  0.3164
 6535TIP3   OH241095   1.930   5.886   4.710 -0.3724 -0.0367 -0.5883
 6535TIP3    H141096   1.926   5.965   4.763  1.3102  0.8074 -1.6564
 6535TIP3    H241097   1.970   5.821   4.767  0.4160  0.5545 -0.4618
 6536TIP3   OH241098   5.029   0.523   5.387  0.4012  0.3876 -0.2146
 6536TIP3    H141099   5.001   0.609   5.356  0.0602  0.4039  0.1357
 6536TIP3    H241100   5.109   0.504   5.336 -0.3632  0.2378 -1.3761
 6537TIP3   OH241101   4.343   0.971  13.937 -0.1484  0.0762  0.1255
 6537TIP3    H141102   4.331   0.929  14.023  0.0512  0.3264  0.2787
 6537TIP3    H241103   4.428   1.015  13.944 -0.8371  1.4164  0.3500
 6538TIP3   OH241104   2.267   4.024  12.452 -0.4405  0.0957  0.3836
 6538TIP3    H141105   2.332   4.066  12.395 -0.2992 -0.8142 -0.1281
 6538TIP3    H241106   2.213   3.971  12.392 -1.3104  0.4077  0.8762
 6539TIP3   OH241107   5.145   6.355   1.989  0.0262 -0.4907  0.1064
 6539TIP3    H141108   5.233   6.382   1.966  0.2131  0.4802  1.8517
 6539TIP3    H241109   5.157   6.293   2.061 -0.7367  0.1097  0.7632
 6540TIP3   OH241110   4.977   3.737   2.754 -0.1724  0.2754  0.2497
 6540TIP3    H141111   5.037   3.781   2.814  1.3563 -0.7131 -0.5190
 6540TIP3    H241112   4.972   3.647   2.787 -2.9189  0.8610  1.5461
 6541TIP3   OH241113   3.145   2.978  12.029 -0.7052  0.0750 -0.2944
 6541TIP3    H141114   3.125   2.936  11.946  0.2409 -0.6736 -0.1575
 6541TIP3    H241115   3.060   3.000  12.067 -1.2244 -2.0393 -0.2069
 6542TIP3   OH241116   4.249   3.950  11.326 -0.3399  0.2504  0.2066
 6542TIP3    H141117   4.206   3.975  11.408 -1.2506  0.2805 -0.2866
 6542TIP3    H241118   4.232   4.022  11.266 -1.0065 -0.4915 -0.5016
 6543TIP3   OH241119   0.443   0.135  17.166  0.1499 -0.2279 -1.0043
 6543TIP3    H141120   0.353   0.105  17.161  0.0451 -0.1527  0.2021
 6543TIP3    H241121   0.437   0.230  17.160  0.0777 -0.1773 -0.2282
 6544TIP3   OH241122   5.220   2.812  11.818  0.5061  0.1445  0.1816
 6544TIP3    H141123   5.208   2.863  11.898 -1.2434 -1.2305  0.8334
 6544TIP3    H241124   5.138   2.824  11.770  1.5142  0.9036 -1.4001
 6545TIP3   OH241125   4.789   4.883  14.221  0.1737 -0.8352 -0.7348
 6545TIP3    H141126   4.789   4.856  14.313  0.0171 -0.3349 -0.5825
 6545TIP3    H241127   4.763   4.805  14.173  2.9348 -1.8782 -0.5938
 6546TIP3   OH241128   0.200   4.184   4.484 -0.0830  0.0355  0.0415
 6546TIP3    H141129   0.292   4.166   4.500  0.0633 -0.4344 -1.2600
 6546TIP3    H241130   0.158   4.098   4.488 -0.4974  0.2725  0.8377
 6547TIP3   OH241131   2.068   6.793   3.821  0.2256  0.7300 -0.2675
 6547TIP3    H141132   1.974   6.776   3.832  0.2887  0.4542 -0.1464
 6547TIP3    H241133   2.103   6.796   3.910  0.4794 -0.0249 -0.3374
 6548TIP3   OH241134   0.602   5.831  14.671  0.3005  0.0816  0.5524
 6548TIP3    H141135   0.600   5.740  14.641  1.9917  0.4798 -0.8142
 6548TIP3    H241136   0.535   5.834  14.740  0.4707 -2.2759  0.8881
 6549TIP3   OH241137   4.453   0.982  14.906  0.4104  0.1730  0.6406
 6549TIP3    H141138   4.363   1.015  14.896  0.3839 -0.1086 -0.1550
 6549TIP3    H241139   4.491   1.036  14.975 -0.2882  0.4750  0.8012
 6550TIP3   OH241140   2.328   4.376   3.647 -0.5002 -0.8404  0.1937
 6550TIP3    H141141   2.262   4.308   3.652 -0.0407 -1.2428  0.8774
 6550TIP3    H241142   2.295   4.438   3.582 -0.5090 -2.1446 -1.0507
 6551TIP3   OH241143   2.538   6.003  11.060  0.3102 -0.2557  0.0346
 6551TIP3    H141144   2.568   5.938  10.996 -2.7920 -0.7578 -0.9867
 6551TIP3    H241145   2.482   6.061  11.009  0.1410  1.0888  1.7325
 6552TIP3   OH241146   4.247   2.687   5.301 -0.3760 -0.6561  0.0895
 6552TIP3    H141147   4.164   2.704   5.346  0.6894 -2.2759  2.7939
 6552TIP3    H241148   4.248   2.749   5.229 -4.7246 -1.7406 -1.0758
 6553TIP3   OH241149   0.970   0.120  16.699 -0.5101  0.4234 -0.0084
 6553TIP3    H141150   0.903   0.188  16.698 -0.5973  0.3549 -3.1381
 6553TIP3    H241151   0.994   0.108  16.607  1.3955 -1.9166  0.7327
 6554TIP3   OH241152   5.793   1.673  14.748 -0.0963  0.1109 -0.0495
 6554TIP3    H141153   5.773   1.701  14.659 -1.4633  1.9042  0.7880
 6554TIP3    H241154   5.708   1.657  14.789  0.5657 -2.0615  0.5344
 6555TIP3   OH241155   5.933   3.750  15.626 -0.5573  0.3538 -0.2636
 6555TIP3    H141156   5.950   3.664  15.666 -0.9419  0.2708 -0.2719
 6555TIP3    H241157   6.008   3.804  15.652 -0.4495  0.0929 -0.0266
 6556TIP3   OH241158   0.053   2.059   4.832 -0.1381  0.2158  0.0893
 6556TIP3    H141159   0.059   1.966   4.853 -0.6561  0.1342 -0.0946
 6556TIP3    H241160   0.023   2.061   4.741 -1.0911  0.5601  0.4001
 6557TIP3   OH241161   1.041   2.640   4.390  0.1484 -0.3679 -0.6065
 6557TIP3    H141162   0.970   2.639   4.326  2.0965  2.5334 -2.9169
 6557TIP3    H241163   1.096   2.564   4.367 -1.1423 -1.5206  0.0290
 6558TIP3   OH241164   4.884   3.218   5.119 -0.0854  0.0252 -0.2082
 6558TIP3    H141165   4.908   3.176   5.036 -0.0633 -2.0664  0.8327
 6558TIP3    H241166   4.872   3.310   5.096 -2.5843 -0.9261 -3.0632
 6559TIP3   OH241167   4.615   6.281  12.083 -0.2197 -0.0395  0.1111
 6559TIP3    H141168   4.690   6.223  12.095 -0.5405 -0.4849  0.0068
 6559TIP3    H241169   4.653   6.365  12.058  0.2542 -0.1977  0.2956
 6560TIP3   OH241170   6.664   0.389   2.120 -0.3732  0.9066  0.1432
 6560TIP3    H141171   6.586   0.426   2.162 -0.1349  0.7344  0.7436
 6560TIP3    H241172   6.711   0.346   2.192 -0.3994 -0.1477 -0.4661
 6561TIP3   OH241173   5.669   2.226   2.288 -0.3566 -0.7109  0.4683
 6561TIP3    H141174   5.717   2.215   2.370  0.1088  1.1952  0.4856
 6561TIP3    H241175   5.656   2.137   2.255  1.4476 -1.3582  1.4594
 6562TIP3   OH241176   6.466   0.875  13.035 -0.3180 -0.5388  0.0082
 6562TIP3    H141177   6.546   0.909  12.993 -0.3053  1.1860  1.3588
 6562TIP3    H241178   6.412   0.952  13.048 -2.2061 -1.7026 -0.8360
 6563TIP3   OH241179   0.826   4.950   1.752  0.5398 -0.0680 -0.2075
 6563TIP3    H141180   0.844   5.029   1.804  0.0979 -0.5353  0.6501
 6563TIP3    H241181   0.788   4.888   1.813 -0.0139 -0.6212 -1.0932
 6564TIP3   OH241182   4.681   1.690  16.128 -0.3405  0.1799  0.2507
 6564TIP3    H141183   4.611   1.655  16.073  0.3873 -0.2949 -0.3898
 6564TIP3    H241184   4.692   1.781  16.098 -1.1702  0.4815  0.8517
 6565TIP3   OH241185   3.928   1.245  13.269 -0.0876  0.2643 -0.7233
 6565TIP3    H141186   3.954   1.156  13.292  1.6051  0.9679  0.1939
 6565TIP3    H241187   3.842   1.236  13.228 -0.3328 -1.6836  0.1988
 6566TIP3   OH241188   0.725   4.633  11.081  0.1269  0.1609 -0.3531
 6566TIP3    H141189   0.684   4.699  11.026  1.6106  0.4676 -1.1072
 6566TIP3    H241190   0.805   4.609  11.035  1.4106  0.4387  1.6546
 6567TIP3   OH241191   0.443   1.750   3.702  0.1338 -0.2289  0.2607
 6567TIP3    H141192   0.461   1.740   3.609  2.0606 -1.3580  0.7268
 6567TIP3    H241193   0.513   1.808   3.734  0.7048 -1.4952  1.3689
 6568TIP3   OH241194   2.523   3.519   6.391 -0.2107  0.2168 -0.1115
 6568TIP3    H141195   2.444   3.536   6.341 -0.3248 -1.7793 -0.6114
 6568TIP3    H241196   2.551   3.432   6.365  1.5873  0.4861  0.8238
 6569TIP3   OH241197   2.054   5.220   0.250  0.8452  0.2798 -0.5210
 6569TIP3    H141198   2.051   5.133   0.211  0.2211  0.1715 -0.2404
 6569TIP3    H241199   2.046   5.204   0.344 -2.7133  0.8288 -0.6614
 6570TIP3   OH241200   3.850   1.590  12.350 -0.2181  0.1315  0.0206
 6570TIP3    H141201   3.777   1.528  12.357 -0.9349  1.0132  0.3182
 6570TIP3    H241202   3.893   1.587  12.435 -0.1425 -0.0807 -0.0230
 6571TIP3   OH241203   0.667   5.419   2.202 -0.0545  0.1381  0.1158
 6571TIP3    H141204   0.671   5.426   2.107  0.6017 -0.5733  0.0876
 6571TIP3    H241205   0.584   5.375   2.220  0.0323 -0.1319 -0.1470
 6572TIP3   OH241206   5.783   4.574   6.286 -0.2313  0.1659 -0.1958
 6572TIP3    H141207   5.689   4.563   6.301 -0.2864  1.7919  0.8313
 6572TIP3    H241208   5.796   4.669   6.285  1.3685 -0.0389 -0.5457
 6573TIP3   OH241209   3.940   3.889   4.029 -0.1006 -0.5539 -0.3775
 6573TIP3    H141210   3.915   3.981   4.022 -0.2491 -0.6475 -1.1677
 6573TIP3    H241211   3.968   3.878   4.120 -0.8194  0.0835 -0.0747
 6574TIP3   OH241212   0.482   3.411   5.014 -1.2256  0.7171 -0.1143
 6574TIP3    H141213   0.392   3.423   4.983 -0.3437  1.8405 -2.3168
 6574TIP3    H241214   0.501   3.491   5.063 -1.1828  0.8119 -0.2839
 6575TIP3   OH241215   0.132   0.480   6.057 -0.0648 -0.2803 -0.0195
 6575TIP3    H141216   0.217   0.506   6.092 -0.1162 -0.0998 -0.0286
 6575TIP3    H241217   0.070   0.540   6.099 -0.0352  0.4821 -1.0539
 6576TIP3   OH241218   1.327   0.891   3.779 -0.4632 -1.0326  0.0789
 6576TIP3    H141219   1.239   0.930   3.788 -0.1647 -0.4958  0.6861
 6576TIP3    H241220   1.372   0.951   3.719  0.5617  0.5496  2.3671
 6577TIP3   OH241221   3.345   2.184  11.221  0.3733  0.1380 -0.5751
 6577TIP3    H141222   3.393   2.193  11.303 -1.5309  1.2068  0.4610
 6577TIP3    H241223   3.378   2.255  11.166  0.9944 -0.0038 -0.3845
 6578TIP3   OH241224   5.881   6.629   2.978  0.2786 -0.5422 -0.2227
 6578TIP3    H141225   5.929   6.549   2.957 -2.0228 -2.0309 -0.0231
 6578TIP3    H241226   5.841   6.612   3.063 -0.2776  0.7931 -0.1986
 6579TIP3   OH241227   1.542   0.206   6.786  0.2575 -0.4535 -0.0124
 6579TIP3    H141228   1.539   0.121   6.740 -1.4009 -0.2298 -0.3611
 6579TIP3    H241229   1.472   0.200   6.850  0.4244  0.5030  0.2554
 6580TIP3   OH241230   0.447   6.094   1.740 -0.1759  0.1224 -0.3585
 6580TIP3    H141231   0.450   6.069   1.648  0.0078  0.0424 -0.3330
 6580TIP3    H241232   0.515   6.160   1.749  0.3458 -0.4366 -0.1200
 6581TIP3   OH241233   6.765   0.294  13.202  0.1685  0.0274  0.3213
 6581TIP3    H141234   6.822   0.295  13.279 -0.6917 -1.3425  0.9987
 6581TIP3    H241235   6.679   0.271  13.237 -0.1080 -1.1997 -1.1179
 6582TIP3   OH241236   0.066   5.241   0.778  0.2099  0.2224  0.3955
 6582TIP3    H141237  -0.010   5.289   0.744  0.6817  0.6532 -0.0589
 6582TIP3    H241238   0.028   5.177   0.839 -0.5846 -0.0946 -0.4188
 6583TIP3   OH241239   6.134   3.313  17.109  0.3401  0.3864  0.5947
 6583TIP3    H141240   6.221   3.336  17.142  0.5511  0.6383 -0.1388
 6583TIP3    H241241   6.099   3.252  17.174  1.4426 -0.4569  0.3927
 6584TIP3   OH241242   4.997   2.096   1.761 -0.9022  0.0646  0.3619
 6584TIP3    H141243   5.040   2.011   1.762 -1.4777 -0.2456 -0.5277
 6584TIP3    H241244   5.047   2.148   1.699 -1.9524 -0.3832 -0.8770
 6585TIP3   OH241245   5.522   1.991   4.379 -0.2303 -0.5499 -0.2276
 6585TIP3    H141246   5.484   1.995   4.292  1.8307  0.2261 -1.1348
 6585TIP3    H241247   5.596   1.932   4.371 -0.0926 -0.5724  1.0274
 6586TIP3   OH241248   1.610   3.128  12.836 -0.1094 -0.6276 -0.4537
 6586TIP3    H141249   1.525   3.142  12.794 -0.3558 -0.3662  0.1194
 6586TIP3    H241250   1.610   3.036  12.860 -0.2296 -0.6315 -0.4656
 6587TIP3   OH241251   6.480   2.442  14.622  0.2536 -1.0310  0.0233
 6587TIP3    H141252   6.526   2.521  14.652 -1.5201  0.1162 -0.2050
 6587TIP3    H241253   6.429   2.414  14.697 -0.1816 -1.1678 -0.3249
 6588TIP3   OH241254   4.230   5.047   0.439  0.0835 -0.2713  0.3247
 6588TIP3    H141255   4.322   5.064   0.461  0.0765  1.0639 -0.5923
 6588TIP3    H241256   4.233   5.008   0.352 -0.3060  1.7183 -0.6185
 6589TIP3   OH241257   1.715   0.781   4.038  0.5051  0.4863  0.3654
 6589TIP3    H141258   1.742   0.814   3.952 -1.7614  0.2101 -0.5077
 6589TIP3    H241259   1.716   0.686   4.029  0.6619  0.4510  0.7666
 6590TIP3   OH241260   1.104   5.109  16.054 -0.2384  0.6734  0.0884
 6590TIP3    H141261   1.098   5.100  15.959 -1.0674 -0.9888  0.2967
 6590TIP3    H241262   1.130   5.023  16.086  1.1951  1.5164  1.2925
 6591TIP3   OH241263   5.263   1.990   1.076 -0.2077 -0.1952 -0.0379
 6591TIP3    H141264   5.352   1.963   1.051  0.8306 -0.0280  3.2194
 6591TIP3    H241265   5.221   1.909   1.105 -0.7240 -0.0618 -0.4104
 6592TIP3   OH241266   5.165   3.783  12.483  0.7414 -0.0180  0.4355
 6592TIP3    H141267   5.257   3.774  12.507  1.0426 -2.7255 -1.5543
 6592TIP3    H241268   5.166   3.833  12.401  0.5952 -1.8287 -0.6808
 6593TIP3   OH241269   6.166   6.336  12.536 -0.1487 -0.2094 -0.6256
 6593TIP3    H141270   6.193   6.281  12.610  0.3859  0.4801 -0.3105
 6593TIP3    H241271   6.187   6.425  12.562  0.2088  0.0248 -1.6852
 6594TIP3   OH241272   6.116   5.633   6.330  0.4156 -0.4586  0.3652
 6594TIP3    H141273   6.088   5.710   6.280  1.4451 -0.3792 -0.1054
 6594TIP3    H241274   6.065   5.637   6.411  1.0929  1.2087  0.7386
 6595TIP3   OH241275   3.236   3.845   1.422  0.1988 -0.5222  0.1430
 6595TIP3    H141276   3.306   3.891   1.376  1.0367 -0.8070  1.1202
 6595TIP3    H241277   3.182   3.809   1.352  1.0821 -0.3909 -0.6253
 6596TIP3   OH241278   2.543   3.051   1.078 -0.0834 -0.6954  0.4261
 6596TIP3    H141279   2.513   3.136   1.045  1.7576  0.1470  0.8748
 6596TIP3    H241280   2.538   3.059   1.173 -0.0499 -1.1462  0.4657
 6597TIP3   OH241281   3.506   4.972  14.000  0.3296 -0.1866  0.3641
 6597TIP3    H141282   3.485   4.904  14.064 -0.8697 -0.3891 -0.2103
 6597TIP3    H241283   3.427   4.977  13.945  1.4848 -0.3159 -1.3480
 6598TIP3   OH241284   4.783   4.078   0.789  0.1918  0.1688  0.6042
 6598TIP3    H141285   4.831   3.996   0.802  0.6632  0.3112 -0.2199
 6598TIP3    H241286   4.850   4.146   0.792 -0.0003  0.4022 -0.1816
 6599TIP3   OH241287   0.871   3.882  13.813  0.0949 -0.1884  0.1572
 6599TIP3    H141288   0.835   3.920  13.733 -0.5619 -0.5060  0.3065
 6599TIP3    H241289   0.836   3.793  13.817  1.7938 -0.9034 -0.2913
 6600TIP3   OH241290   4.346   5.764   2.907 -0.0640 -0.2095 -0.0843
 6600TIP3    H141291   4.309   5.798   2.988 -0.9706  0.3657 -0.7207
 6600TIP3    H241292   4.345   5.840   2.847  1.7991 -0.2800 -0.2294
 6601TIP3   OH241293   4.112   1.666   3.953 -0.3056  0.1548  0.1597
 6601TIP3    H141294   4.065   1.715   3.887 -0.2782 -1.6534 -1.2552
 6601TIP3    H241295   4.062   1.584   3.963  1.1407 -0.7212  0.4353
 6602TIP3   OH241296   0.278   2.337   3.758 -0.1546  0.0460 -0.7035
 6602TIP3    H141297   0.309   2.315   3.846  3.1748  0.9932 -1.5304
 6602TIP3    H241298   0.311   2.266   3.702 -0.1370  0.6925 -1.5277
 6603TIP3   OH241299   5.818   6.186  16.980 -0.2624 -0.3636 -0.0000
 6603TIP3    H141300   5.849   6.148  17.062 -0.5792 -1.4470 -0.3777
 6603TIP3    H241301   5.734   6.144  16.965 -1.2542  1.4832  0.2630
 6604TIP3   OH241302   4.738   1.221   3.897 -0.0079  0.3340  0.1455
 6604TIP3    H141303   4.654   1.178   3.883  0.7418 -0.8536 -0.7800
 6604TIP3    H241304   4.716   1.314   3.901 -1.1162  0.2312 -2.3272
 6605TIP3   OH241305   6.513   1.456   3.100 -0.4104 -0.2520  0.2960
 6605TIP3    H141306   6.485   1.534   3.147 -0.2061 -0.2035  0.3363
 6605TIP3    H241307   6.596   1.482   3.058 -0.8697 -0.1132 -0.5462
 6606TIP3   OH241308   5.319   4.560   1.900  0.3872 -0.4478  0.2002
 6606TIP3    H141309   5.232   4.561   1.860  0.4165  0.2877  0.1500
 6606TIP3    H241310   5.339   4.652   1.917  1.3763 -0.5726 -0.2579
 6607TIP3   OH241311   1.800   3.016  15.379 -0.3054  0.0730  0.5275
 6607TIP3    H141312   1.807   2.940  15.321  0.5166 -0.0738  0.8165
 6607TIP3    H241313   1.708   3.015  15.408  0.1175 -1.8897  1.9550
 6608TIP3   OH241314   2.291   3.572   3.861 -0.1295 -0.8615  0.1528
 6608TIP3    H141315   2.233   3.648   3.866  1.7623  0.6566 -0.7893
 6608TIP3    H241316   2.333   3.569   3.947 -0.6501 -1.2110  0.3980
 6609TIP3   OH241317   2.962   1.161   0.074  0.3235  0.3104  1.0061
 6609TIP3    H141318   2.909   1.219   0.019 -0.4159 -1.2965 -0.0328
 6609TIP3    H241319   2.939   1.184   0.164  0.0740  1.6386  0.6051
 6610TIP3   OH241320   0.899   3.427  13.780 -0.0331 -0.2677  0.0807
 6610TIP3    H141321   0.960   3.406  13.709 -0.3620  0.3961 -0.4020
 6610TIP3    H241322   0.837   3.488  13.741 -0.0668  0.3027  1.0109
 6611TIP3   OH241323   3.668   6.286   1.701  0.6401  0.0179  0.0783
 6611TIP3    H141324   3.644   6.366   1.655  1.7581  0.9650  1.0876
 6611TIP3    H241325   3.697   6.317   1.788  1.7689 -1.4093  0.2227
 6612TIP3   OH241326   4.203   4.632   1.352  0.1182  0.2546 -0.3470
 6612TIP3    H141327   4.205   4.694   1.426  2.8846  1.1024 -1.0735
 6612TIP3    H241328   4.169   4.683   1.279 -2.0563 -0.4249  0.1468
 6613TIP3   OH241329   5.206   6.808  13.995  0.2804  0.4234 -0.2824
 6613TIP3    H141330   5.288   6.760  14.010  1.1475  1.9116 -0.2282
 6613TIP3    H241331   5.224   6.897  14.025 -0.4102  1.5140 -2.9487
 6614TIP3   OH241332   4.775   3.056  11.410  0.3048  0.0709  0.4939
 6614TIP3    H141333   4.804   2.985  11.468  3.0534  0.7894  0.0923
 6614TIP3    H241334   4.821   3.040  11.328 -1.1531  0.8244 -0.4855
 6615TIP3   OH241335   2.301   2.578   4.184  0.0184 -0.1525 -0.0821
 6615TIP3    H141336   2.378   2.616   4.225  2.3660 -1.8033 -2.7993
 6615TIP3    H241337   2.293   2.624   4.100  0.0245 -2.2801 -1.2660
 6616TIP3   OH241338   4.338   4.704  14.943 -0.2633  0.0979 -0.0167
 6616TIP3    H141339   4.252   4.746  14.955  0.4810  1.3450  1.1119
 6616TIP3    H241340   4.342   4.684  14.850 -2.5070 -1.5735  0.2062
 6617TIP3   OH241341   0.303   4.150   5.110  0.2062 -0.2164  0.1408
 6617TIP3    H141342   0.221   4.168   5.156  0.4161  0.1319  0.3801
 6617TIP3    H241343   0.283   4.169   5.018  0.2078  0.4877  0.2896
 6618TIP3   OH241344   4.012   4.622  17.110 -0.4181  0.3572  0.6842
 6618TIP3    H141345   4.003   4.547  17.051  0.2671  0.7289  0.1012
 6618TIP3    H241346   3.974   4.695  17.061  2.0818  1.1078 -0.1727
 6619TIP3   OH241347   0.311   5.622  16.832 -0.1808 -0.0413 -0.1433
 6619TIP3    H141348   0.406   5.609  16.827 -0.2047 -0.3026  0.0641
 6619TIP3    H241349   0.295   5.640  16.925 -0.3128  0.1707 -0.2065
 6620TIP3   OH241350   1.310   5.989   3.531  0.0215  0.2812  0.4832
 6620TIP3    H141351   1.263   6.039   3.464 -1.5991  0.5699  1.8061
 6620TIP3    H241352   1.276   5.900   3.522  1.2185 -0.1099 -0.3332
 6621TIP3   OH241353   2.360   1.013  11.667 -0.1901  0.0383 -0.1525
 6621TIP3    H141354   2.322   0.980  11.748 -0.6935 -0.1511 -0.4619
 6621TIP3    H241355   2.428   1.074  11.695 -1.3677  1.1127  0.3917
 6622TIP3   OH241356   5.697   6.219  16.058 -0.0914 -0.2824  0.0190
 6622TIP3    H141357   5.738   6.305  16.066  0.0841 -0.2783 -0.9145
 6622TIP3    H241358   5.646   6.223  15.978  1.1007 -1.5243 -0.8473
 6623TIP3   OH241359   6.556   5.343  15.948 -0.1468 -0.3347  0.4881
 6623TIP3    H141360   6.607   5.366  16.027  1.0668 -0.8579 -0.1357
 6623TIP3    H241361   6.494   5.277  15.978  0.6962 -0.9570  0.8976
 6624TIP3   OH241362   0.990   5.530   3.867  0.0234  0.0588 -0.3971
 6624TIP3    H141363   0.911   5.584   3.877 -0.1490 -0.0824 -1.0109
 6624TIP3    H241364   0.956   5.443   3.845  0.3307 -0.1360 -0.1030
 6625TIP3   OH241365   0.199   6.278  10.911 -0.2059 -0.0580  0.4734
 6625TIP3    H141366   0.180   6.318  10.995  0.3573 -1.1501  1.1391
 6625TIP3    H241367   0.114   6.271  10.868 -0.2930  1.9322  0.2845
 6626TIP3   OH241368   6.699   3.642  15.630 -0.4170 -0.1131  0.3080
 6626TIP3    H141369   6.765   3.707  15.607  1.2816 -1.0287  2.4889
 6626TIP3    H241370   6.748   3.572  15.672 -2.4759 -1.9570 -0.2840
 6627TIP3   OH241371   5.377   6.635   3.907 -0.1451  0.2011 -0.5785
 6627TIP3    H141372   5.351   6.593   3.989  0.4198 -1.5899 -1.2872
 6627TIP3    H241373   5.380   6.563   3.844  3.6607  0.8027 -1.1953
 6628TIP3   OH241374   4.583   1.103  13.985 -0.3788 -0.5515  0.6745
 6628TIP3    H141375   4.607   1.182  13.936 -2.7683 -0.1092  0.1608
 6628TIP3    H241376   4.649   1.039  13.961 -0.1161  0.3951 -1.2274
 6629TIP3   OH241377   1.781   0.624  13.872 -0.2315 -0.2133 -0.2676
 6629TIP3    H141378   1.785   0.548  13.930 -0.3841 -0.7384 -0.9376
 6629TIP3    H241379   1.732   0.593  13.796 -4.3758  1.8327  1.3791
 6630TIP3   OH241380   5.671   5.283   5.971 -0.2492 -0.2647 -0.0683
 6630TIP3    H141381   5.653   5.326   6.055  0.5946  1.6392 -0.8346
 6630TIP3    H241382   5.743   5.223   5.990  1.3435  1.6666  0.1515
 6631TIP3   OH241383   3.870   5.577  12.543 -0.0013 -0.4022  0.3957
 6631TIP3    H141384   3.820   5.647  12.501  0.0175 -0.2394  0.6405
 6631TIP3    H241385   3.920   5.621  12.612  0.2530 -0.6079  0.3454
 6632TIP3   OH241386   2.509   0.375   0.647 -0.0016  0.5095  0.2202
 6632TIP3    H141387   2.520   0.398   0.555 -1.0555  0.5676  0.1066
 6632TIP3    H241388   2.508   0.279   0.649 -1.4162  0.5149 -0.0055
 6633TIP3   OH241389   6.374   2.969  15.048 -0.3739 -0.3804 -0.0744
 6633TIP3    H141390   6.376   3.024  14.969  1.0617  1.3284  1.1301
 6633TIP3    H241391   6.445   3.002  15.102 -0.7726 -2.1470  1.5570
 6634TIP3   OH241392   5.544   0.432   6.688 -0.0966  0.4368  0.6439
 6634TIP3    H141393   5.458   0.425   6.647  0.9874  0.0346 -1.6504
 6634TIP3    H241394   5.553   0.353   6.740  0.1626 -1.1266 -1.6915
 6635TIP3   OH241395   3.469   1.413  16.056 -0.4492 -0.2977 -0.5142
 6635TIP3    H141396   3.373   1.414  16.063 -0.4734  2.1842 -0.7357
 6635TIP3    H241397   3.486   1.414  15.962 -0.1715 -1.5434 -0.4933
 6636TIP3   OH241398   0.292   0.685   2.373 -0.0247  0.8985  0.0242
 6636TIP3    H141399   0.346   0.752   2.415 -0.4541  1.1781  0.1320
 6636TIP3    H241400   0.213   0.731   2.347  0.2790  0.7548 -1.1979
 6637TIP3   OH241401   2.365   0.201  14.986 -0.9591  0.6768  0.1575
 6637TIP3    H141402   2.432   0.269  14.979 -2.3218  2.1083  0.7399
 6637TIP3    H241403   2.319   0.204  14.902 -1.5791  1.0973  0.5042
 6638TIP3   OH241404   3.978   0.783  15.977  0.3558 -0.0058 -0.4398
 6638TIP3    H141405   3.942   0.696  15.962  0.4546 -0.1461  0.1095
 6638TIP3    H241406   4.073   0.771  15.972  0.3831 -0.0105  0.0268
 6639TIP3   OH241407   3.759   5.099  12.048  0.3875 -0.1610 -0.0999
 6639TIP3    H141408   3.671   5.107  12.086 -0.4349 -1.9918 -1.5168
 6639TIP3    H241409   3.784   5.189  12.027 -0.4638  0.5408  1.8240
 6640TIP3   OH241410   0.385   6.294   2.790 -1.1599  0.0189  0.1203
 6640TIP3    H141411   0.461   6.336   2.750 -0.3815 -1.9292 -0.4915
 6640TIP3    H241412   0.417   6.260   2.873 -1.9154  1.0215  0.8440
 6641TIP3   OH241413   5.229   5.223   4.618 -0.3872 -0.1775 -0.3968
 6641TIP3    H141414   5.217   5.309   4.578 -0.1788 -0.1520 -0.4079
 6641TIP3    H241415   5.146   5.204   4.662  0.0954  0.7407  0.9562
 6642TIP3   OH241416   3.349   4.010  15.559  0.3045 -0.1725  1.0094
 6642TIP3    H141417   3.303   3.952  15.620 -2.3415  0.6747 -0.1357
 6642TIP3    H241418   3.300   4.092  15.562  2.7958  1.3577  1.0626
 6643TIP3   OH241419   3.228   3.443   2.905 -0.4221  0.3214 -0.4046
 6643TIP3    H141420   3.173   3.380   2.860  2.4418 -3.1039  0.6317
 6643TIP3    H241421   3.317   3.424   2.874  0.5884  3.7925  0.0600
 6644TIP3   OH241422   3.973   5.002  14.058 -0.2319  0.7388  0.5049
 6644TIP3    H141423   3.915   4.927  14.048  0.4417  0.3652 -0.7145
 6644TIP3    H241424   4.040   4.990  13.990  0.3733  1.9804  0.8646
 6645TIP3   OH241425   4.907   5.235  13.951  0.0261 -0.0808  0.3272
 6645TIP3    H141426   4.880   5.277  13.869 -0.2991  0.3349  0.6492
 6645TIP3    H241427   4.985   5.186  13.927  0.3543  0.6274 -0.0759
 6646TIP3   OH241428   0.684   3.218  14.967  0.0659 -0.1386  0.1313
 6646TIP3    H141429   0.593   3.239  14.946  0.3950  0.9240 -0.2708
 6646TIP3    H241430   0.735   3.280  14.915  0.9650  0.6825  1.9469
 6647TIP3   OH241431   1.341   3.229   5.127  0.1694  0.3384 -0.2165
 6647TIP3    H141432   1.336   3.262   5.216 -1.4247  0.1220 -0.1984
 6647TIP3    H241433   1.249   3.224   5.099  0.2217 -4.6900  0.0444
 6648TIP3   OH241434   0.919   4.938  14.287  0.5000 -0.1039 -0.1039
 6648TIP3    H141435   0.989   4.926  14.222  0.7330 -3.9854  0.7476
 6648TIP3    H241436   0.937   4.872  14.354 -3.1979 -0.2327  0.8698
 6649TIP3   OH241437   5.476   5.593  12.022  0.2062 -0.0940 -0.3643
 6649TIP3    H141438   5.553   5.645  12.044 -0.8864  1.0012  0.9565
 6649TIP3    H241439   5.448   5.626  11.937  0.1409  0.7684 -0.0156
 6650TIP3   OH241440   1.444   0.100  14.374 -0.9407  0.2321  0.1400
 6650TIP3    H141441   1.436   0.071  14.465 -0.4994  0.3601  0.2220
 6650TIP3    H241442   1.359   0.082  14.336 -1.1686  0.2891  0.6139
 6651TIP3   OH241443   6.156   6.286  12.846  0.3147  0.2267  0.3102
 6651TIP3    H141444   6.061   6.290  12.838  0.1936 -0.4930  1.2815
 6651TIP3    H241445   6.187   6.371  12.813 -0.6948  0.6553  0.4508
 6652TIP3   OH241446   4.122   5.907   2.642 -0.0186 -0.0018  0.2560
 6652TIP3    H141447   4.092   5.816   2.647  0.5050 -0.1363  0.9946
 6652TIP3    H241448   4.132   5.923   2.548 -0.2113 -0.6809  0.1146
 6653TIP3   OH241449   4.715   0.338   3.609  0.4431 -0.1196 -0.5911
 6653TIP3    H141450   4.700   0.338   3.703  0.6637  0.8666 -0.5460
 6653TIP3    H241451   4.630   0.361   3.571  0.6150  0.5737 -0.5714
 6654TIP3   OH241452   1.966   4.172   0.249 -0.2904 -0.2453  0.1120
 6654TIP3    H141453   2.010   4.178   0.334  3.1470 -1.6357 -1.4874
 6654TIP3    H241454   1.969   4.079   0.228  2.3260  0.5013 -3.2202
 6655TIP3   OH241455   0.069   1.207   4.845  0.3588 -0.0117 -0.7452
 6655TIP3    H141456   0.001   1.177   4.785 -1.2618  4.3222 -1.3092
 6655TIP3    H241457   0.031   1.198   4.932  0.8067 -1.7233 -0.7192
 6656TIP3   OH241458   2.820   1.750  12.031 -0.7694  0.0703 -0.4119
 6656TIP3    H141459   2.882   1.685  11.998 -1.1300  0.7146 -2.3978
 6656TIP3    H241460   2.763   1.700  12.089  0.8115 -0.7749  0.4508
 6657TIP3   OH241461   3.127   1.991   0.822  0.0748 -0.1952  0.0580
 6657TIP3    H141462   3.211   1.957   0.794 -0.4694 -1.6361  0.1114
 6657TIP3    H241463   3.064   1.953   0.761 -0.5849  0.4732  0.3177
 6658TIP3   OH241464   4.614   0.024   4.110 -0.1610 -0.8697 -0.2510
 6658TIP3    H141465   4.694   0.060   4.072  0.4031 -0.1624  1.5442
 6658TIP3    H241466   4.563  -0.007   4.035  1.0265  0.2482 -1.5394
 6659TIP3   OH241467   0.487   0.143   6.954  0.4678  0.3232 -0.2575
 6659TIP3    H141468   0.460   0.144   7.045  0.8450  1.8824 -0.1528
 6659TIP3    H241469   0.407   0.163   6.905  0.2735 -0.4781 -0.2857
 6660TIP3   OH241470   0.818   6.296  15.823  0.2576 -0.5629  0.6363
 6660TIP3    H141471   0.768   6.371  15.792 -0.7716 -1.2220  0.6870
 6660TIP3    H241472   0.786   6.281  15.912 -0.4140 -1.7958  0.2049
 6661TIP3   OH241473   1.772   1.420   5.292 -0.0688 -0.1633 -0.4352
 6661TIP3    H141474   1.744   1.394   5.380  1.7547  0.7862  0.4572
 6661TIP3    H241475   1.727   1.503   5.277 -1.2000 -0.8292 -0.8552
 6662TIP3   OH241476   6.482   1.399   5.111 -0.1772  0.1998 -0.1067
 6662TIP3    H141477   6.395   1.437   5.120  0.2327  1.2027 -0.2563
 6662TIP3    H241478   6.488   1.336   5.183 -0.7478  0.6691  0.3617
 6663TIP3   OH241479   2.852   6.635   2.144  0.0125  0.2681  0.0842
 6663TIP3    H141480   2.885   6.681   2.067 -0.5900  1.0654  0.2983
 6663TIP3    H241481   2.762   6.664   2.153 -0.1333 -0.3508  0.6894
 6664TIP3   OH241482   2.805   4.013  15.004 -0.1724  0.1746 -0.5646
 6664TIP3    H141483   2.814   3.918  15.002 -1.1802  0.0595 -0.0634
 6664TIP3    H241484   2.839   4.038  15.090 -0.3038  0.2290 -0.5304
 6665TIP3   OH241485   5.804   3.447  12.027 -0.1355 -0.1694 -0.1486
 6665TIP3    H141486   5.893   3.433  12.059 -0.1251  0.9772  0.3378
 6665TIP3    H241487   5.808   3.424  11.934  0.1843 -2.0761  0.3085
 6666TIP3   OH241488   4.681   5.313  15.746 -0.2327  0.6437 -0.2264
 6666TIP3    H141489   4.671   5.237  15.803  0.9954  1.8848  1.6935
 6666TIP3    H241490   4.776   5.328  15.743 -0.4670  2.1160 -0.5329
 6667TIP3   OH241491   1.764   3.100  11.663  0.1356  0.2142  0.0894
 6667TIP3    H141492   1.698   3.071  11.726 -1.6812  1.3119 -1.2562
 6667TIP3    H241493   1.816   3.165  11.711  1.5402 -2.0732  1.7763
 6668TIP3   OH241494   5.482   2.120   0.075 -0.2237  0.1072 -0.0466
 6668TIP3    H141495   5.463   2.034   0.038  1.5101 -0.7026  0.9142
 6668TIP3    H241496   5.469   2.109   0.169 -0.5980  1.0784  0.0274
 6669TIP3   OH241497   4.692   2.078  10.750 -0.4170 -0.1098 -0.3522
 6669TIP3    H141498   4.706   2.165  10.713  1.1310 -0.2756 -0.1921
 6669TIP3    H241499   4.600   2.059  10.733 -1.0178  1.9690  0.4963
 6670TIP3   OH241500   2.254   5.444  14.821 -0.1412  0.2941  1.1561
 6670TIP3    H141501   2.235   5.358  14.783 -0.7550  0.7555  0.3954
 6670TIP3    H241502   2.311   5.486  14.756  0.5653  0.2746  1.7596
 6671TIP3   OH241503   2.211   6.730   6.188 -0.2741 -0.3777 -0.2776
 6671TIP3    H141504   2.255   6.704   6.107  0.1434  0.9263 -0.4674
 6671TIP3    H241505   2.128   6.682   6.186 -0.5054  0.0755 -1.7394
 6672TIP3   OH241506   0.323   0.929  16.567  0.4391 -0.4021  0.3593
 6672TIP3    H141507   0.287   0.864  16.507  0.6743 -1.4324  1.3138
 6672TIP3    H241508   0.298   1.013  16.529  0.4886 -1.0372 -1.1090
 6673TIP3   OH241509   2.509   4.447   0.712 -0.3459  0.1940  0.0715
 6673TIP3    H141510   2.545   4.440   0.624 -0.3022  1.1522  0.0102
 6673TIP3    H241511   2.426   4.398   0.707  0.4452 -1.1561 -0.0469
 6674TIP3   OH241512   1.271   1.434   6.045 -0.1639 -0.1304  0.7651
 6674TIP3    H141513   1.191   1.486   6.048 -0.1280 -0.1171  1.8353
 6674TIP3    H241514   1.263   1.380   5.966 -2.2161 -1.6724  1.9911
 6675TIP3   OH241515   0.838   5.645  13.150 -0.4499  0.3786 -0.2969
 6675TIP3    H141516   0.825   5.733  13.114 -2.6426 -0.2727 -1.1602
 6675TIP3    H241517   0.751   5.619  13.181 -0.0199 -1.8473 -0.8681
 6676TIP3   OH241518   1.428   4.458  16.043 -0.8504  0.7738  0.4648
 6676TIP3    H141519   1.522   4.466  16.029 -0.9422  0.2840 -0.5190
 6676TIP3    H241520   1.390   4.530  15.993 -0.8942  2.1402  2.4305
 6677TIP3   OH241521   4.319   6.798  16.510  0.1673 -0.7356 -0.0047
 6677TIP3    H141522   4.378   6.872  16.522  1.0771 -1.5589  0.6800
 6677TIP3    H241523   4.238   6.825  16.553 -0.1513  0.5949 -1.3760
 6678TIP3   OH241524   5.190   4.077  16.242 -0.5218  0.1112  0.3771
 6678TIP3    H141525   5.266   4.128  16.216 -1.4349  1.3376  0.0882
 6678TIP3    H241526   5.177   4.015  16.171 -0.2877  0.4454  0.0430
 6679TIP3   OH241527   5.338   1.416   4.687 -0.3154 -0.4631 -0.3490
 6679TIP3    H141528   5.290   1.499   4.678 -0.5197 -0.4431  0.8044
 6679TIP3    H241529   5.365   1.415   4.779  0.1070 -1.4524 -0.4862
 6680TIP3   OH241530   2.688   5.352   4.777 -0.4886 -0.1040  0.1494
 6680TIP3    H141531   2.602   5.382   4.745  0.3837  0.3530 -1.8537
 6680TIP3    H241532   2.733   5.322   4.698  0.8667 -1.1703  1.3281
 6681TIP3   OH241533   2.042   6.819  16.834  0.5151  0.3615  0.1927
 6681TIP3    H141534   2.042   6.800  16.928 -1.3018 -1.3761 -0.1403
 6681TIP3    H241535   1.965   6.874  16.820  0.6207  0.3789 -0.3469
 6682TIP3   OH241536   6.310   1.725  11.877  0.0638 -0.1356  0.0731
 6682TIP3    H141537   6.263   1.730  11.794  0.3668 -0.6722 -0.1367
 6682TIP3    H241538   6.245   1.746  11.944 -0.5408 -1.1304 -0.1952
 6683TIP3   OH241539   3.183   2.347   2.047  0.0223  0.7356 -0.4992
 6683TIP3    H141540   3.104   2.302   2.017  1.1066 -1.0807 -0.7061
 6683TIP3    H241541   3.162   2.440   2.041 -2.2169  0.2673 -0.2258
 6684TIP3   OH241542   3.985   2.320  13.275  0.1103 -0.2812  0.5835
 6684TIP3    H141543   4.061   2.288  13.226  1.0135  3.7026 -0.7898
 6684TIP3    H241544   4.020   2.384  13.336 -1.7953 -0.6541  2.1112
 6685TIP3   OH241545   1.093   3.315  15.010  0.5398 -0.6846  0.4969
 6685TIP3    H141546   1.040   3.287  14.936  1.8877  0.9960 -1.1405
 6685TIP3    H241547   1.152   3.241  15.026  2.2840  0.0975 -2.0821
 6686TIP3   OH241548   1.546   0.027   5.230  0.4096  0.0352 -0.1368
 6686TIP3    H141549   1.635   0.022   5.194  0.1456 -0.1079 -0.7810
 6686TIP3    H241550   1.529  -0.060   5.264  1.1948  0.5586  1.6383
 6687TIP3   OH241551   2.512   0.503  10.333 -0.4540 -0.1041  0.0533
 6687TIP3    H141552   2.480   0.424  10.289 -1.9596  0.0280  0.8967
 6687TIP3    H241553   2.545   0.472  10.417 -0.7674  0.1209  0.2594
 6688TIP3   OH241554   5.191   6.790  13.714 -0.8718 -0.4206  0.3589
 6688TIP3    H141555   5.173   6.781  13.807  0.9540 -1.3129  0.6367
 6688TIP3    H241556   5.253   6.720  13.694 -1.1776 -0.2013 -1.5135
 6689TIP3   OH241557   1.893   6.660  16.682  0.3021 -0.2632  0.0490
 6689TIP3    H141558   1.960   6.717  16.721  1.1547 -0.0599 -1.6779
 6689TIP3    H241559   1.935   6.624  16.603 -0.4579 -2.7669  0.7430
 6690TIP3   OH241560   5.414   5.511   4.122  0.3509 -0.2534  0.3389
 6690TIP3    H141561   5.367   5.592   4.141 -0.1828 -0.5367  0.2505
 6690TIP3    H241562   5.498   5.540   4.085  0.4298  0.2617  0.9163
 6691TIP3   OH241563   6.494   1.244   5.564 -0.0515 -0.5571 -0.8358
 6691TIP3    H141564   6.475   1.271   5.654 -0.7785 -2.1943 -0.4806
 6691TIP3    H241565   6.517   1.151   5.571 -0.0986 -0.7012 -2.3430
 6692TIP3   OH241566   5.212   5.254  12.333  0.0089 -0.4631  0.6112
 6692TIP3    H141567   5.280   5.316  12.308  0.6157 -0.3136  2.5211
 6692TIP3    H241568   5.217   5.184  12.267  1.0856  0.2196 -0.0493
 6693TIP3   OH241569   0.232   1.821   5.676 -0.1355 -0.0680  0.1759
 6693TIP3    H141570   0.202   1.896   5.728 -1.3770 -1.1622  1.0706
 6693TIP3    H241571   0.326   1.834   5.666 -0.4391  1.9893 -0.2909
 6694TIP3   OH241572   2.515   3.217   4.552  0.4270 -0.0623 -0.3060
 6694TIP3    H141573   2.558   3.174   4.626  1.8009 -0.7991 -1.5170
 6694TIP3    H241574   2.452   3.277   4.593  2.0490  0.4796  1.4717
 6695TIP3   OH241575   1.829   2.221   5.316 -0.3103  0.5405  0.0686
 6695TIP3    H141576   1.797   2.148   5.369  2.0505 -1.0836 -0.7032
 6695TIP3    H241577   1.765   2.228   5.245 -0.4403 -0.9152  0.0262
 6696TIP3   OH241578   1.429   6.044   6.001 -0.7672 -0.5383  0.4238
 6696TIP3    H141579   1.524   6.054   5.992 -0.7233  0.2433  1.6229
 6696TIP3    H241580   1.417   5.997   6.084 -1.3908 -1.6073 -0.2664
 6697TIP3   OH241581   2.807   0.331  10.900 -0.9070  0.3808 -0.3678
 6697TIP3    H141582   2.887   0.378  10.875  0.0741 -1.0143  0.0688
 6697TIP3    H241583   2.824   0.240  10.874 -2.4910  0.1384 -0.5634
 6698TIP3   OH241584   5.763   5.028   2.665  0.2733  0.1871  0.2568
 6698TIP3    H141585   5.796   5.071   2.587 -0.4522 -1.7395 -1.1618
 6698TIP3    H241586   5.673   5.061   2.674  0.7608  1.3360  1.0011
 6699TIP3   OH241587   0.079   4.195  16.077  0.5237 -0.1443 -0.0455
 6699TIP3    H141588  -0.010   4.228  16.087  0.6399  0.5005 -1.1001
 6699TIP3    H241589   0.076   4.140  15.998  0.7440 -1.2250  0.6819
 6700TIP3   OH241590   2.067   4.509   0.801 -0.5316 -0.3464 -0.4559
 6700TIP3    H141591   1.998   4.468   0.749 -0.0343  0.3305 -1.6846
 6700TIP3    H241592   2.046   4.602   0.801  0.4532 -0.1066 -0.9946
 6701TIP3   OH241593   0.728   5.070   5.114  0.2379  0.2005 -0.1552
 6701TIP3    H141594   0.680   5.064   5.197  0.3703  2.5395  0.1318
 6701TIP3    H241595   0.817   5.044   5.136 -0.3521 -2.0084 -0.2171
 6702TIP3   OH241596   0.700   3.014   4.125 -0.2529 -0.2048  0.3428
 6702TIP3    H141597   0.624   3.033   4.070  1.4014  0.6641 -1.7289
 6702TIP3    H241598   0.663   2.991   4.211 -2.8932 -1.4167 -1.0545
 6703TIP3   OH241599   4.644   6.083   1.922 -0.4191 -0.3653  0.7106
 6703TIP3    H141600   4.555   6.114   1.942 -0.4540 -1.0258  1.6182
 6703TIP3    H241601   4.635   6.036   1.840 -0.4615  1.5931 -0.4301
 6704TIP3   OH241602   3.802   2.036  14.635 -0.0491 -0.0407 -0.5400
 6704TIP3    H141603   3.792   2.063  14.544 -3.0250 -0.1655 -0.3120
 6704TIP3    H241604   3.783   2.115  14.686 -0.9399 -0.6033  0.0104
 6705TIP3   OH241605   4.487   6.078  16.452 -0.2567  0.9366 -0.0828
 6705TIP3    H141606   4.504   6.071  16.358  0.2259 -0.7496  0.1096
 6705TIP3    H241607   4.571   6.058  16.493 -1.1704 -1.3783  0.7582
 6706TIP3   OH241608   2.322   1.683   0.377 -0.0617  0.0829 -0.1280
 6706TIP3    H141609   2.232   1.669   0.408  0.0165  0.1820  0.1470
 6706TIP3    H241610   2.354   1.757   0.428  1.8219 -2.9331  3.3557
 6707TIP3   OH241611   5.969   0.908  13.505 -0.6172 -0.1571 -0.1429
 6707TIP3    H141612   5.957   0.994  13.545 -1.3427 -0.3908  0.1367
 6707TIP3    H241613   5.884   0.886  13.466 -0.2160 -0.3942 -0.9164
 6708TIP3   OH241614   6.125   2.358  16.011  0.2857  0.2638 -0.1839
 6708TIP3    H141615   6.032   2.363  15.987  0.4067 -1.0621 -0.9386
 6708TIP3    H241616   6.125   2.322  16.100  0.1188 -0.5713 -0.5243
 6709TIP3   OH241617   0.248   3.360   5.980  0.3356 -0.4984 -0.0585
 6709TIP3    H141618   0.258   3.419   6.055  1.8205 -0.1260 -0.5270
 6709TIP3    H241619   0.268   3.273   6.014 -0.4345 -0.5289  0.3110
 6710TIP3   OH241620   4.373   4.331  15.549  0.6061 -0.2934  0.0688
 6710TIP3    H141621   4.308   4.264  15.526  1.4514 -0.5367 -1.6653
 6710TIP3    H241622   4.322   4.411  15.556 -0.2017 -0.8567  0.8128
 6711TIP3   OH241623   2.767   0.483  13.882  0.6342 -0.2742  0.6066
 6711TIP3    H141624   2.856   0.516  13.868  0.8588 -1.1389 -0.0235
 6711TIP3    H241625   2.737   0.530  13.960  2.0852 -0.8860  1.5659
 6712TIP3   OH241626   3.932   3.238  12.830  0.0214 -0.3766 -0.4247
 6712TIP3    H141627   3.922   3.213  12.738 -1.0900 -0.1661 -0.3629
 6712TIP3    H241628   3.851   3.209  12.872 -0.1426  0.9226  0.1866
 6713TIP3   OH241629   5.132   0.662  11.209 -0.6208 -0.0258 -0.3657
 6713TIP3    H141630   5.103   0.686  11.297  0.5331 -0.0544  0.0214
 6713TIP3    H241631   5.084   0.722  11.151 -0.5278  0.7460  0.3521
 6714TIP3   OH241632   2.233   1.730   3.618  0.1668 -0.0757 -0.1888
 6714TIP3    H141633   2.220   1.655   3.561  1.2364 -0.7154  0.3950
 6714TIP3    H241634   2.160   1.726   3.680 -1.7799  1.4114 -2.3207
 6715TIP3   OH241635   5.692   5.117   4.201  0.0123 -0.5293 -0.4010
 6715TIP3    H141636   5.713   5.199   4.157 -0.8605  0.3413  0.7872
 6715TIP3    H241637   5.775   5.088   4.239  0.4531 -0.5250 -1.3481
 6716TIP3   OH241638   5.613   1.027  14.823 -0.0040  0.7243  0.0339
 6716TIP3    H141639   5.574   1.100  14.776  0.5450  0.3796 -0.9705
 6716TIP3    H241640   5.699   1.059  14.851  0.7329  0.0926 -1.4365
 6717TIP3   OH241641   0.677   0.241   3.216  0.1524 -0.0864  0.2380
 6717TIP3    H141642   0.745   0.178   3.238  0.1763  0.0009  0.4134
 6717TIP3    H241643   0.723   0.316   3.179  0.0585 -0.5449 -0.8492
 6718TIP3   OH241644   0.663   5.754   4.737  0.1219 -0.5634 -0.2022
 6718TIP3    H141645   0.617   5.780   4.816  1.3011  1.6101 -0.1900
 6718TIP3    H241646   0.601   5.770   4.666 -1.0044 -2.6898  0.2473
 6719TIP3   OH241647   5.709   1.401   5.230  0.0935 -0.5412  0.1909
 6719TIP3    H141648   5.630   1.354   5.206 -0.5678 -0.5417  2.2309
 6719TIP3    H241649   5.687   1.445   5.312  1.6083  0.9864 -0.1831
 6720TIP3   OH241650   5.176   5.723   1.310 -0.5367 -0.4696  0.1245
 6720TIP3    H141651   5.139   5.794   1.257  0.7216 -0.2824 -0.5425
 6720TIP3    H241652   5.270   5.741   1.310 -0.3618 -1.3645  1.1152
 6721TIP3   OH241653   6.441   5.811  16.492 -0.4664 -0.3416 -0.2611
 6721TIP3    H141654   6.502   5.786  16.562  0.4216 -0.1292 -0.9589
 6721TIP3    H241655   6.494   5.862  16.431 -1.1918 -0.7143 -1.2061
 6722TIP3   OH241656   4.183   0.156  12.171 -0.1606  0.1169 -0.3748
 6722TIP3    H141657   4.191   0.244  12.208  0.3448  0.5762 -1.5470
 6722TIP3    H241658   4.271   0.119  12.178 -0.4565 -0.4333  0.4459
 6723TIP3   OH241659   1.671   0.550   2.669  0.0306 -0.0332 -0.0797
 6723TIP3    H141660   1.599   0.542   2.732 -0.6656  2.1279 -0.5205
 6723TIP3    H241661   1.738   0.600   2.715 -0.3698  1.3193 -0.9075
 6724TIP3   OH241662   6.435   3.103  11.714  0.1602  0.3376  0.6518
 6724TIP3    H141663   6.530   3.101  11.726  0.3056 -1.0694 -0.5841
 6724TIP3    H241664   6.423   3.098  11.619 -1.1535  0.2727  0.8101
 6725TIP3   OH241665   4.206   1.135  15.219  0.1739 -0.1866 -0.1794
 6725TIP3    H141666   4.270   1.170  15.157  0.0279 -0.3079 -0.3968
 6725TIP3    H241667   4.125   1.182  15.199 -0.3056 -1.4110 -1.1944
 6726TIP3   OH241668   0.811   3.002  15.080 -0.1673  0.2228  0.1209
 6726TIP3    H141669   0.762   3.075  15.042  0.3555 -0.6516 -2.3414
 6726TIP3    H241670   0.762   2.924  15.055 -0.4237 -0.3399  2.2695
 6727TIP3   OH241671   2.727   0.897  11.606  0.0492  0.2611 -0.5636
 6727TIP3    H141672   2.822   0.897  11.597 -0.1694 -0.5056 -3.1434
 6727TIP3    H241673   2.698   0.972  11.555 -0.8383 -0.5096 -1.2000
 6728TIP3   OH241674   1.828   3.376   2.176 -0.4192 -0.0751 -0.0258
 6728TIP3    H141675   1.822   3.472   2.177  0.9619  0.0186  0.7151
 6728TIP3    H241676   1.889   3.356   2.105 -1.3380 -0.4454 -0.7106
 6729TIP3   OH241677   1.842   4.284  13.283  0.1140  0.0808  0.2863
 6729TIP3    H141678   1.822   4.348  13.350  0.4655 -0.7187  1.1706
 6729TIP3    H241679   1.759   4.267  13.239  0.1763  1.7379 -0.5006
 6730TIP3   OH241680   6.314   1.110  14.953  0.5076  0.1218 -0.1508
 6730TIP3    H141681   6.278   1.098  15.041 -0.8502  1.0669 -0.5625
 6730TIP3    H241682   6.245   1.080  14.894  0.3498  1.9872 -0.9577
 6731TIP3   OH241683   2.521   4.563   4.121 -0.4177  0.4139 -0.1898
 6731TIP3    H141684   2.492   4.571   4.212 -0.9996  1.0752 -0.4267
 6731TIP3    H241685   2.599   4.507   4.126 -0.7567 -0.0071  0.6486
 6732TIP3   OH241686   6.522   0.894  14.954  0.5797 -0.2788 -1.0447
 6732TIP3    H141687   6.448   0.864  14.901 -0.7976  1.3815 -0.1256
 6732TIP3    H241688   6.558   0.815  14.992 -2.2424 -0.9306  0.3904
 6733TIP3   OH241689   1.093   6.253  12.138  0.0534  0.4114  0.2974
 6733TIP3    H141690   1.119   6.266  12.230 -2.5161 -0.0648  1.1152
 6733TIP3    H241691   1.176   6.243  12.092  1.3753 -0.4915  2.7503
 6734TIP3   OH241692   3.809   0.326  11.456 -0.2809  0.1035  0.7522
 6734TIP3    H141693   3.830   0.419  11.448 -0.1823 -0.0758 -1.6170
 6734TIP3    H241694   3.853   0.298  11.536  0.1930  1.9495  1.1661
 6735TIP3   OH241695   1.755   4.202   2.617  0.1386  0.1527  0.2083
 6735TIP3    H141696   1.820   4.236   2.679  0.5939  2.0535 -1.2848
 6735TIP3    H241697   1.680   4.260   2.627  0.1550  0.3642 -0.9216
 6736TIP3   OH241698   5.358   3.149   5.017  0.0504 -0.3864 -0.1191
 6736TIP3    H141699   5.379   3.234   5.055  0.4013  0.0403 -1.2385
 6736TIP3    H241700   5.394   3.086   5.079 -0.6047  0.2747  0.9361
 6737TIP3   OH241701   5.116   6.669   5.417  1.1555 -0.2116 -0.5277
 6737TIP3    H141702   5.042   6.724   5.391  1.5183  0.9563  0.8448
 6737TIP3    H241703   5.147   6.630   5.335  0.4725  1.1080 -1.4372
 6738TIP3   OH241704   6.495   2.202   1.175 -0.1533 -0.5652  0.2259
 6738TIP3    H141705   6.470   2.176   1.264  0.7687  0.3271  0.7627
 6738TIP3    H241706   6.415   2.238   1.138 -0.4123 -0.4252  0.9012
 6739TIP3   OH241707   5.539   5.808   1.966 -0.4192  0.2963  0.0624
 6739TIP3    H141708   5.564   5.768   1.883 -0.4369 -0.4753  0.4259
 6739TIP3    H241709   5.611   5.868   1.988 -0.2406  0.2159 -0.3143
 6740TIP3   OH241710   0.148   4.710  16.394  0.3668 -0.1288 -0.4780
 6740TIP3    H141711   0.163   4.635  16.337 -0.7598  0.7912 -2.0313
 6740TIP3    H241712   0.067   4.689  16.440 -0.0719  0.2192 -1.0805
 6741TIP3   OH241713   5.077   4.768  14.778  0.5534 -0.4223 -0.1102
 6741TIP3    H141714   5.091   4.787  14.686 -0.1176 -1.3396 -0.4087
 6741TIP3    H241715   5.101   4.675  14.787 -2.0643 -1.1192  0.0490
 6742TIP3   OH241716   3.300   3.859  15.307 -0.2237  0.6438 -0.0992
 6742TIP3    H141717   3.321   3.944  15.269 -0.7380  1.2264  0.8964
 6742TIP3    H241718   3.293   3.876  15.401  1.4460 -0.8344  0.3318
 6743TIP3   OH241719   6.175   3.733  13.773 -0.2584 -0.3350 -0.3030
 6743TIP3    H141720   6.159   3.656  13.827 -0.2311  0.0455  0.2508
 6743TIP3    H241721   6.232   3.789  13.826  0.5222 -0.3699 -1.0932
 6744TIP3   OH241722   5.872   4.597  14.422 -0.2468  0.3027 -0.1557
 6744TIP3    H141723   5.915   4.523  14.379 -0.8883  0.4056 -0.9945
 6744TIP3    H241724   5.912   4.601  14.509  1.7984  0.6966 -1.0677
 6745TIP3   OH241725   4.759   4.259  14.830 -0.5602 -0.0827 -0.3259
 6745TIP3    H141726   4.745   4.192  14.897  0.7905  1.0707  1.1567
 6745TIP3    H241727   4.692   4.242  14.764 -0.1827 -2.9573 -0.0420
 6746TIP3   OH241728   1.295   0.950   3.372  0.1887 -0.7120 -0.0274
 6746TIP3    H141729   1.337   0.933   3.457 -0.4356  0.1401  0.4600
 6746TIP3    H241730   1.340   0.891   3.311  1.1738 -0.7808  0.7452
 6747TIP3   OH241731   0.632   4.352  11.351  0.3128  1.1198  0.1060
 6747TIP3    H141732   0.716   4.370  11.309  0.7116  1.8853  1.2102
 6747TIP3    H241733   0.648   4.275  11.404 -0.0830  0.3973 -0.8020
 6748TIP3   OH241734   0.954   2.373   2.929 -0.2891  0.8005  0.7200
 6748TIP3    H141735   0.906   2.413   2.856  0.3607 -1.3411 -0.9379
 6748TIP3    H241736   0.896   2.303   2.959  0.9783 -0.6219 -0.1009
 6749TIP3   OH241737   6.731   3.046  10.550 -0.2856 -0.5455  0.3288
 6749TIP3    H141738   6.692   2.965  10.586 -0.9753 -0.0373  0.7492
 6749TIP3    H241739   6.666   3.114  10.570  0.1038  0.0432 -0.3920
 6750TIP3   OH241740   4.693   2.599  11.116  0.2644  0.4850  0.0640
 6750TIP3    H141741   4.747   2.632  11.044 -0.4407  1.2916 -0.1003
 6750TIP3    H241742   4.603   2.621  11.091 -0.1323 -0.6159  0.4613
 6751TIP3   OH241743   5.922   2.984   4.165 -0.0013  0.5763 -0.1929
 6751TIP3    H141744   5.927   2.907   4.109  1.0045  0.4148  0.1107
 6751TIP3    H241745   5.902   3.056   4.105  3.0297  0.7519 -1.0980
 6752TIP3   OH241746   2.791   5.362   1.097 -0.1663 -0.0348 -0.0377
 6752TIP3    H141747   2.804   5.303   1.023  1.5796  1.5916 -1.0800
 6752TIP3    H241748   2.855   5.432   1.083 -2.0206  1.9970  1.2470
 6753TIP3   OH241749   4.325   5.530   1.521  0.1637  0.6531  0.3772
 6753TIP3    H141750   4.279   5.464   1.468  2.3193 -2.1803  1.9154
 6753TIP3    H241751   4.298   5.512   1.611  2.0061  0.8293  0.9779
 6754TIP3   OH241752   1.342   6.446  14.931  0.5515 -0.1552 -0.2025
 6754TIP3    H141753   1.252   6.420  14.946  0.2403  0.0622 -1.6915
 6754TIP3    H241754   1.379   6.377  14.876  0.9853  0.2817 -0.4697
 6755TIP3   OH241755   5.088   5.910  13.977  0.0044  0.3898  0.6986
 6755TIP3    H141756   5.167   5.898  13.924 -0.3128  1.1053  0.0538
 6755TIP3    H241757   5.120   5.944  14.061  0.5127 -0.7945  0.9943
 6756TIP3   OH241758   1.936   2.560  15.164 -0.5332  0.5741 -1.1078
 6756TIP3    H141759   2.030   2.564  15.182 -0.6266 -1.3001 -0.0766
 6756TIP3    H241760   1.928   2.585  15.072  0.7318  2.9005 -0.6382
 6757TIP3   OH241761   1.529   2.934  12.406 -0.4556 -0.4173  0.1976
 6757TIP3    H141762   1.487   2.855  12.441 -1.0954  1.1119  3.0308
 6757TIP3    H241763   1.455   2.988  12.377 -0.1013 -0.1727 -0.2420
 6758TIP3   OH241764   0.781   1.842   5.861 -0.0720 -0.5657  0.0520
 6758TIP3    H141765   0.849   1.808   5.920 -0.5954 -2.0716 -0.1692
 6758TIP3    H241766   0.743   1.763   5.822 -1.0532  0.3319 -0.8177
 6759TIP3   OH241767   4.358   0.885   4.306  0.0918  0.0459 -0.4798
 6759TIP3    H141768   4.358   0.927   4.220 -0.3317 -0.4385 -0.7195
 6759TIP3    H241769   4.280   0.920   4.350  0.3463  0.3469 -0.2682
 6760TIP3   OH241770   6.814   5.339   2.198 -0.7166 -0.1651  0.3775
 6760TIP3    H141771   6.870   5.270   2.162 -0.2842  0.1431  0.4535
 6760TIP3    H241772   6.865   5.375   2.271 -0.2430  1.3117 -0.6664
 6761TIP3   OH241773   0.264   4.213   0.341  0.0323  0.1354  0.3608
 6761TIP3    H141774   0.227   4.206   0.254  0.8466  0.1521  0.0090
 6761TIP3    H241775   0.355   4.185   0.331  0.0388 -0.1875  1.2642
 6762TIP3   OH241776   1.333   1.621   0.831  0.2856  0.5905 -0.5429
 6762TIP3    H141777   1.249   1.667   0.828  0.0708  0.1834 -1.1098
 6762TIP3    H241778   1.349   1.596   0.739  0.3154 -0.5850 -0.2307
 6763TIP3   OH241779   3.389   4.674  15.593 -0.1556 -0.3664  0.2749
 6763TIP3    H141780   3.378   4.582  15.571 -0.5787 -0.2142 -0.1747
 6763TIP3    H241781   3.346   4.721  15.521 -0.1448  0.1760  0.6182
 6764TIP3   OH241782   3.685   4.143   2.147  0.0840  0.1399 -0.3813
 6764TIP3    H141783   3.596   4.141   2.111  0.4592 -0.6359 -1.3007
 6764TIP3    H241784   3.678   4.102   2.233 -0.3533 -0.4776 -0.7043
 6765TIP3   OH241785   4.081   3.701   6.044  0.4594  0.0523 -0.8383
 6765TIP3    H141786   4.135   3.777   6.064  0.1092  0.0127  0.3207
 6765TIP3    H241787   4.140   3.626   6.055  0.1770  0.0024  0.5102
 6766TIP3   OH241788   1.341   3.259  15.300  0.2008  0.0969  0.0847
 6766TIP3    H141789   1.421   3.291  15.342 -0.9354  0.8228  1.7424
 6766TIP3    H241790   1.283   3.335  15.297 -0.6334 -0.5531 -0.6338
 6767TIP3   OH241791   5.602   0.879   3.258  0.4445  0.3595  0.3700
 6767TIP3    H141792   5.672   0.855   3.319  0.4693  1.3788  0.7555
 6767TIP3    H241793   5.530   0.820   3.280 -0.9800  3.2394  4.1451
 6768TIP3   OH241794   1.585   5.093   1.035 -0.2727 -0.1547  0.0934
 6768TIP3    H141795   1.500   5.066   1.070  0.9436 -0.0214  3.3179
 6768TIP3    H241796   1.579   5.188   1.028  0.0505  0.0073  1.7040
 6769TIP3   OH241797   6.260   1.858  17.212 -0.2662  0.1984 -0.1563
 6769TIP3    H141798   6.299   1.833  17.128 -0.3004  0.8217 -0.3628
 6769TIP3    H241799   6.319   1.822  17.277 -0.1081 -0.0855 -0.4524
 6770TIP3   OH241800   5.741   0.745  13.087  0.4412 -0.1042  0.6061
 6770TIP3    H141801   5.647   0.731  13.079  0.6071 -2.2015  1.8997
 6770TIP3    H241802   5.778   0.703  13.009  0.4970 -2.0047  1.6129
 6771TIP3   OH241803   0.217   2.607   3.736  0.1995  0.2041  0.0581
 6771TIP3    H141804   0.254   2.519   3.737  0.6055  0.3306 -2.2153
 6771TIP3    H241805   0.178   2.617   3.823 -0.1817 -2.3595  0.2208
 6772TIP3   OH241806   4.232   4.071   3.366 -0.8145  0.6808 -0.1442
 6772TIP3    H141807   4.255   4.106   3.280 -1.2416 -0.9730 -0.9457
 6772TIP3    H241808   4.137   4.084   3.372 -1.1386 -1.2749 -0.8856
 6773TIP3   OH241809   6.794   5.439  16.457  0.2030 -0.2217 -0.2393
 6773TIP3    H141810   6.715   5.490  16.474  0.3922 -0.0219  0.0346
 6773TIP3    H241811   6.863   5.485  16.505 -0.1861 -2.5469  2.6499
 6774TIP3   OH241812   1.459   4.089   1.806  0.3287  0.1994  0.0809
 6774TIP3    H141813   1.487   4.068   1.895  3.0142  2.2504 -0.2020
 6774TIP3    H241814   1.538   4.123   1.764 -1.1108  0.0790 -2.8346
 6775TIP3   OH241815   4.661   5.186  11.439  0.8117  0.0361 -0.0084
 6775TIP3    H141816   4.668   5.199  11.534 -1.5519  1.3579  0.0385
 6775TIP3    H241817   4.737   5.231  11.402  0.7778  1.0718  1.1516
 6776TIP3   OH241818   4.530   5.017   3.274  0.3452  0.5534 -0.2847
 6776TIP3    H141819   4.482   4.988   3.196  0.8147 -1.1959  0.0375
 6776TIP3    H241820   4.541   4.937   3.326  1.4322  1.3955  0.8195
 6777TIP3   OH241821   4.692   5.249  14.442 -0.3280  0.4008  0.2259
 6777TIP3    H141822   4.649   5.195  14.508  0.7453 -0.1546  0.4737
 6777TIP3    H241823   4.714   5.330  14.488 -1.2196  0.7387  0.0618
 6778TIP3   OH241824   5.563   4.595   4.366  0.2154  0.5100 -0.2580
 6778TIP3    H141825   5.568   4.537   4.290 -0.2201 -0.9582  0.8046
 6778TIP3    H241826   5.617   4.670   4.342  2.3385 -1.1662 -0.9458
 6779TIP3   OH241827   2.886   0.348  14.982 -0.0065  0.4832  0.9449
 6779TIP3    H141828   2.861   0.335  15.073  0.5239 -1.1154  0.8723
 6779TIP3    H241829   2.848   0.433  14.959 -2.8887 -0.5536  1.6935
 6780TIP3   OH241830   0.166   1.403   0.886 -0.1937  0.1536  0.0431
 6780TIP3    H141831   0.154   1.423   0.793 -2.3718  2.6624  0.7791
 6780TIP3    H241832   0.260   1.408   0.901  0.0075  1.7668 -1.6422
 6781TIP3   OH241833   4.633   5.702   4.152 -0.4665 -0.0716 -0.2590
 6781TIP3    H141834   4.703   5.765   4.171 -0.3735 -0.2839  0.1105
 6781TIP3    H241835   4.678   5.629   4.108 -0.6771  0.4076 -1.2728
 6782TIP3   OH241836   0.269   5.028   3.756 -0.0475  0.2767 -0.3736
 6782TIP3    H141837   0.226   4.995   3.835  0.3607 -0.1710 -0.3368
 6782TIP3    H241838   0.229   4.979   3.684 -1.2040  1.4613 -0.5573
 6783TIP3   OH241839   4.171   0.660  11.781 -0.2189  0.2236  0.3019
 6783TIP3    H141840   4.162   0.575  11.823 -0.8292  0.7873  1.3306
 6783TIP3    H241841   4.227   0.710  11.839 -1.5411  1.1992  0.7609
 6784TIP3   OH241842   2.781   2.533  16.565  0.6730  0.0735  0.1748
 6784TIP3    H141843   2.693   2.501  16.585  1.7716 -2.4941  1.0441
 6784TIP3    H241844   2.775   2.563  16.474 -0.7123 -1.5315 -0.2892
 6785TIP3   OH241845   1.254   6.780   5.033 -0.5738 -0.0873  0.2472
 6785TIP3    H141846   1.228   6.832   5.109 -1.1878 -0.5015  0.3233
 6785TIP3    H241847   1.195   6.705   5.034  0.5013 -0.9349  0.3041
 6786TIP3   OH241848   2.381   3.566   5.354  0.1216 -0.3491 -0.0083
 6786TIP3    H141849   2.420   3.630   5.294  2.8771 -1.9688 -0.0263
 6786TIP3    H241850   2.334   3.505   5.297  0.2469 -0.1985 -0.2718
 6787TIP3   OH241851   1.532   1.453  13.091 -0.4470 -0.0445 -0.4658
 6787TIP3    H141852   1.495   1.402  13.163 -0.2190  0.6108  0.1272
 6787TIP3    H241853   1.536   1.392  13.017  0.1524 -0.9673  0.3236
 6788TIP3   OH241854   3.295   4.219   4.882 -0.6231 -0.4293  0.3396
 6788TIP3    H141855   3.269   4.161   4.954 -0.9913 -0.5087  0.1466
 6788TIP3    H241856   3.375   4.261   4.913 -1.6207  0.6940  1.4531
 6789TIP3   OH241857   1.624   3.789   5.940  0.1441 -0.1589  0.0168
 6789TIP3    H141858   1.561   3.830   6.000  0.5611  1.7272 -0.8030
 6789TIP3    H241859   1.576   3.778   5.858 -0.2549 -2.2293  0.5055
 6790TIP3   OH241860   3.295   2.988  10.939  0.0624  0.4369 -0.0411
 6790TIP3    H141861   3.250   2.903  10.933  1.1410 -0.1402 -0.0529
 6790TIP3    H241862   3.273   3.032  10.858  1.8764 -1.0343 -1.3882
 6791TIP3   OH241863   0.887   5.931  14.762  0.2907 -0.9634 -0.5901
 6791TIP3    H141864   0.794   5.911  14.749  0.0518 -0.6459  0.5779
 6791TIP3    H241865   0.931   5.847  14.750  0.3030 -0.4828 -4.9172
 6792TIP3   OH241866   2.460   2.866   3.085  0.1120  0.1913  0.4919
 6792TIP3    H141867   2.440   2.814   3.007  2.1145 -1.4045  0.9985
 6792TIP3    H241868   2.429   2.954   3.064 -0.8056 -0.5828 -1.4780
 6793TIP3   OH241869   4.803   2.609  12.703 -0.2652 -0.2716 -0.5405
 6793TIP3    H141870   4.713   2.585  12.683 -1.4992  0.5777  3.6182
 6793TIP3    H241871   4.796   2.693  12.749  2.6934  0.0069 -0.5087
 6794TIP3   OH241872   4.864   5.292  15.106 -0.6666 -0.2622  0.0360
 6794TIP3    H141873   4.817   5.323  15.028  0.3430 -1.5891 -1.1253
 6794TIP3    H241874   4.885   5.201  15.086  0.2645 -0.3930  1.5694
 6795TIP3   OH241875   1.255   4.343  12.454 -0.0096  0.5526 -0.2015
 6795TIP3    H141876   1.319   4.381  12.515 -2.7512  2.2733  1.6962
 6795TIP3    H241877   1.206   4.418  12.421  0.0390 -0.5828 -2.9983
 6796TIP3   OH241878   4.980   2.715   2.204  0.2897  0.0367  0.0722
 6796TIP3    H141879   4.918   2.647   2.231 -0.1196  0.3662 -0.0451
 6796TIP3    H241880   5.006   2.689   2.115  0.1800  0.0013  0.0508
 6797TIP3   OH241881   5.159   5.158  10.751 -0.4948  0.3927  0.0591
 6797TIP3    H141882   5.211   5.219  10.803  0.8500 -0.8952  0.2932
 6797TIP3    H241883   5.088   5.210  10.715  0.2281  1.9282  0.8201
 6798TIP3   OH241884   2.501   5.785  16.637  1.2604  0.1713  0.6521
 6798TIP3    H141885   2.557   5.857  16.667  2.1439  0.6920 -2.1039
 6798TIP3    H241886   2.430   5.829  16.589  2.1144 -0.7942 -1.5356
 6799TIP3   OH241887   1.217   1.104  11.194  0.3687  0.0100 -0.0581
 6799TIP3    H141888   1.273   1.127  11.120 -0.0889  0.9141 -0.1226
 6799TIP3    H241889   1.253   1.021  11.226  1.2758  0.1993 -0.5740
 6800TIP3   OH241890   2.704   1.051  13.100 -0.4909 -0.5229 -0.8663
 6800TIP3    H141891   2.782   0.995  13.091 -1.0517 -1.0852 -2.4170
 6800TIP3    H241892   2.631   0.989  13.106 -0.8476  0.0109  0.3059
 6801TIP3   OH241893   2.025   2.137  11.755 -0.4537  0.6045 -0.3060
 6801TIP3    H141894   2.040   2.229  11.776 -1.5833  0.7581 -0.0998
 6801TIP3    H241895   2.024   2.134  11.659 -1.8183  1.0770 -0.3282
 6802TIP3   OH241896   6.628   3.240   3.065 -0.8949 -0.4703  0.6688
 6802TIP3    H141897   6.554   3.295   3.038 -0.9613 -0.8025  0.1492
 6802TIP3    H241898   6.682   3.297   3.120 -0.2461  0.5452 -0.9822
 6803TIP3   OH241899   6.126   1.323  16.866  0.3365  0.0308 -0.1524
 6803TIP3    H141900   6.190   1.310  16.796 -0.1956 -1.2258 -0.4071
 6803TIP3    H241901   6.059   1.256  16.851  0.2857 -0.3447  1.6365
 6804TIP3   OH241902   2.559   5.978  11.352 -0.2661 -0.0123  0.0154
 6804TIP3    H141903   2.533   5.997  11.261  1.0771 -0.7430 -0.5380
 6804TIP3    H241904   2.550   5.883  11.360  1.0506 -0.1269  0.1851
 6805TIP3   OH241905   6.426   4.005   1.010  0.1110 -0.2325  1.3505
 6805TIP3    H141906   6.360   4.002   0.941  1.3460 -1.1248  0.1704
 6805TIP3    H241907   6.402   3.935   1.071  0.4710 -1.1426  0.4529
 6806TIP3   OH241908   2.208   2.860  16.099 -0.5526 -0.3814  0.7544
 6806TIP3    H141909   2.296   2.891  16.080  0.1048 -3.8332 -2.2440
 6806TIP3    H241910   2.155   2.890  16.025 -1.3212 -0.8011  1.1238
 6807TIP3   OH241911   0.540   4.375   0.314 -0.2103 -0.7020 -0.2534
 6807TIP3    H141912   0.559   4.376   0.220  1.1153 -1.5965  0.0003
 6807TIP3    H241913   0.494   4.458   0.329  2.9394  1.3012 -1.0092
 6808TIP3   OH241914   1.387   1.960   1.245 -0.4528  0.2384  0.0542
 6808TIP3    H141915   1.400   2.042   1.197 -1.9247  0.4310 -0.0445
 6808TIP3    H241916   1.301   1.929   1.217  0.5884 -1.9778 -0.8149
 6809TIP3   OH241917   4.986   3.052   4.150  0.3440 -0.4861 -0.0204
 6809TIP3    H141918   4.904   3.008   4.126  0.4472 -0.6084 -0.1490
 6809TIP3    H241919   5.012   3.009   4.232 -0.4834  0.5513  0.8149
 6810TIP3   OH241920   0.711   4.836   2.431 -0.1996 -0.0724 -0.1488
 6810TIP3    H141921   0.778   4.890   2.473  2.0154  0.3680 -3.9179
 6810TIP3    H241922   0.642   4.898   2.406 -0.4275  0.0423  0.7791
 6811TIP3   OH241923   3.810   1.087   4.280 -0.2044 -0.1825 -0.1563
 6811TIP3    H141924   3.719   1.098   4.253 -0.5041  2.7600  1.8791
 6811TIP3    H241925   3.805   1.035   4.360  0.0990 -1.9897 -1.2926
 6812TIP3   OH241926   1.090   5.043   4.553  0.7590  0.0017  0.1200
 6812TIP3    H141927   1.184   5.032   4.540  0.9966  1.5127  0.5757
 6812TIP3    H241928   1.063   5.104   4.484  0.8186  2.6613  2.3914
 6813TIP3   OH241929   0.805   3.942  11.789  0.1140  0.7893 -0.1580
 6813TIP3    H141930   0.721   3.947  11.835  0.2943 -3.4014  0.8708
 6813TIP3    H241931   0.868   3.981  11.851 -0.4579  0.1710  0.8215
 6814TIP3   OH241932   1.679   6.013   3.126  0.3938  0.0694 -0.1146
 6814TIP3    H141933   1.771   6.005   3.153  0.6755  0.8229 -0.8297
 6814TIP3    H241934   1.667   6.106   3.109 -0.9949  0.2420  1.6565
 6815TIP3   OH241935   2.737   5.864  15.505 -0.5151  0.0963 -0.3045
 6815TIP3    H141936   2.765   5.773  15.502 -0.3599  0.0721  1.3868
 6815TIP3    H241937   2.781   5.905  15.430  0.3062 -0.9698 -0.4129
 6816TIP3   OH241938   5.196   0.904  12.342 -0.0295  0.0336 -0.8504
 6816TIP3    H141939   5.188   0.875  12.433 -1.5893 -1.5115 -1.4410
 6816TIP3    H241940   5.128   0.971  12.332  0.9408  1.0716 -0.5636
 6817TIP3   OH241941   0.018   1.695   2.494  0.3568  0.3031 -0.0067
 6817TIP3    H141942   0.000   1.621   2.436  0.9411  0.3906 -0.2988
 6817TIP3    H241943   0.042   1.655   2.578 -2.3754  0.1751  0.7808
 6818TIP3   OH241944   2.338   4.114   5.208  0.2426  0.3442  0.2971
 6818TIP3    H141945   2.269   4.053   5.183 -0.7463  1.7171 -0.4111
 6818TIP3    H241946   2.416   4.083   5.161 -0.5968  0.4567 -1.2033
 6819TIP3   OH241947   0.845   6.086   2.002  0.1998  0.0615  0.2315
 6819TIP3    H141948   0.902   6.163   2.008  0.5482 -0.1468 -0.3620
 6819TIP3    H241949   0.835   6.070   1.908  3.5182 -3.0906  0.2943
 6820TIP3   OH241950   2.524   2.531  12.357  0.8305  0.2445 -0.3037
 6820TIP3    H141951   2.555   2.441  12.369 -0.0936 -0.0491 -0.0847
 6820TIP3    H241952   2.442   2.522  12.308  1.1769  1.0253 -1.0478
 6821TIP3   OH241953   0.720   3.800   4.659  0.2455  0.1312  0.3463
 6821TIP3    H141954   0.670   3.738   4.714  0.2261  0.6729  0.9466
 6821TIP3    H241955   0.749   3.868   4.720  1.0578  0.2306 -0.1420
 6822TIP3   OH241956   1.098   2.007   2.151  0.4317  0.3156 -0.1512
 6822TIP3    H141957   1.115   1.919   2.118 -0.3923 -0.7056  2.0158
 6822TIP3    H241958   1.180   2.032   2.194  0.3774  0.2256  0.0071
 6823TIP3   OH241959   5.121   4.710  15.582  0.0534  0.3465 -0.2628
 6823TIP3    H141960   5.103   4.632  15.529 -0.7742  0.3585 -0.0080
 6823TIP3    H241961   5.153   4.676  15.666  1.5648  0.3320 -0.8242
 6824TIP3   OH241962   0.335   3.526   0.705 -0.4676 -0.3486  0.0683
 6824TIP3    H141963   0.322   3.562   0.793  0.5120 -1.0311  0.4913
 6824TIP3    H241964   0.289   3.588   0.648  0.9146  1.4127  0.8205
 6825TIP3   OH241965   2.673   6.625  16.878 -0.2368 -0.6807 -0.2721
 6825TIP3    H141966   2.718   6.541  16.883  1.4848  0.2772  0.6429
 6825TIP3    H241967   2.583   6.603  16.852 -0.5173 -3.0345  2.5427
 6826TIP3   OH241968   2.520   0.152  14.190 -0.5542  0.4030  0.2692
 6826TIP3    H141969   2.499   0.165  14.283  0.3110 -0.2741  0.5650
 6826TIP3    H241970   2.535   0.240  14.157  3.1640  0.4109  1.7494
 6827TIP3   OH241971   5.500   2.101   3.918 -0.3506  0.6883 -0.2906
 6827TIP3    H141972   5.579   2.093   3.865 -0.1646 -3.5578  0.4601
 6827TIP3    H241973   5.531   2.094   4.009 -1.3539  1.2219  0.1013
 6828TIP3   OH241974   4.821   1.464   1.492 -0.1174 -0.6887  0.1654
 6828TIP3    H141975   4.916   1.453   1.492 -0.0976 -0.5606 -0.7113
 6828TIP3    H241976   4.808   1.557   1.473 -0.4129 -0.5685  0.9095
 6829TIP3   OH241977   5.378   6.111   4.215  0.1199 -0.0385 -0.3285
 6829TIP3    H141978   5.296   6.063   4.224  0.4033 -0.6384 -0.9072
 6829TIP3    H241979   5.360   6.175   4.145 -0.1393  0.4566  0.1823
 6830TIP3   OH241980   2.840   4.928  13.313 -0.2528 -0.0899 -0.3723
 6830TIP3    H141981   2.912   4.982  13.280 -0.5183 -0.8617 -2.2755
 6830TIP3    H241982   2.841   4.941  13.407  0.4407  2.3314 -0.6793
 6831TIP3   OH241983   5.125   4.590   1.110  1.0273 -0.0992  0.5919
 6831TIP3    H141984   5.202   4.585   1.054  1.1234  0.0942  0.7063
 6831TIP3    H241985   5.094   4.500   1.116  0.2344  0.0611 -0.8712
 6832TIP3   OH241986   6.092   0.769  15.145  0.3661 -0.3925 -0.3066
 6832TIP3    H141987   6.057   0.844  15.098  1.0185 -0.3702 -0.7691
 6832TIP3    H241988   6.029   0.752  15.216 -1.3552 -1.2941 -2.0197
 6833TIP3   OH241989   5.624   5.634   5.364 -0.6621 -0.0370  0.1381
 6833TIP3    H141990   5.659   5.547   5.346  0.6263  0.1943  1.4465
 6833TIP3    H241991   5.661   5.690   5.297 -1.6048 -0.5118 -0.7933
 6834TIP3   OH241992   4.843   4.628   1.974 -0.4172 -0.5369  0.6807
 6834TIP3    H141993   4.924   4.584   2.001 -0.5355 -1.8170 -0.9879
 6834TIP3    H241994   4.782   4.557   1.957 -1.0635  0.3377 -0.6862
 6835TIP3   OH241995   3.331   4.286   0.188 -0.0615 -0.5953  0.4417
 6835TIP3    H141996   3.369   4.204   0.220  1.6308 -0.5612 -1.3644
 6835TIP3    H241997   3.406   4.336   0.156 -0.9907  1.9792  2.1333
 6836TIP3   OH241998   2.597   1.971  11.187 -0.5118 -0.3503  0.3158
 6836TIP3    H141999   2.609   2.051  11.136 -0.8959 -0.9501 -0.7401
 6836TIP3    H242000   2.502   1.959  11.191 -0.4258 -1.7779 -1.1929
 6837TIP3   OH242001   3.793   1.422  14.112 -0.1380 -0.3611 -1.2396
 6837TIP3    H142002   3.704   1.451  14.135  0.2008 -0.8884  0.8784
 6837TIP3    H242003   3.784   1.327  14.103  0.1293 -0.3651 -1.4450
 6838TIP3   OH242004   4.157   2.664  13.781  0.3989  0.0068 -0.1928
 6838TIP3    H142005   4.108   2.744  13.799  2.8112  1.4068  0.4562
 6838TIP3    H242006   4.136   2.606  13.855 -1.8177 -0.2313 -0.9702
 6839TIP3   OH242007   4.660   6.523  14.462 -0.2085 -0.0912  0.1133
 6839TIP3    H142008   4.582   6.560  14.420 -1.3212 -1.2589  1.1089
 6839TIP3    H242009   4.630   6.441  14.501  1.1983  0.1192  1.7060
 6840TIP3   OH242010   3.435   5.961  13.689  0.4182 -0.6053  0.0576
 6840TIP3    H142011   3.375   5.962  13.764  0.7761  1.0611  0.3482
 6840TIP3    H242012   3.458   6.053  13.676  1.8761 -1.0892 -0.8868
 6841TIP3   OH242013   5.093   1.759  11.020 -0.4554  0.0463  0.2410
 6841TIP3    H142014   5.169   1.714  11.058 -0.1058  0.9142  0.5911
 6841TIP3    H242015   5.081   1.719  10.934 -0.2828 -0.8635  0.6455
 6842TIP3   OH242016   6.077   3.554   5.223 -0.0315 -0.3811 -0.4630
 6842TIP3    H142017   6.137   3.480   5.209 -1.0253 -1.1376 -0.8262
 6842TIP3    H242018   6.003   3.535   5.165  0.0344  1.2840 -1.0947
 6843TIP3   OH242019   3.067   5.883   5.166 -0.2260  0.3879 -0.3328
 6843TIP3    H142020   3.027   5.847   5.245  0.7482 -1.4754 -0.6580
 6843TIP3    H242021   3.135   5.820   5.143  2.7805  3.3698  0.0984
 6844TIP3   OH242022   6.034   6.771   2.492 -0.6777  0.6021  0.5291
 6844TIP3    H142023   6.124   6.801   2.504 -0.0335 -1.1253  0.2170
 6844TIP3    H242024   5.981   6.851   2.493  0.6847  1.5049  2.2990
 6845TIP3   OH242025   1.450   6.252  13.294  0.2854 -0.0624  0.1976
 6845TIP3    H142026   1.504   6.289  13.225  0.4088 -1.0852 -0.2627
 6845TIP3    H242027   1.363   6.243  13.255  0.1783  0.0427  0.4103
 6846TIP3   OH242028   3.118   1.933  12.300 -0.2616  0.9403  0.0286
 6846TIP3    H142029   3.177   1.960  12.371  0.4261  0.4815 -0.3614
 6846TIP3    H242030   3.090   2.016  12.260 -1.6456  1.2670  1.6147
 6847TIP3   OH242031   5.245   3.730   3.218 -0.8064 -0.8234  0.2204
 6847TIP3    H142032   5.153   3.713   3.197 -0.8216  0.5853 -0.9876
 6847TIP3    H242033   5.255   3.701   3.309 -2.3625 -1.2688  0.2657
 6848TIP3   OH242034   1.308   3.813   4.908  0.1321  0.3982 -0.1332
 6848TIP3    H142035   1.287   3.855   4.824  1.4682 -0.3564 -0.8731
 6848TIP3    H242036   1.349   3.730   4.883  0.5454  0.1664  1.2748
 6849TIP3   OH242037   4.335   4.933   0.235  0.8426  0.2482 -0.2098
 6849TIP3    H142038   4.353   4.948   0.142  2.2254 -0.7549 -0.1111
 6849TIP3    H242039   4.389   4.858   0.258 -1.5259 -1.2412  0.7605
 6850TIP3   OH242040   3.493   6.303   5.354  0.1348 -0.0463 -0.2129
 6850TIP3    H142041   3.408   6.283   5.392  0.4257  0.8634  0.9468
 6850TIP3    H242042   3.555   6.251   5.405  0.2993 -0.4884 -0.8671
 6851TIP3   OH242043   4.429   1.132   2.305 -0.0501  0.3792  0.2009
 6851TIP3    H142044   4.449   1.121   2.397 -2.6911  1.0418  0.8919
 6851TIP3    H242045   4.480   1.065   2.260  0.0916 -0.9246  2.2833
 6852TIP3   OH242046   3.911   5.255  15.890 -0.1150  0.3237  0.2013
 6852TIP3    H142047   3.907   5.335  15.839  1.2421  0.5890  0.4985
 6852TIP3    H242048   4.005   5.238  15.902 -0.3824 -1.3983 -0.0243
 6853TIP3   OH242049   0.854   3.337  10.936 -0.0285 -0.2684  0.7791
 6853TIP3    H142050   0.759   3.335  10.936 -0.0191 -1.1737 -0.1815
 6853TIP3    H242051   0.880   3.254  10.897  1.1532  0.1881  0.5675
 6854TIP3   OH242052   5.962   0.437   5.707  0.3863 -0.0651  0.8089
 6854TIP3    H142053   6.011   0.378   5.763 -0.1205  0.6711  2.0483
 6854TIP3    H242054   5.979   0.524   5.743  1.0224  0.5461 -0.9187
 6855TIP3   OH242055   3.504   5.041  14.932  0.0708 -0.0394 -0.0399
 6855TIP3    H142056   3.436   4.974  14.928  0.2914 -0.2114 -0.9097
 6855TIP3    H242057   3.585   4.991  14.944 -0.0556  0.2136  1.9593
 6856TIP3   OH242058   0.020   2.634   5.357  0.6040 -0.0504 -0.4131
 6856TIP3    H142059   0.038   2.695   5.429 -0.9542  1.0328 -0.9375
 6856TIP3    H242060  -0.063   2.592   5.381 -1.0910  1.9485 -2.6516
 6857TIP3   OH242061   0.447   1.091   5.408  0.5832  0.2676 -0.1448
 6857TIP3    H142062   0.496   1.148   5.349  2.0906 -0.3552  0.4725
 6857TIP3    H242063   0.436   1.143   5.488  1.7735 -0.2030  0.3415
 6858TIP3   OH242064   4.731   2.610  14.248  0.4417 -0.1560  0.4290
 6858TIP3    H142065   4.706   2.524  14.213  0.9008  0.2875 -1.0094
 6858TIP3    H242066   4.748   2.594  14.341 -1.5299 -1.2008  0.6429
 6859TIP3   OH242067   0.737   0.861   6.451  0.1085  0.0122 -0.5586
 6859TIP3    H142068   0.820   0.861   6.403 -0.1911 -0.7768 -1.0809
 6859TIP3    H242069   0.762   0.880   6.542  1.3140 -3.8619  0.0175
 6860TIP3   OH242070   4.990   2.618  15.344 -0.2179  0.4063  0.7592
 6860TIP3    H142071   4.896   2.620  15.360 -0.2679 -0.3822  0.6068
 6860TIP3    H242072   5.027   2.677  15.410 -0.7580  0.1062  1.3407
 6861TIP3   OH242073   5.626   2.566   1.647  0.4807  0.0607 -0.2836
 6861TIP3    H142074   5.658   2.611   1.568  0.1707  0.8577  0.0388
 6861TIP3    H242075   5.664   2.616   1.719  0.8259 -0.7183  0.0749
 6862TIP3   OH242076   2.838   4.188  13.268 -0.0601 -0.2283  0.4954
 6862TIP3    H142077   2.779   4.124  13.227 -0.8368  1.2683 -0.8039
 6862TIP3    H242078   2.781   4.262  13.291  0.7502 -0.1508  2.3529
 6863TIP3   OH242079   1.039   6.760  12.532  0.1050  0.1941  0.3572
 6863TIP3    H142080   1.076   6.820  12.468  0.5331  1.1046  1.4309
 6863TIP3    H242081   1.002   6.689  12.480 -0.7055  1.5349 -0.9548
 6864TIP3   OH242082   4.070   3.967  12.506 -0.3409 -0.1964 -0.5401
 6864TIP3    H142083   3.981   4.002  12.504 -0.7184 -1.1114  0.0263
 6864TIP3    H242084   4.122   4.036  12.546 -0.7297  0.4917 -1.2010
 6865TIP3   OH242085   1.945   5.894  13.044  0.4861  0.0976 -0.1940
 6865TIP3    H142086   1.950   5.816  13.099  1.4015 -0.8852 -1.6479
 6865TIP3    H242087   2.015   5.950  13.075 -1.2053  1.1074  1.9642
 6866TIP3   OH242088   0.935   3.499  14.722 -0.7691  0.0838 -0.0830
 6866TIP3    H142089   0.914   3.406  14.715 -1.7325  0.2473  0.6032
 6866TIP3    H242090   0.879   3.542  14.657 -0.5136  0.2207 -0.2161
 6867TIP3   OH242091   4.132   3.419  17.127 -0.1612 -0.4271 -0.1788
 6867TIP3    H142092   4.194   3.406  17.056 -1.1205  0.3567 -1.1870
 6867TIP3    H242093   4.103   3.331  17.151  0.4542 -0.7170 -0.5036
 6868TIP3   OH242094   6.232   1.187  14.012  0.0232  0.1768 -0.3668
 6868TIP3    H142095   6.262   1.239  13.938 -1.7003 -0.6979 -1.7134
 6868TIP3    H242096   6.211   1.102  13.974 -0.2013 -0.5179  1.2670
 6869TIP3   OH242097   0.996   4.382  15.126  0.1532 -0.4716  0.1202
 6869TIP3    H142098   1.028   4.345  15.209 -0.8184 -2.4729 -0.3596
 6869TIP3    H242099   1.034   4.326  15.059  1.0616  1.2443 -0.8274
 6870TIP3   OH242100   0.831   4.178   2.559 -0.3268  0.5262 -0.7025
 6870TIP3    H142101   0.816   4.098   2.510 -2.0662  1.5465 -1.8644
 6870TIP3    H242102   0.909   4.217   2.519 -0.6856  0.4418 -1.4811
 6871TIP3   OH242103   4.459   1.011   3.055 -0.1875 -0.5411  0.6595
 6871TIP3    H142104   4.440   1.001   3.148  0.7324 -0.2791  0.8820
 6871TIP3    H242105   4.468   0.921   3.023 -1.1398 -0.6493  0.6820
 6872TIP3   OH242106   5.408   3.590   0.341 -0.4384  0.7060 -0.2419
 6872TIP3    H142107   5.484   3.552   0.296  0.9594  3.4662 -0.2971
 6872TIP3    H242108   5.349   3.615   0.271 -1.0075 -0.5709 -0.2374
 6873TIP3   OH242109   0.118   2.638  15.987  0.1864 -0.3101 -0.5806
 6873TIP3    H142110   0.075   2.723  15.998  0.2617 -0.4588  0.9627
 6873TIP3    H242111   0.065   2.593  15.922  1.1645  1.5911 -2.7871
 6874TIP3   OH242112   0.977   2.211   2.001  0.3715  0.5904 -0.1985
 6874TIP3    H142113   0.891   2.245   2.025 -0.0145 -0.2039 -0.4241
 6874TIP3    H242114   1.014   2.178   2.083  0.2770  0.5350 -0.1782
 6875TIP3   OH242115   6.334   6.313   3.528  0.1702 -0.4123 -0.3426
 6875TIP3    H142116   6.388   6.333   3.605  0.3289  0.4866 -0.6779
 6875TIP3    H242117   6.317   6.219   3.534  0.1231 -0.3338  0.8299
 6876TIP3   OH242118   4.259   2.397  15.246 -0.0391 -0.0864  0.0038
 6876TIP3    H142119   4.222   2.441  15.323  1.1958 -0.4047  0.7956
 6876TIP3    H242120   4.226   2.446  15.171 -0.8626  0.5221  0.7642
 6877TIP3   OH242121   5.164   5.230   3.040  0.7115 -0.8129  0.5488
 6877TIP3    H142122   5.248   5.235   2.995  0.9364 -0.0809  1.0445
 6877TIP3    H242123   5.111   5.173   2.984  0.7374  0.6665 -1.0501
 6878TIP3   OH242124   6.701   4.810  15.942 -0.4316 -0.6854 -0.1849
 6878TIP3    H142125   6.766   4.776  16.003  0.0280 -1.5840 -1.1440
 6878TIP3    H242126   6.745   4.881  15.896 -0.1703 -1.1845 -0.7178
 6879TIP3   OH242127   0.490   1.147  14.891  0.3820  0.2739  0.1453
 6879TIP3    H142128   0.435   1.144  14.813 -0.0269  1.7595  0.3522
 6879TIP3    H242129   0.572   1.106  14.865 -0.3361 -0.7110 -0.5772
 6880TIP3   OH242130   2.579   0.723  14.288 -0.0700  0.0456  0.5639
 6880TIP3    H142131   2.626   0.806  14.297 -0.4492  0.3235  0.0468
 6880TIP3    H242132   2.486   0.748  14.287 -0.1573 -0.2866 -0.5413
 6881TIP3   OH242133   4.134   4.096   5.940  0.3998 -0.0452 -0.7998
 6881TIP3    H142134   4.111   4.061   6.026 -0.8010  0.6734 -0.8221
 6881TIP3    H242135   4.230   4.093   5.938  0.3577 -2.1965 -0.3399
 6882TIP3   OH242136   2.204   5.602   4.642  0.0892  0.3314 -0.2396
 6882TIP3    H142137   2.278   5.663   4.649  0.5093 -0.2592  0.5220
 6882TIP3    H242138   2.185   5.578   4.733  0.1597 -0.9486 -0.5574
 6883TIP3   OH242139   0.348   3.932  14.556  0.2863  0.2867  0.1894
 6883TIP3    H142140   0.385   3.927  14.467  0.9889 -1.2317  0.5455
 6883TIP3    H242141   0.263   3.888  14.549 -0.0218  0.8961  0.0899
 6884TIP3   OH242142   6.635   3.990   3.335 -0.1658  0.4091  0.6716
 6884TIP3    H142143   6.548   4.019   3.308 -1.0704 -2.8894 -0.2567
 6884TIP3    H242144   6.684   3.984   3.252  1.5341  3.8075  1.3355
 6885TIP3   OH242145   2.011   3.137  13.093  0.0513  0.1950  0.3287
 6885TIP3    H142146   1.936   3.196  13.095  0.6233  0.9038  2.4275
 6885TIP3    H242147   2.085   3.193  13.067  0.1057 -0.2118 -0.4182
 6886TIP3   OH242148   4.760   0.244   0.393 -0.3193  0.2430 -0.5675
 6886TIP3    H142149   4.799   0.331   0.394  1.3815 -0.4940 -0.5201
 6886TIP3    H242150   4.832   0.185   0.414 -1.5375 -1.1474 -0.1620
 6887TIP3   OH242151   3.184   1.705   0.274  0.0865 -0.3152 -0.0036
 6887TIP3    H142152   3.116   1.671   0.214 -1.2367  3.9327 -1.0675
 6887TIP3    H242153   3.262   1.713   0.219  0.6710 -2.3961  0.4830
 6888TIP3   OH242154   3.033   3.021   1.035 -0.1649  0.3411  0.3340
 6888TIP3    H142155   3.053   3.081   1.106 -0.2273  0.5454  0.1793
 6888TIP3    H242156   2.987   3.075   0.970  0.5816  0.3411 -0.2068
 6889TIP3   OH242157   5.097   5.099   6.414 -0.5578 -0.0140  0.9357
 6889TIP3    H142158   5.067   5.013   6.443 -0.2224 -0.8686 -1.1563
 6889TIP3    H242159   5.190   5.100   6.437 -0.4964 -0.3154  0.6990
 6890TIP3   OH242160   2.206   4.814  10.371  0.2312 -0.0586 -0.0007
 6890TIP3    H142161   2.244   4.746  10.427 -0.2310 -0.7762 -0.5538
 6890TIP3    H242162   2.280   4.844  10.317  0.5483  0.2370  0.5955
 6891TIP3   OH242163   5.782   6.099  14.998  0.0502 -0.7800  0.1694
 6891TIP3    H142164   5.858   6.072  14.947 -0.8971 -0.7968 -1.2754
 6891TIP3    H242165   5.809   6.181  15.040  0.2860  0.1802 -1.7766
 6892TIP3   OH242166   6.698   1.094  14.853 -0.1868  0.1877 -0.3180
 6892TIP3    H142167   6.673   1.003  14.870  3.0902 -0.3624  2.0064
 6892TIP3    H242168   6.661   1.144  14.926 -2.8689  0.9510 -2.1306
 6893TIP3   OH242169   2.222   5.610  11.315  0.4421 -0.5151 -0.4686
 6893TIP3    H142170   2.307   5.571  11.334  0.9462  0.9310  0.3461
 6893TIP3    H242171   2.242   5.683  11.257 -0.3490 -0.7064 -0.9940
 6894TIP3   OH242172   3.026   6.103   2.754 -0.5441  0.3994 -0.1073
 6894TIP3    H142173   3.058   6.146   2.833 -0.4041  0.9528 -0.4627
 6894TIP3    H242174   2.968   6.167   2.713  0.2084  0.5176 -1.0082
 6895TIP3   OH242175   1.231   3.479  16.470 -0.4340  0.0271 -0.1754
 6895TIP3    H142176   1.216   3.537  16.395  1.3909  1.1003  0.2710
 6895TIP3    H242177   1.199   3.528  16.545  1.6399  0.7364  0.2767
 6896TIP3   OH242178   3.181   1.591   6.439  0.5669  0.4682  0.2012
 6896TIP3    H142179   3.229   1.638   6.507 -0.0962 -0.6512  1.4565
 6896TIP3    H242180   3.089   1.600   6.463  0.3511 -0.3155 -0.2887
 6897TIP3   OH242181   3.994   3.809   3.354  0.5904  0.2980 -0.7876
 6897TIP3    H142182   3.955   3.892   3.382 -0.0049 -0.8817  2.0042
 6897TIP3    H242183   3.951   3.743   3.408  1.6711 -1.7634 -2.3835
 6898TIP3   OH242184   2.451   5.886   5.168  0.1738  0.6463 -0.1158
 6898TIP3    H142185   2.514   5.890   5.240 -1.0655 -0.4851  1.0322
 6898TIP3    H242186   2.461   5.971   5.124  2.2377  0.6345  0.2677
 6899TIP3   OH242187   4.053   1.900   5.425  0.0411 -0.4763  0.0638
 6899TIP3    H142188   4.018   1.821   5.382  0.5075 -0.4681 -0.3314
 6899TIP3    H242189   4.009   1.972   5.381  1.2937 -0.4223 -1.1284
 6900TIP3   OH242190   3.048   0.654  16.302 -0.6771 -0.5304 -0.6293
 6900TIP3    H142191   2.998   0.735  16.295  0.0195 -0.0842 -0.3915
 6900TIP3    H242192   2.985   0.591  16.340 -0.7332  0.3241  0.7318
 6901TIP3   OH242193   1.478   5.994  11.803 -0.2328  0.5345  0.1947
 6901TIP3    H142194   1.415   5.960  11.739  0.0383 -0.5394  0.4909
 6901TIP3    H242195   1.490   6.085  11.778 -1.0773  0.4545 -0.5354
 6902TIP3   OH242196   2.586   1.221   0.507  0.3529 -0.6758  0.3019
 6902TIP3    H142197   2.582   1.306   0.462 -2.8939 -1.2185 -0.5471
 6902TIP3    H242198   2.659   1.175   0.465  1.9529  1.5480  0.5555
 6903TIP3   OH242199   6.050   5.380  11.542  0.4029 -0.1796  0.5576
 6903TIP3    H142200   5.998   5.304  11.570  0.7514 -0.2057  1.1137
 6903TIP3    H242201   6.117   5.390  11.609  2.3443 -1.3368 -1.1452
 6904TIP3   OH242202   3.302   1.829  11.136 -0.3387 -0.3918 -0.1839
 6904TIP3    H142203   3.264   1.754  11.181  0.2886 -0.4207  0.3039
 6904TIP3    H242204   3.239   1.900  11.149 -0.8452 -0.7860 -0.4932
 6905TIP3   OH242205   4.046   3.947   5.720 -0.2724 -0.6208 -0.3408
 6905TIP3    H142206   3.952   3.932   5.731 -0.3946  0.5149  0.1632
 6905TIP3    H242207   4.063   4.029   5.765  0.4425  0.6633 -2.8304
 6906TIP3   OH242208   1.196   0.266   4.979 -0.3426  0.1037  0.2341
 6906TIP3    H142209   1.289   0.258   5.001  0.1152  0.2604 -1.5563
 6906TIP3    H242210   1.192   0.340   4.919 -1.7059  0.3954  0.6657
 6907TIP3   OH242211   6.055   5.659   3.916 -0.5656  0.1926  0.3956
 6907TIP3    H142212   6.036   5.640   3.824 -0.8917  2.4891 -0.0369
 6907TIP3    H242213   6.146   5.689   3.916 -0.3418 -0.4799  0.9293
 6908TIP3   OH242214   4.159   2.223  15.709 -0.4163  0.0645  0.1088
 6908TIP3    H142215   4.133   2.267  15.789 -0.3732 -1.8831  1.2188
 6908TIP3    H242216   4.244   2.183  15.730 -0.0429  0.1478 -1.1483
 6909TIP3   OH242217   1.860   6.467   1.422  0.1024 -0.3202  0.8565
 6909TIP3    H142218   1.838   6.436   1.334 -0.7911  1.3809  0.4646
 6909TIP3    H242219   1.951   6.494   1.416 -0.2195  0.6626  0.1888
 6910TIP3   OH242220   4.994   1.442  13.791 -0.2315  0.3856 -0.1361
 6910TIP3    H142221   5.049   1.399  13.857  0.3970 -0.4336 -1.1724
 6910TIP3    H242222   4.911   1.458  13.836 -0.8494 -2.8379  0.0348
 6911TIP3   OH242223   2.801   4.113  10.632 -0.1075 -0.3244 -0.2293
 6911TIP3    H142224   2.833   4.165  10.558  2.0094  0.9018  1.5065
 6911TIP3    H242225   2.769   4.179  10.694 -0.1333 -1.2479  0.7398
 6912TIP3   OH242226   3.516   1.445   1.188 -0.9908  0.0997  0.4124
 6912TIP3    H142227   3.471   1.474   1.267 -0.4547  1.4303  0.2472
 6912TIP3    H242228   3.579   1.515   1.170 -1.7195  0.2458 -1.6790
 6913TIP3   OH242229   2.278   2.195   1.466 -0.2386  0.6592 -0.6089
 6913TIP3    H142230   2.339   2.269   1.473  0.1001  0.4859 -1.6178
 6913TIP3    H242231   2.285   2.150   1.550  1.7951  0.0727 -1.0576
 6914TIP3   OH242232   2.384   1.834   0.939 -0.2901 -0.2038 -0.1369
 6914TIP3    H142233   2.333   1.916   0.936 -2.6480 -1.6565 -0.9052
 6914TIP3    H242234   2.321   1.768   0.966  1.6280 -1.7777  0.5528
 6915TIP3   OH242235   1.131   1.509   5.618  0.2941  0.0229 -0.1481
 6915TIP3    H142236   1.164   1.434   5.567 -1.1966  0.3910 -1.7031
 6915TIP3    H242237   1.172   1.585   5.576  0.0204  0.2402 -0.0146
 6916TIP3   OH242238   6.428   3.810   5.644 -0.3340 -0.0633  0.0278
 6916TIP3    H142239   6.374   3.793   5.567 -0.0141  0.0183 -0.2134
 6916TIP3    H242240   6.517   3.815   5.611  0.2342 -3.4142  0.8353
 6917TIP3   OH242241   3.521   6.288  13.520  0.1540  0.2338 -0.1332
 6917TIP3    H142242   3.560   6.233  13.452 -0.4590  1.0598 -1.1553
 6917TIP3    H242243   3.428   6.264  13.520  0.1391  0.2935  0.3673
 6918TIP3   OH242244   3.055   5.400   0.783  0.1457  0.0155  0.8199
 6918TIP3    H142245   2.985   5.455   0.751  0.1633  0.8531  2.1625
 6918TIP3    H242246   3.133   5.430   0.736 -0.8003 -2.7853 -2.7711
 6919TIP3   OH242247   0.192   0.937   4.349 -0.7339 -0.2360 -0.5065
 6919TIP3    H142248   0.103   0.940   4.386 -0.6215 -2.5248  0.0265
 6919TIP3    H242249   0.213   1.028   4.331 -2.4716  0.5333  1.1065
 6920TIP3   OH242250   0.052   6.372   4.002  0.4123 -0.3480  0.6895
 6920TIP3    H142251  -0.017   6.432   4.028  1.3096  0.3262  1.5690
 6920TIP3    H242252   0.081   6.331   4.084  2.5639  1.0280  0.6390
 6921TIP3   OH242253   3.792   1.222   0.654 -0.1078 -0.1649  0.4570
 6921TIP3    H142254   3.883   1.224   0.685  0.6140 -0.2005 -1.5624
 6921TIP3    H242255   3.790   1.150   0.591 -1.2513  0.5655 -0.3639
 6922TIP3   OH242256   1.147   3.444   3.059 -0.9442 -0.0457  0.1993
 6922TIP3    H142257   1.217   3.501   3.091 -0.0632 -1.5575  1.0486
 6922TIP3    H242258   1.107   3.407   3.138  1.4487 -4.0361 -0.2946
 6923TIP3   OH242259   0.678   0.755   2.635  0.0296 -0.1573  0.2296
 6923TIP3    H142260   0.713   0.779   2.549  0.0645 -0.4765  0.1547
 6923TIP3    H242261   0.755   0.747   2.691 -0.1000  1.6829  0.7068
 6924TIP3   OH242262   3.265   3.883  14.433 -0.2758 -0.1445 -0.6450
 6924TIP3    H142263   3.335   3.941  14.461 -0.1042 -0.5197 -0.3067
 6924TIP3    H242264   3.305   3.827  14.367  0.2871 -1.7442  1.0312
 6925TIP3   OH242265   1.263   5.306   3.560  0.1951 -0.1110  0.4047
 6925TIP3    H142266   1.235   5.215   3.565 -1.8650  0.6428  3.7812
 6925TIP3    H242267   1.259   5.328   3.467 -0.0445 -3.1963 -0.3497
 6926TIP3   OH242268   4.222   3.825  13.472 -0.8187  0.3763  0.4705
 6926TIP3    H142269   4.190   3.915  13.480 -0.3618  0.6178 -0.3377
 6926TIP3    H242270   4.143   3.771  13.477 -1.2064  0.8842 -0.1151
 6927TIP3   OH242271   2.113   5.226  16.292  0.3244 -0.5663  0.2761
 6927TIP3    H142272   2.080   5.173  16.365  1.7603  1.2910  2.3715
 6927TIP3    H242273   2.110   5.168  16.216 -0.2261 -2.9124  2.0327
 6928TIP3   OH242274   5.842   4.024   2.438  0.2968  0.0917 -0.1641
 6928TIP3    H142275   5.781   3.990   2.372  0.9489 -0.1854 -0.6265
 6928TIP3    H242276   5.885   4.098   2.396 -0.1409  0.6542  0.3694
 6929TIP3   OH242277   4.281   5.487  15.801  0.3011 -0.2172  0.0263
 6929TIP3    H142278   4.375   5.470  15.794  0.4301  1.1021 -1.8673
 6929TIP3    H242279   4.262   5.548  15.730 -1.7729  0.4772  1.1128
 6930TIP3   OH242280   0.930   2.398   1.638  0.0307 -0.8545  0.0652
 6930TIP3    H142281   0.878   2.475   1.661 -0.9537 -1.8930  1.4073
 6930TIP3    H242282   0.933   2.399   1.543 -0.5882  0.4405  0.0476
 6931TIP3   OH242283   1.210   5.984   5.284  0.6451 -0.3217  0.0837
 6931TIP3    H142284   1.197   6.057   5.224  1.6880  0.0593  0.3010
 6931TIP3    H242285   1.261   5.920   5.233 -0.2379 -0.8876 -0.0968
 6932TIP3   OH242286   3.452   5.695   3.068 -0.4235  0.6600 -0.1088
 6932TIP3    H142287   3.479   5.610   3.034 -0.7754  0.2602  0.6119
 6932TIP3    H242288   3.457   5.754   2.992  0.7732  0.2166 -0.3802
 6933TIP3   OH242289   2.199   1.236  17.270  0.2072  0.1814  0.1152
 6933TIP3    H142290   2.162   1.148  17.270  2.1071 -0.6331  0.0599
 6933TIP3    H242291   2.125   1.292  17.246 -0.8158 -1.4871 -0.7820
 6934TIP3   OH242292   2.718   3.351   5.498 -0.5050 -0.4742 -0.2993
 6934TIP3    H142293   2.740   3.258   5.505  0.7681 -0.0597  1.3842
 6934TIP3    H242294   2.684   3.375   5.584  0.4050  0.9273 -0.3040
 6935TIP3   OH242295   0.420   0.300   0.420 -0.3316 -0.0939 -0.0707
 6935TIP3    H142296   0.344   0.245   0.443 -0.3987 -0.1603 -0.4497
 6935TIP3    H242297   0.452   0.332   0.504 -0.1462 -0.9068  0.1790
 6936TIP3   OH242298   4.364   5.847  17.053 -0.2759 -0.6393 -0.7441
 6936TIP3    H142299   4.354   5.942  17.047  1.0216 -0.3329  1.4237
 6936TIP3    H242300   4.312   5.822  17.129  0.2269 -1.5317 -0.6866
 6937TIP3   OH242301   0.923   3.625  16.530  0.2033 -0.3488  0.1193
 6937TIP3    H142302   0.928   3.534  16.557 -0.5708 -0.6094 -0.6037
 6937TIP3    H242303   0.869   3.667  16.596 -1.1130 -0.8415 -0.6347
 6938TIP3   OH242304   3.875   1.999  15.282  0.3175 -0.4792  0.1577
 6938TIP3    H142305   3.927   2.050  15.344  0.7844 -2.4058  1.3835
 6938TIP3    H242306   3.921   2.011  15.198  0.2599  1.3117  0.3498
 6939TIP3   OH242307   5.068   4.202   0.581  0.0904 -0.4779  0.0199
 6939TIP3    H142308   5.133   4.267   0.554 -0.5310 -0.1714 -0.7617
 6939TIP3    H242309   4.993   4.254   0.611  0.0247 -0.8339  0.4864
 6940TIP3   OH242310   6.083   2.990  15.060 -0.0676  0.3355  0.2736
 6940TIP3    H142311   6.178   2.987  15.055 -0.0462  1.2018  0.1085
 6940TIP3    H242312   6.054   3.002  14.970 -0.2897  1.0830  0.4405
 6941TIP3   OH242313   3.058   3.326   5.085  0.2547 -0.0591  0.0160
 6941TIP3    H142314   2.972   3.367   5.097  0.1753 -0.9719  3.0197
 6941TIP3    H242315   3.119   3.387   5.125  0.7250 -0.5381  0.0273
 6942TIP3   OH242316   3.644   3.239   5.755  0.1651 -0.0992 -0.3950
 6942TIP3    H142317   3.617   3.279   5.837 -0.0547 -1.5913  0.2872
 6942TIP3    H242318   3.568   3.189   5.726  1.0539 -1.5865 -0.2181
 6943TIP3   OH242319   0.840   2.768  13.679 -0.2630 -0.1318  0.5749
 6943TIP3    H142320   0.914   2.818  13.714  0.3488  0.6826 -1.8115
 6943TIP3    H242321   0.766   2.829  13.683 -0.0461  0.1855 -0.1189
 6944TIP3   OH242322   2.831   1.838   1.422  0.0731 -0.5969 -0.3425
 6944TIP3    H142323   2.861   1.791   1.500 -0.3625  0.0666  0.2420
 6944TIP3    H242324   2.737   1.820   1.417 -0.7057  2.5321  1.6046
 6945TIP3   OH242325   3.166   6.586   2.133  0.5498  0.4363 -0.1851
 6945TIP3    H142326   3.196   6.496   2.147 -0.5351  0.0323 -0.4556
 6945TIP3    H242327   3.072   6.579   2.118 -0.2664  1.9720  3.6395
 6946TIP3   OH242328   3.017   1.316   0.532  0.3763  0.0691  1.1502
 6946TIP3    H142329   2.969   1.394   0.504  1.8129  1.2345  1.8650
 6946TIP3    H242330   3.100   1.321   0.484  0.1621 -1.4604  0.5963
 6947TIP3   OH242331   4.999   3.325   3.316 -0.2172 -0.3655 -0.5032
 6947TIP3    H142332   4.998   3.287   3.404  0.8614 -1.9337 -1.1473
 6947TIP3    H242333   4.907   3.328   3.290 -0.2535 -3.6936 -0.9008
 6948TIP3   OH242334   3.629   2.903  16.117 -0.2727  0.6469  0.0432
 6948TIP3    H142335   3.539   2.904  16.085 -0.0445 -0.5108 -0.6327
 6948TIP3    H242336   3.634   2.980  16.174 -0.9191  2.2609 -2.0208
 6949TIP3   OH242337   2.394   3.426  11.921  0.4269  0.2187  0.0809
 6949TIP3    H142338   2.488   3.416  11.933  0.4718 -0.4261 -0.8229
 6949TIP3    H242339   2.374   3.377  11.841 -0.9008 -0.8817  1.0570
 6950TIP3   OH242340   3.376   6.403  14.247  0.0840 -0.8502  0.2695
 6950TIP3    H142341   3.360   6.316  14.209 -0.0380 -1.8804  2.5993
 6950TIP3    H242342   3.289   6.441  14.255  0.0060 -1.0820  0.5432
 6951TIP3   OH242343   5.655   6.261   1.420 -0.3452  0.0366 -0.7268
 6951TIP3    H142344   5.589   6.198   1.450  0.6460 -0.3530  0.6978
 6951TIP3    H242345   5.611   6.311   1.351 -2.4936  0.4801  0.9027
 6952TIP3   OH242346   0.511   4.662   4.531  0.4880 -0.0093  0.1454
 6952TIP3    H142347   0.483   4.688   4.443 -1.4756 -2.8446 -0.1539
 6952TIP3    H242348   0.435   4.676   4.586  1.2825  0.4629  1.1362
 6953TIP3   OH242349   5.587   5.334  15.635 -0.0373 -0.0744 -0.1315
 6953TIP3    H142350   5.518   5.396  15.611 -1.5846 -1.1655  1.3499
 6953TIP3    H242351   5.610   5.358  15.725 -0.2373 -1.2317  0.2487
 6954TIP3   OH242352   1.983   0.568   3.202 -1.1300 -0.3997  0.0763
 6954TIP3    H142353   1.896   0.542   3.231 -0.9854  1.9733  2.8752
 6954TIP3    H242354   2.005   0.645   3.255  2.7285 -1.0051 -0.4494
 6955TIP3   OH242355   0.972   5.656   2.318 -0.0396 -0.4638 -0.6733
 6955TIP3    H142356   0.921   5.662   2.238  0.3921 -1.1699 -1.0052
 6955TIP3    H242357   1.063   5.646   2.289  0.2190  0.0917 -0.0921
 6956TIP3   OH242358   5.295   2.035   4.807  0.3454  0.0522  0.2653
 6956TIP3    H142359   5.358   1.965   4.825  0.3462  0.3515  1.4819
 6956TIP3    H242360   5.268   2.065   4.894 -0.0501  1.2035 -0.2527
 6957TIP3   OH242361   0.469   5.804   5.914 -0.2973 -0.0571  0.4540
 6957TIP3    H142362   0.453   5.759   5.831 -1.1970 -2.5892  1.9257
 6957TIP3    H242363   0.562   5.790   5.931 -0.0296  0.7891 -0.3088
 6958TIP3   OH242364   5.696   6.056  16.286 -0.1566  0.0403  0.4776
 6958TIP3    H142365   5.744   5.984  16.246  1.5080  1.4065 -0.0600
 6958TIP3    H242366   5.683   6.119  16.216 -1.2075  0.4654  1.0393
 6959TIP3   OH242367   1.083   4.403   0.070  0.4560  0.1839  0.0237
 6959TIP3    H142368   1.062   4.362  -0.014 -1.7564 -0.0748  0.6844
 6959TIP3    H242369   1.097   4.495   0.049 -2.1434  0.5152 -0.3488
 6960TIP3   OH242370   4.204   4.759   4.718  0.0145  0.4757  0.0233
 6960TIP3    H142371   4.150   4.737   4.793  0.9612  0.8073  0.8083
 6960TIP3    H242372   4.174   4.699   4.649  0.0843 -0.7901  1.0659
 6961TIP3   OH242373   0.693   5.501  15.819 -0.6057 -0.5574  0.3604
 6961TIP3    H142374   0.682   5.550  15.901 -1.3591 -2.4209  1.4115
 6961TIP3    H242375   0.780   5.527  15.787 -0.7193  0.9404  1.2260
 6962TIP3   OH242376   0.018   1.155  15.445  0.1003  0.1790 -0.1424
 6962TIP3    H142377   0.064   1.076  15.418  0.8103  0.5530 -0.0553
 6962TIP3    H242378   0.028   1.158  15.540 -0.4434  0.0606 -0.0782
 6963TIP3   OH242379   0.784   0.001   3.121 -0.8875  0.2491 -0.4814
 6963TIP3    H142380   0.796  -0.094   3.130  0.5796  0.6456  1.9337
 6963TIP3    H242381   0.855   0.028   3.063 -0.3656  0.1171  0.0999
 6964TIP3   OH242382   2.047   1.007  17.200  0.5457  0.1607  0.0173
 6964TIP3    H142383   1.971   0.966  17.241  2.0079 -1.0229  1.6191
 6964TIP3    H242384   2.042   0.980  17.108 -1.0682  0.3047  0.0372
 6965TIP3   OH242385   4.545   1.091   5.813 -0.6080  0.3103 -0.0381
 6965TIP3    H142386   4.599   1.043   5.751  1.6155  0.8820  1.3890
 6965TIP3    H242387   4.487   1.144   5.759  0.8552  0.3303 -1.6346
 6966TIP3   OH242388   6.552   1.116  11.624  0.1114 -0.4778 -0.6306
 6966TIP3    H142389   6.517   1.133  11.712 -0.0227 -0.3894 -0.7005
 6966TIP3    H242390   6.599   1.196  11.601  1.7482 -1.2113  0.1215
 6967TIP3   OH242391   0.446   2.141   5.495 -0.2235 -0.2554 -0.1692
 6967TIP3    H142392   0.353   2.163   5.503 -0.0114  0.5941 -0.0350
 6967TIP3    H242393   0.487   2.221   5.463  0.4040 -0.7515 -0.6071
 6968TIP3   OH242394   0.104   3.725   3.845  0.2129 -0.3154  0.1400
 6968TIP3    H142395   0.062   3.791   3.790  1.0243 -0.5694 -0.7987
 6968TIP3    H242396   0.049   3.720   3.923 -0.8946  0.1280 -0.5954
 6969TIP3   OH242397   6.167   0.345   1.958  0.4592 -0.2136 -0.4164
 6969TIP3    H142398   6.111   0.272   1.987 -0.6474 -0.2544 -2.5383
 6969TIP3    H242399   6.105   0.413   1.933  1.2600 -0.6545 -3.8827
 6970TIP3   OH242400   3.756   6.411  16.216  0.1475 -0.0545 -0.4488
 6970TIP3    H142401   3.805   6.468  16.276  0.5391 -1.7624  0.8851
 6970TIP3    H242402   3.676   6.460  16.197  0.0668  0.5733  1.3756
 6971TIP3   OH242403   2.806   6.014   1.324 -0.2696  0.0061  0.2568
 6971TIP3    H142404   2.835   5.964   1.248  1.1471  1.2541 -0.0394
 6971TIP3    H242405   2.727   5.969   1.353 -0.5547 -0.7674 -1.6526
 6972TIP3   OH242406   2.805   3.958  13.628 -0.1519 -0.0756  0.2063
 6972TIP3    H142407   2.889   3.913  13.621 -0.0068  0.2190  0.0744
 6972TIP3    H242408   2.818   4.042  13.585 -0.5482 -0.0746  0.0804
 6973TIP3   OH242409   1.496   6.431  12.326 -0.1168 -0.3320  0.3294
 6973TIP3    H142410   1.531   6.402  12.411 -0.6709 -0.1138  0.6353
 6973TIP3    H242411   1.542   6.513  12.309 -1.6952  0.8374  1.5545
 6974TIP3   OH242412   5.856   5.337   6.366  0.4666  0.7904 -0.6168
 6974TIP3    H142413   5.811   5.343   6.450  0.7533 -0.2801 -0.3812
 6974TIP3    H242414   5.949   5.345   6.387  0.5819 -0.1363 -0.7518
 6975TIP3   OH242415   3.815   1.351   6.010 -0.5874 -0.6903  0.3229
 6975TIP3    H142416   3.781   1.363   6.099  0.9570 -2.2969  1.1646
 6975TIP3    H242417   3.890   1.410   6.005  0.3894 -1.8570  0.7264
 6976TIP3   OH242418   0.283   5.434  12.971 -0.5911 -0.0027 -0.4820
 6976TIP3    H142419   0.195   5.397  12.964 -1.2276  1.2606  0.6126
 6976TIP3    H242420   0.304   5.462  12.882 -0.1764 -2.7240 -1.2975
 6977TIP3   OH242421   0.502   5.336  14.733  0.1856 -0.0519 -0.3312
 6977TIP3    H142422   0.420   5.293  14.709  0.3303 -0.1126 -0.7302
 6977TIP3    H242423   0.487   5.372  14.820 -0.0335 -0.6506 -0.1262
 6978TIP3   OH242424   0.854   3.252  13.080  0.7541 -0.4285  0.5959
 6978TIP3    H142425   0.908   3.230  13.004 -0.3172  0.2040 -0.3671
 6978TIP3    H242426   0.874   3.343  13.099 -1.4687  0.4728 -1.0816
 6979TIP3   OH242427   6.456   6.427  11.197  0.0154  0.2902 -0.0573
 6979TIP3    H142428   6.532   6.373  11.220 -1.1616 -1.7923 -0.8975
 6979TIP3    H242429   6.416   6.382  11.123 -2.5089  0.8944  0.8887
 6980TIP3   OH242430   1.732   5.007   1.900  0.3554  0.2730 -0.1282
 6980TIP3    H142431   1.822   5.038   1.895  0.2548  0.3642 -1.6483
 6980TIP3    H242432   1.699   5.041   1.984  0.8154  2.7272 -0.9003
 6981TIP3   OH242433   0.106   0.778   4.912 -0.5207  0.6815  0.2285
 6981TIP3    H142434   0.149   0.799   4.995 -1.0221 -1.1914  0.9813
 6981TIP3    H242435   0.177   0.746   4.856 -0.4302  0.5691  0.4103
 6982TIP3   OH242436   0.543   5.795  15.790  0.1502  0.3793  0.1751
 6982TIP3    H142437   0.588   5.872  15.824  0.9443 -0.4025  0.9194
 6982TIP3    H242438   0.585   5.779  15.705  0.3114  0.4794  0.2358
 6983TIP3   OH242439   5.792   3.700  13.962 -0.3904  0.6189 -0.1816
 6983TIP3    H142440   5.814   3.719  13.871 -0.0994  0.5159 -0.1330
 6983TIP3    H242441   5.704   3.665  13.959 -0.5345  0.9987 -0.3820
 6984TIP3   OH242442   1.994   3.876   0.710  0.4057  0.1712  0.5273
 6984TIP3    H142443   1.901   3.873   0.688  0.3136 -0.5268  1.0158
 6984TIP3    H242444   2.039   3.843   0.632  0.2608  0.7534  0.1957
 6985TIP3   OH242445   3.449   0.635   4.148  0.5106 -0.3928  0.5251
 6985TIP3    H142446   3.436   0.543   4.172 -1.8086 -0.6159 -1.3904
 6985TIP3    H242447   3.544   0.645   4.143  0.8277 -2.3197  2.0741
 6986TIP3   OH242448   2.720   6.593  14.775  0.2863  0.4112  0.7877
 6986TIP3    H142449   2.678   6.516  14.813  1.0882  0.1346  1.1260
 6986TIP3    H242450   2.652   6.661  14.777  0.2839  0.3857  2.6536
 6987TIP3   OH242451   4.013   0.966  13.390  0.3770  0.1072 -0.1445
 6987TIP3    H142452   3.978   0.877  13.389  0.1967  0.1397  1.3495
 6987TIP3    H242453   4.092   0.962  13.337 -0.1545 -0.7243 -0.8787
 6988TIP3   OH242454   0.049   2.331   0.097 -0.1110  0.2065  0.3926
 6988TIP3    H142455   0.099   2.377   0.164  0.5110 -0.9582  0.7468
 6988TIP3    H242456  -0.042   2.343   0.122  0.0874  0.4676  0.9995
 6989TIP3   OH242457   3.609   0.527  11.158  0.2987 -0.1831 -0.1985
 6989TIP3    H142458   3.592   0.512  11.065  0.5519  0.4294 -0.3496
 6989TIP3    H242459   3.557   0.461  11.203 -0.4548  0.0319 -0.7465
 6990TIP3   OH242460   6.007   3.231  13.632  0.2593 -0.0616  0.2276
 6990TIP3    H142461   5.922   3.187  13.629 -0.6006  1.5977 -0.2436
 6990TIP3    H242462   6.004   3.292  13.558  0.8561  1.8225  1.7332
 6991TIP3   OH242463   5.950   6.668   6.371 -0.3178  0.0988  0.4258
 6991TIP3    H142464   6.023   6.639   6.425  0.1135  0.5770  0.1126
 6991TIP3    H242465   5.873   6.664   6.428  0.2551  1.3401  1.3046
 6992TIP3   OH242466   0.985   5.016   5.261 -0.7855  0.0158  0.0267
 6992TIP3    H142467   1.022   5.019   5.173 -1.8961 -0.1457 -0.4423
 6992TIP3    H242468   1.048   4.963   5.311 -0.9671 -1.2319 -1.0533
 6993TIP3   OH242469   4.449   6.086  17.136 -0.9436 -0.0621  0.3603
 6993TIP3    H142470   4.411   6.149  17.198 -0.2092  1.5153 -0.7547
 6993TIP3    H242471   4.481   6.140  17.064  2.3007 -1.4321  0.6836
 6994TIP3   OH242472   5.003   4.023  15.540 -0.0533  0.3085  0.6315
 6994TIP3    H142473   5.098   4.021  15.552  0.0619 -0.3667 -0.3648
 6994TIP3    H242474   4.979   3.932  15.521 -0.9354  0.4312  1.0985
 6995TIP3   OH242475   6.572   4.734  14.175 -0.2661  0.1411 -0.2471
 6995TIP3    H142476   6.529   4.809  14.133 -2.0466 -0.9291 -0.4094
 6995TIP3    H242477   6.590   4.673  14.103  1.3502  0.5009 -0.1464
 6996TIP3   OH242478   6.243   4.399   1.928  0.0677  0.4927  0.8998
 6996TIP3    H142479   6.282   4.484   1.947 -0.3216  0.4014  2.1448
 6996TIP3    H242480   6.149   4.417   1.922 -0.0517  0.1086  1.5040
 6997TIP3   OH242481   6.214   5.912   1.436  0.3415  0.2804  0.4246
 6997TIP3    H142482   6.304   5.894   1.407  0.7786 -0.8469  2.4186
 6997TIP3    H242483   6.221   5.921   1.531 -1.4412  1.5793  0.4413
 6998TIP3   OH242484   3.606   1.341  12.786 -0.2773  0.4420 -0.4563
 6998TIP3    H142485   3.589   1.252  12.816  0.1658 -0.1964 -2.0443
 6998TIP3    H242486   3.687   1.333  12.734 -0.4992  1.6755 -1.0032
 6999TIP3   OH242487   4.242   5.854   5.574 -0.1584 -0.5027  0.2655
 6999TIP3    H142488   4.309   5.786   5.563 -2.1954 -2.2632 -1.8969
 6999TIP3    H242489   4.259   5.916   5.503 -0.2164 -0.4752  0.2751
 7000TIP3   OH242490   6.662   0.237  15.165 -0.4351  1.0778  0.6464
 7000TIP3    H142491   6.741   0.196  15.128 -1.1587  0.9204 -0.7557
 7000TIP3    H242492   6.696   0.296  15.233  0.8005  0.1058  0.9036
 7001TIP3   OH242493   5.651   2.209   5.329  0.6835 -0.2261  0.0316
 7001TIP3    H142494   5.580   2.271   5.344 -0.5430 -1.5024 -0.3511
 7001TIP3    H242495   5.659   2.161   5.412  1.6756  0.4768  0.3528
 7002TIP3   OH242496   2.187   4.744   5.291 -0.2028 -0.4808 -0.3670
 7002TIP3    H142497   2.198   4.715   5.200 -0.4958 -4.1825  0.6843
 7002TIP3    H242498   2.160   4.665   5.338  1.8242  0.9143  3.3218
 7003TIP3   OH242499   0.886   2.797  11.976 -0.4082  0.3342  1.4525
 7003TIP3    H142500   0.831   2.868  12.008 -1.9140 -0.0025 -0.3009
 7003TIP3    H242501   0.846   2.771  11.893  1.3852 -1.1049  1.0019
 7004TIP3   OH242502   3.724   0.108  15.109 -0.4863 -0.1394  0.1165
 7004TIP3    H142503   3.812   0.076  15.126  1.1666  2.4961 -3.1057
 7004TIP3    H242504   3.692   0.135  15.195  2.1889 -0.2890  1.2112
 7005TIP3   OH242505   0.897   6.162  11.957 -0.3499  0.6572  0.2477
 7005TIP3    H142506   0.851   6.124  12.031  1.5440 -0.1783  1.0396
 7005TIP3    H242507   0.967   6.214  11.996  0.5114  0.4163 -0.9150
 7006TIP3   OH242508   4.583   4.140  16.198 -0.1463  0.4179  0.5378
 7006TIP3    H142509   4.671   4.158  16.231  0.0663  0.9761 -0.3207
 7006TIP3    H242510   4.591   4.059  16.149  0.1059  0.9881 -0.3749
 7007TIP3   OH242511   5.065   6.663   0.938  0.1041 -0.0210  0.0166
 7007TIP3    H142512   5.121   6.740   0.939  0.4907 -0.3057  1.2037
 7007TIP3    H242513   4.976   6.697   0.950 -0.2048  0.5766 -3.4898
 7008TIP3   OH242514   0.114   0.357  15.274  0.1518 -0.0230 -0.0785
 7008TIP3    H142515   0.132   0.366  15.181  1.3148 -0.3222  0.1097
 7008TIP3    H242516   0.145   0.269  15.297  0.1748  0.1693  0.6527
 7009TIP3   OH242517   2.431   3.315  15.281  0.2805  0.3722 -0.2419
 7009TIP3    H142518   2.387   3.343  15.362  1.1415  0.6736  0.1308
 7009TIP3    H242519   2.426   3.392  15.224 -0.4447  0.1156 -0.5306
 7010TIP3   OH242520   2.589   0.873   4.438 -0.4483  0.2635  0.1823
 7010TIP3    H142521   2.561   0.949   4.490  1.3589  0.3439  1.0602
 7010TIP3    H242522   2.659   0.833   4.489 -0.8748 -1.5965 -0.6302
 7011TIP3   OH242523   2.520   4.132  16.978 -0.4641 -0.3823  0.1121
 7011TIP3    H142524   2.523   4.187  17.057 -0.6150  0.9973 -0.8131
 7011TIP3    H242525   2.437   4.156  16.936  0.0165 -0.4637 -0.8956
 7012TIP3   OH242526   3.515   4.338  10.421  0.2185  0.0998 -0.4823
 7012TIP3    H142527   3.609   4.331  10.403  0.3722  0.2488  0.2496
 7012TIP3    H242528   3.504   4.299  10.508 -0.2780  0.7843 -0.2349
 7013TIP3   OH242529   4.261   4.607  10.432  0.6044  0.1211 -0.2220
 7013TIP3    H142530   4.192   4.541  10.441 -1.7666  2.6005  0.4969
 7013TIP3    H242531   4.312   4.600  10.513 -0.7046  0.3373  0.6298
 7014TIP3   OH242532   4.636   1.616  12.213  0.1313 -0.3613 -0.1244
 7014TIP3    H142533   4.608   1.525  12.219 -2.3037  0.4103  0.9090
 7014TIP3    H242534   4.702   1.626  12.282 -0.6040 -1.0019  0.6777
 7015TIP3   OH242535   6.698   4.126  14.591  0.2542  0.3093  0.7643
 7015TIP3    H142536   6.770   4.088  14.541 -0.7617 -1.3091  0.5011
 7015TIP3    H242537   6.731   4.212  14.618  1.6411  0.2900 -0.7778
 7016TIP3   OH242538   5.412   5.451   5.565  0.2138 -0.2226  0.6349
 7016TIP3    H142539   5.483   5.509   5.538 -0.8433  0.8115  0.0051
 7016TIP3    H242540   5.453   5.389   5.625  1.7232  0.1036 -0.0431
 7017TIP3   OH242541   4.986   3.086  16.202 -0.3152  0.0310  0.4443
 7017TIP3    H142542   5.026   3.173  16.201 -1.9045  0.7870  0.8965
 7017TIP3    H242543   4.892   3.103  16.206 -0.8341 -1.6882 -2.6477
 7018TIP3   OH242544   1.906   4.692  11.635  0.5492  0.2358 -0.0729
 7018TIP3    H142545   1.819   4.652  11.645  0.7726 -0.0562  0.7565
 7018TIP3    H242546   1.895   4.782  11.664 -0.0796  0.9606 -2.4467
 7019TIP3   OH242547   2.360   1.267  14.304 -0.3043  0.2506  0.4416
 7019TIP3    H142548   2.390   1.352  14.270 -0.7464 -0.0343 -0.7040
 7019TIP3    H242549   2.394   1.203  14.241 -0.9937 -0.3102  0.6296
 7020TIP3   OH242550   2.801   2.770   0.396  0.1551  0.3038 -0.0960
 7020TIP3    H142551   2.762   2.723   0.323 -2.2715  0.4828  1.0504
 7020TIP3    H242552   2.895   2.773   0.376 -0.0795 -2.2735 -1.7025
 7021TIP3   OH242553   5.244   2.656  14.960  0.0556 -0.3950  0.2765
 7021TIP3    H142554   5.210   2.650  14.871  0.5158 -1.4547  0.1652
 7021TIP3    H242555   5.194   2.727  15.001 -2.5537 -2.1450  0.2389
 7022TIP3   OH242556   1.976   1.988   3.768  0.5887 -0.2671  0.5253
 7022TIP3    H142557   2.025   1.971   3.848  0.0293 -0.6219  0.7936
 7022TIP3    H242558   1.942   1.903   3.742  0.7316 -0.1485 -0.0717
 7023TIP3   OH242559   5.321   0.374   2.747  0.0458  0.3622 -0.5705
 7023TIP3    H142560   5.248   0.356   2.806 -0.2271 -1.7665 -1.4980
 7023TIP3    H242561   5.303   0.462   2.713 -0.2690  1.2419  1.7752
 7024TIP3   OH242562   3.644   1.782   5.167  0.2469  0.0588 -0.1575
 7024TIP3    H142563   3.552   1.758   5.175  1.0534 -3.5054 -0.7446
 7024TIP3    H242564   3.649   1.831   5.085 -1.1079  0.4002 -0.0535
 7025TIP3   OH242565   2.715   5.992   2.202  0.7965 -0.4626 -0.0460
 7025TIP3    H142566   2.762   5.915   2.234  1.2972 -0.2360 -0.2365
 7025TIP3    H242567   2.750   6.008   2.115  1.2764  0.4687  0.3077
 7026TIP3   OH242568   2.462   4.107   2.349 -0.5396  0.3202  0.7581
 7026TIP3    H142569   2.457   4.072   2.260 -1.0511  0.3163  0.7819
 7026TIP3    H242570   2.467   4.202   2.337  2.1380  0.1834  0.6618
 7027TIP3   OH242571   5.953   4.142  16.325  0.4169  0.0677  0.3737
 7027TIP3    H142572   5.908   4.064  16.357  0.8323 -0.4430 -0.2745
 7027TIP3    H242573   5.899   4.173  16.253 -0.3722  1.0629  1.3717
 7028TIP3   OH242574   1.692   0.905  16.801  0.3042  0.1830 -0.2185
 7028TIP3    H142575   1.762   0.842  16.819  1.3712  1.2153 -0.6827
 7028TIP3    H242576   1.721   0.951  16.722 -0.4997  1.1941  0.0652
 7029TIP3   OH242577   2.671   6.454   5.325 -0.3238  0.1398 -0.0986
 7029TIP3    H142578   2.752   6.417   5.360  0.0940  0.7415 -0.4227
 7029TIP3    H242579   2.618   6.378   5.300  1.4634 -0.2343 -2.9367
 7030TIP3   OH242580   0.053   1.694  14.370 -0.5359 -0.1008 -0.1834
 7030TIP3    H142581  -0.023   1.672  14.318 -0.2147  1.4556 -1.3330
 7030TIP3    H242582   0.058   1.790  14.368  0.8591 -0.1273  0.7119
 7031TIP3   OH242583   0.316   5.277   5.617 -0.5326 -0.2726 -0.0910
 7031TIP3    H142584   0.400   5.246   5.649 -0.7180  0.9287  1.6190
 7031TIP3    H242585   0.251   5.224   5.665 -0.7728 -0.5991 -0.7641
 7032TIP3   OH242586   4.096   4.829   5.721 -0.1302  0.3735  0.1984
 7032TIP3    H142587   4.186   4.846   5.750 -0.1584  1.3651 -0.2700
 7032TIP3    H242588   4.078   4.740   5.750  0.2227  0.9486  2.2375
 7033TIP3   OH242589   4.780   4.326  12.717 -0.1953  0.6993  0.7148
 7033TIP3    H142590   4.728   4.275  12.655  0.3044  1.9275 -0.7354
 7033TIP3    H242591   4.775   4.416  12.685 -1.4156  1.6702  3.4674
 7034TIP3   OH242592   2.287   5.922  16.930  0.0296 -0.5250  0.7226
 7034TIP3    H142593   2.325   6.000  16.889 -0.9647 -0.5520 -0.2795
 7034TIP3    H242594   2.361   5.864  16.946  1.0311  1.3338  3.0963
 7035TIP3   OH242595   4.947   5.537   3.608 -0.7479 -0.0981  0.3187
 7035TIP3    H142596   4.928   5.614   3.661 -0.2798 -0.0939  0.4844
 7035TIP3    H242597   4.951   5.569   3.518 -2.4751 -0.2655  0.1720
 7036TIP3   OH242598   5.250   5.384  13.527  0.0055  0.0531 -0.6238
 7036TIP3    H142599   5.317   5.318  13.541  0.7347  0.7957 -0.5628
 7036TIP3    H242600   5.298   5.461  13.496 -1.0966 -0.2030 -3.0554
 7037TIP3   OH242601   4.067   4.977   5.442 -0.1667 -0.2721 -0.0970
 7037TIP3    H142602   4.097   4.900   5.393  0.8418 -0.7067  1.1564
 7037TIP3    H242603   4.091   4.957   5.533 -0.2260  1.3684  0.2835
 7038TIP3   OH242604   2.696   2.592  17.055 -1.0540 -0.8185 -0.4741
 7038TIP3    H142605   2.721   2.549  16.973 -1.7190  1.3962 -1.8723
 7038TIP3    H242606   2.723   2.683  17.045 -2.6138 -0.1291  1.1062
 7039TIP3   OH242607   1.534   5.151  16.852  0.4215  0.2301 -0.0513
 7039TIP3    H142608   1.480   5.149  16.773  0.7321  0.7801 -0.2843
 7039TIP3    H242609   1.479   5.193  16.918  0.4279  0.4535 -0.1870
 7040TIP3   OH242610   6.708   5.430   0.643  0.2278  0.1889 -0.4010
 7040TIP3    H142611   6.777   5.404   0.583 -0.8701 -0.6014 -1.3347
 7040TIP3    H242612   6.700   5.525   0.632  2.2695  0.5392  0.9163
 7041TIP3   OH242613   3.266   1.357  15.126  0.3012  0.3090 -0.3619
 7041TIP3    H142614   3.239   1.272  15.160 -0.0976 -0.0671 -1.5869
 7041TIP3    H242615   3.344   1.379  15.177  0.6195 -0.9649 -0.2585
 7042TIP3   OH242616   3.713   3.525   3.334  0.0240 -0.0404  0.5450
 7042TIP3    H142617   3.626   3.492   3.358 -0.7615  0.9495 -0.8045
 7042TIP3    H242618   3.765   3.447   3.316 -0.8202 -0.6263  0.6216
 7043TIP3   OH242619   2.109   3.395   2.641 -0.3437  0.2730 -0.2394
 7043TIP3    H142620   2.053   3.421   2.568 -1.7946  0.1749  0.8191
 7043TIP3    H242621   2.122   3.301   2.628 -0.1675  0.3497 -0.6468
 7044TIP3   OH242622   4.665   3.769  17.082  0.1485  0.5387  0.1274
 7044TIP3    H142623   4.619   3.826  17.144 -1.7376  1.0861 -1.7228
 7044TIP3    H242624   4.753   3.806  17.076  0.2773  0.6472  2.2165
 7045TIP3   OH242625   5.714   2.188   4.068 -0.4604  0.0981 -0.3049
 7045TIP3    H142626   5.689   2.251   4.135  0.1613  0.2965 -0.2540
 7045TIP3    H242627   5.804   2.164   4.090 -0.8590 -1.1577 -0.0618
 7046TIP3   OH242628   5.101   6.733   1.368  0.1219 -0.4302  0.0854
 7046TIP3    H142629   5.014   6.694   1.375  0.3966 -1.1071 -0.1258
 7046TIP3    H242630   5.111   6.786   1.446  0.1875 -1.7263  0.9715
 7047TIP3   OH242631   4.693   1.684  10.612 -0.1122  0.5806  0.2648
 7047TIP3    H142632   4.674   1.651  10.524 -1.5209 -0.2871  0.8718
 7047TIP3    H242633   4.610   1.722  10.641  0.7112  2.0885  0.7023
 7048TIP3   OH242634   6.490   4.335   3.247 -0.4415 -0.3997 -0.6318
 7048TIP3    H142635   6.448   4.315   3.163 -2.5955  1.1985  0.0010
 7048TIP3    H242636   6.470   4.260   3.302 -0.6460 -0.6113 -0.9935
 7049TIP3   OH242637   2.328   2.244   6.509 -0.1705  0.8788 -0.0864
 7049TIP3    H142638   2.257   2.308   6.521 -0.4197  0.7857 -0.9625
 7049TIP3    H242639   2.298   2.190   6.435  0.1172 -0.1479  0.5507
 7050TIP3   OH242640   2.910   2.936  14.784  0.1085  0.7720  0.0269
 7050TIP3    H142641   2.869   2.871  14.842  0.1170  0.1399 -0.6572
 7050TIP3    H242642   2.984   2.970  14.834 -0.9535  1.5631  1.0879
 7051TIP3   OH242643   1.809   1.462  15.443 -0.0504  0.2664  0.5297
 7051TIP3    H142644   1.746   1.390  15.439  1.2987 -0.9465  0.7902
 7051TIP3    H242645   1.849   1.462  15.356  1.6840 -0.9143  1.2934
 7052TIP3   OH242646   2.406   0.743   1.195 -0.1590 -0.1893 -0.4019
 7052TIP3    H142647   2.499   0.757   1.216 -0.3973 -0.3420  0.7632
 7052TIP3    H242648   2.383   0.817   1.139  1.1247 -1.0818 -2.1611
 7053TIP3   OH242649   1.602   1.969  13.211  0.1963 -0.2986  0.1721
 7053TIP3    H142650   1.536   1.954  13.144  1.1815 -0.9791 -0.6751
 7053TIP3    H242651   1.682   1.930  13.174  0.9393  0.0609  1.3840
 7054TIP3   OH242652   6.278   3.505  14.245  0.6296  0.4490  0.3219
 7054TIP3    H142653   6.311   3.478  14.159 -0.2583  1.3045 -0.2970
 7054TIP3    H242654   6.188   3.532  14.228 -0.2037 -1.2356  1.8731
 7055TIP3   OH242655   3.689   0.576   0.602 -0.2096 -0.3642 -0.1295
 7055TIP3    H142656   3.720   0.500   0.553  2.5143 -0.0886  1.1076
 7055TIP3    H242657   3.694   0.550   0.694 -1.9017  0.3722  0.2077
 7056TIP3   OH242658   5.223   2.631   4.475 -0.0839  0.3557 -0.8133
 7056TIP3    H142659   5.140   2.676   4.488 -0.1200  0.3369 -0.9781
 7056TIP3    H242660   5.288   2.689   4.514 -0.2455  0.0767 -0.1316
 7057TIP3   OH242661   6.774   2.660  11.693  0.0380 -0.1170 -0.0180
 7057TIP3    H142662   6.784   2.703  11.608 -1.7582  0.9878  0.3015
 7057TIP3    H242663   6.688   2.688  11.723  0.2948 -1.2223  1.7679
 7058TIP3   OH242664   0.216   3.228   0.385 -0.2536  0.3854 -0.1232
 7058TIP3    H142665   0.197   3.308   0.335 -0.0284 -0.0222 -0.8785
 7058TIP3    H242666   0.287   3.186   0.336 -1.3926 -1.0447 -0.5840
 7059TIP3   OH242667   3.363   4.472   2.990 -0.3590  0.3284  0.3798
 7059TIP3    H142668   3.384   4.543   2.929 -0.3095  0.3477  0.4197
 7059TIP3    H242669   3.271   4.487   3.012 -0.4887  0.0876  0.0052
 7060TIP3   OH242670   5.836   5.048  16.896 -0.1197  0.2491  0.0564
 7060TIP3    H142671   5.867   5.003  16.818 -0.7470 -2.3973  1.2682
 7060TIP3    H242672   5.745   5.070  16.877 -0.4499 -0.9320  0.2552
 7061TIP3   OH242673   2.549   2.880  15.239  0.3738  0.1295 -0.0539
 7061TIP3    H142674   2.610   2.922  15.300 -0.6920  2.7287 -0.6803
 7061TIP3    H242675   2.483   2.840  15.295  1.8466 -1.4366  0.5868
 7062TIP3   OH242676   3.090   0.628   2.515 -0.0765 -0.5839 -0.5842
 7062TIP3    H142677   3.079   0.606   2.422 -1.1277 -0.4576 -0.5022
 7062TIP3    H242678   3.007   0.669   2.539  0.5798  0.3008  0.1604
 7063TIP3   OH242679   5.317   6.044   1.137 -0.1792  0.0033  0.3698
 7063TIP3    H142680   5.334   5.955   1.167 -0.0045 -0.0380  0.1507
 7063TIP3    H242681   5.286   6.034   1.047 -1.6293  0.0590  0.8536
 7064TIP3   OH242682   1.408   6.327   2.531  0.2445  0.4537 -0.5404
 7064TIP3    H142683   1.373   6.286   2.452  0.1063 -0.1260 -0.1828
 7064TIP3    H242684   1.408   6.257   2.597 -1.4631  1.4102  0.5230
 7065TIP3   OH242685   6.358   3.656   4.929  0.2994  0.2587  0.2912
 7065TIP3    H142686   6.369   3.596   5.003  1.2787  1.3989  1.0754
 7065TIP3    H242687   6.424   3.724   4.943 -0.4790  1.2599 -0.8666
 7066TIP3   OH242688   1.178   6.259  15.104 -0.3870  1.1193  0.7987
 7066TIP3    H142689   1.267   6.222  15.105 -0.8949 -0.1456  0.4684
 7066TIP3    H242690   1.159   6.279  15.195 -0.5183 -0.4951  1.1446
 7067TIP3   OH242691   3.898   2.498   3.283  0.1848  0.6036 -0.1765
 7067TIP3    H142692   3.992   2.512   3.295 -0.0299  2.3140 -0.3422
 7067TIP3    H242693   3.857   2.571   3.330 -1.1507 -1.3389  1.7932
 7068TIP3   OH242694   5.334   0.695   1.143  0.4474  0.0327 -0.0639
 7068TIP3    H142695   5.400   0.765   1.144 -0.2345  0.6792 -0.0239
 7068TIP3    H242696   5.290   0.703   1.228  0.3757 -0.4580 -0.0546
 7069TIP3   OH242697   0.552   6.687   4.118  0.5016  0.5113  0.5311
 7069TIP3    H142698   0.499   6.609   4.104  1.1717 -0.1277  1.5569
 7069TIP3    H242699   0.502   6.757   4.075 -0.0908 -0.4678 -0.4102
 7070TIP3   OH242700   5.506   0.413  13.256 -0.1154  0.5780 -0.0172
 7070TIP3    H142701   5.594   0.404  13.293  1.3283  0.7538 -3.2577
 7070TIP3    H242702   5.465   0.480  13.310  0.3728 -2.0824  3.8901
 7071TIP3   OH242703   3.433   4.375  16.100 -0.3150 -0.4340  0.2422
 7071TIP3    H142704   3.378   4.453  16.092  0.3846  0.1120  0.6997
 7071TIP3    H242705   3.425   4.332  16.015  0.6412  1.0521 -0.6260
 7072TIP3   OH242706   0.771   4.173   1.488  0.4303  0.2662 -0.5202
 7072TIP3    H142707   0.731   4.246   1.535 -0.6077 -0.1414 -0.7667
 7072TIP3    H242708   0.838   4.214   1.434  0.0772  1.0021 -0.4060
 7073TIP3   OH242709   3.869   5.747  10.869 -0.6475  0.1138 -0.9426
 7073TIP3    H142710   3.907   5.659  10.872  1.0357  0.7025 -3.5799
 7073TIP3    H242711   3.774   5.732  10.872 -0.3592 -1.5799  1.8154
 7074TIP3   OH242712   3.015   6.014  15.560 -0.3310  0.3417  0.2354
 7074TIP3    H142713   2.940   6.019  15.618 -1.8596  1.4237 -1.7909
 7074TIP3    H242714   3.041   5.922  15.561 -2.0227 -0.1335  0.5018
 7075TIP3   OH242715   2.530   6.084   2.441 -0.3598  0.6391 -0.6720
 7075TIP3    H142716   2.517   6.045   2.527  2.2325  0.7642 -0.1884
 7075TIP3    H242717   2.539   6.009   2.381  0.7571  0.5060 -0.3509
 7076TIP3   OH242718   1.662   1.471   0.215 -0.0306  0.3652 -0.5022
 7076TIP3    H142719   1.687   1.512   0.298  0.8107  2.7723 -1.8689
 7076TIP3    H242720   1.736   1.416   0.191 -1.0471 -1.8371  1.2118
 7077TIP3   OH242721   6.457   3.695  16.175 -0.3040  0.3262  0.0726
 7077TIP3    H142722   6.512   3.633  16.222 -1.4385 -0.4241  0.4166
 7077TIP3    H242723   6.519   3.755  16.134  0.8112 -1.1464 -0.4265
 7078TIP3   OH242724   0.138   0.002   2.105 -0.3275  0.3731 -0.0546
 7078TIP3    H142725   0.198  -0.072   2.101 -2.5236 -1.4073 -1.6748
 7078TIP3    H242726   0.121   0.024   2.013 -0.8567  1.9372  0.4024
 7079TIP3   OH242727   2.126   3.492  13.397  0.0858  0.6112  0.1058
 7079TIP3    H142728   2.190   3.498  13.326  1.6051  0.2593  1.4192
 7079TIP3    H242729   2.103   3.583  13.415  0.0599  0.7296 -0.5023
 7080TIP3   OH242730   3.074   2.956   2.996  0.5793  0.3180 -0.2506
 7080TIP3    H142731   3.118   3.038   3.021 -0.1573  0.4560  0.6301
 7080TIP3    H242732   3.103   2.893   3.062 -0.0180  0.2406 -0.0650
 7081TIP3   OH242733   1.714   3.752   1.091 -0.5704 -0.7057 -0.1186
 7081TIP3    H142734   1.627   3.786   1.113 -0.3050 -0.1971  0.1338
 7081TIP3    H242735   1.696   3.672   1.041 -1.1841 -0.3181 -0.5161
 7082TIP3   OH242736   5.460   0.923   3.919  0.5309  0.7184 -0.3254
 7082TIP3    H142737   5.378   0.966   3.894  0.2726  0.0343 -0.6592
 7082TIP3    H242738   5.527   0.991   3.907 -0.0037  1.3345  0.1198
 7083TIP3   OH242739   2.852   3.116  14.577  0.2753 -0.0583  0.1790
 7083TIP3    H142740   2.845   3.081  14.666  3.7231  0.1744  0.6289
 7083TIP3    H242741   2.858   3.038  14.522 -0.5789 -0.1968  0.2755
 7084TIP3   OH242742   2.449   2.438   4.428  0.0899  0.7977  0.5659
 7084TIP3    H142743   2.471   2.524   4.391 -1.8893  1.3877  0.6929
 7084TIP3    H242744   2.476   2.445   4.520  0.6748  0.9942  0.3842
 7085TIP3   OH242745   3.597   2.353  11.773  0.0445  0.0509 -0.3127
 7085TIP3    H142746   3.536   2.377  11.703  1.2363 -1.9558 -2.1082
 7085TIP3    H242747   3.663   2.423  11.772  0.5561 -0.4274 -1.8584
 7086TIP3   OH242748   3.190   0.368   1.919  0.2244  0.1107  0.1879
 7086TIP3    H142749   3.185   0.300   1.851  1.0798  0.9769 -0.7545
 7086TIP3    H242750   3.105   0.365   1.963 -0.2202 -0.6691 -0.7159
 7087TIP3   OH242751   4.680   3.388  10.330  0.6296  0.3600  0.3482
 7087TIP3    H142752   4.671   3.313  10.272 -0.3371  0.0478  0.8918
 7087TIP3    H242753   4.775   3.396  10.345  0.8215 -0.0479 -0.6119
 7088TIP3   OH242754   5.791   4.399   3.616  0.1868  0.2883  0.6239
 7088TIP3    H142755   5.804   4.405   3.521 -2.1397  1.3871  0.3373
 7088TIP3    H242756   5.749   4.314   3.629  0.0326  0.3665  0.6281
 7089TIP3   OH242757   4.846   3.469  17.024  0.3183 -0.4073  0.0131
 7089TIP3    H142758   4.939   3.475  17.048  0.9560 -0.0998 -2.4504
 7089TIP3    H242759   4.844   3.405  16.953 -1.4199 -0.7178  0.3280
 7090TIP3   OH242760   4.779   2.231   2.234 -0.4988 -0.1189 -0.2685
 7090TIP3    H142761   4.872   2.239   2.257 -0.1091 -2.1329 -1.0118
 7090TIP3    H242762   4.752   2.148   2.274 -1.6903 -0.0748 -0.9734
 7091TIP3   OH242763   6.632   6.022   3.420  0.4425  0.4099  0.1303
 7091TIP3    H142764   6.665   6.106   3.453  1.6274 -0.7313  1.9424
 7091TIP3    H242765   6.585   5.984   3.494 -0.7858 -0.1861 -0.9412
 7092TIP3   OH242766   3.403   3.295  10.815 -0.0005  0.4702  0.2664
 7092TIP3    H142767   3.322   3.341  10.838 -0.9226 -1.8246  1.6779
 7092TIP3    H242768   3.379   3.239  10.742  0.8231  1.1879 -0.5865
 7093TIP3   OH242769   0.642   1.028   3.835 -0.2939 -0.1244 -0.0047
 7093TIP3    H142770   0.638   0.986   3.749 -0.0382  2.2449 -1.2132
 7093TIP3    H242771   0.553   1.020   3.870 -0.3320 -1.3219 -0.3561
 7094TIP3   OH242772   2.254   0.761  14.871 -0.0240  0.2417  0.3089
 7094TIP3    H142773   2.167   0.768  14.830  0.4104  0.2085 -0.6462
 7094TIP3    H242774   2.257   0.672  14.906 -0.4777  0.3295  0.5682
 7095TIP3   OH242775   6.612   3.671   4.699  0.7188 -0.0530  0.1684
 7095TIP3    H142776   6.587   3.762   4.687  1.7059  0.2713  0.5006
 7095TIP3    H242777   6.553   3.638   4.767 -0.2795  0.0583 -0.6380
 7096TIP3   OH242778   4.490   2.738   3.546  0.9418 -0.4612  0.1726
 7096TIP3    H142779   4.497   2.833   3.552 -0.8344 -0.4471  2.9608
 7096TIP3    H242780   4.580   2.707   3.561  1.1074  0.6921  1.7004
 7097TIP3   OH242781   5.565   0.204   0.563 -0.2169 -0.2725  0.0660
 7097TIP3    H142782   5.653   0.224   0.531  0.1500 -1.3670  0.3955
 7097TIP3    H242783   5.510   0.273   0.525  0.6682  0.0348 -0.6748
 7098TIP3   OH242784   5.007   3.308  13.062  0.2893  0.0826  0.2679
 7098TIP3    H142785   5.052   3.224  13.068 -0.7242 -0.4152  0.9872
 7098TIP3    H242786   5.032   3.355  13.141  0.1333  0.0974  0.3094
 7099TIP3   OH242787   4.678   2.799   1.633  0.8072 -0.2976 -0.3264
 7099TIP3    H142788   4.769   2.800   1.663  1.2208  0.8739 -1.5733
 7099TIP3    H242789   4.685   2.795   1.538 -0.4714 -2.5285 -0.3762
 7100TIP3   OH242790   2.410   2.461  14.987 -0.0728 -0.3427  0.3382
 7100TIP3    H142791   2.450   2.532  14.937 -0.1279  1.3778  2.6353
 7100TIP3    H242792   2.477   2.392  14.988  0.6298  0.3186 -0.5622
 7101TIP3   OH242793   0.533   1.306  15.408  0.4136  0.3871 -0.9725
 7101TIP3    H142794   0.575   1.222  15.427 -0.3449  0.1143 -0.4727
 7101TIP3    H242795   0.524   1.307  15.313  0.2929 -0.1698 -0.9697
 7102TIP3   OH242796   5.881   5.900   1.704  0.0157 -0.6104  0.1077
 7102TIP3    H142797   5.832   5.937   1.777  0.6784  0.6791 -0.0877
 7102TIP3    H242798   5.910   5.975   1.653 -0.0282 -1.4722 -1.2332
 7103TIP3   OH242799   3.595   1.931  10.894 -0.6650  0.9142  0.1537
 7103TIP3    H142800   3.689   1.935  10.876 -1.0182  2.0965 -1.5005
 7103TIP3    H242801   3.590   1.924  10.989  1.1845 -2.7185  0.0810
 7104TIP3   OH242802   5.706   2.667   4.043  0.7620 -0.1399  0.1957
 7104TIP3    H142803   5.681   2.580   4.013  1.7453  0.0413 -1.2275
 7104TIP3    H242804   5.784   2.688   3.991  3.0423 -0.1440  3.5003
 7105TIP3   OH242805   0.200   0.088  11.890 -0.0095 -0.5064  0.4819
 7105TIP3    H142806   0.196   0.170  11.939  0.3843  1.1371 -2.1240
 7105TIP3    H242807   0.146   0.105  11.812  0.4395 -2.5788 -0.2961
 7106TIP3   OH242808   4.969   0.147   0.151  0.6351  0.3766  0.1273
 7106TIP3    H142809   4.957   0.128   0.245  0.7825 -2.3024 -0.3577
 7106TIP3    H242810   5.003   0.237   0.149  1.6659  0.0880  2.7066
 7107TIP3   OH242811   0.466   2.423   0.109 -0.4466 -0.1330 -0.9259
 7107TIP3    H142812   0.527   2.422   0.035 -0.4687 -0.1928 -0.9429
 7107TIP3    H242813   0.430   2.335   0.112 -0.5921 -0.0745 -0.9651
 7108TIP3   OH242814   3.755   2.026  12.302  0.6028 -0.1085  0.0997
 7108TIP3    H142815   3.752   1.956  12.368  2.2605 -0.0345  0.2974
 7108TIP3    H242816   3.797   1.985  12.226  2.9701  1.0242  0.7354
 7109TIP3   OH242817   4.656   0.536  16.484  0.0481 -0.0648  0.3115
 7109TIP3    H142818   4.710   0.487  16.422  0.0325 -2.2297  1.9358
 7109TIP3    H242819   4.653   0.625  16.449  0.6861 -1.0442 -2.3437
 7110TIP3   OH242820   3.053   3.935   0.916 -0.1181 -0.0349  0.4736
 7110TIP3    H142821   3.014   4.014   0.954  1.4932  0.6549  0.7773
 7110TIP3    H242822   3.007   3.862   0.957 -1.2387  0.7445  0.6230
 7111TIP3   OH242823   6.303   5.919   4.417 -0.2337 -0.0269 -0.3753
 7111TIP3    H142824   6.251   5.880   4.347 -0.2450 -1.1400  0.2518
 7111TIP3    H242825   6.244   5.921   4.493  0.7226 -1.6245  0.4450
 7112TIP3   OH242826   2.698   6.538   1.165 -0.3473 -0.1104 -0.0478
 7112TIP3    H142827   2.715   6.521   1.072  2.6416 -0.7930  0.5593
 7112TIP3    H242828   2.639   6.612   1.166 -1.1076 -0.6408 -2.5186
 7113TIP3   OH242829   0.378   0.551   1.613  0.1372  0.5551 -0.1413
 7113TIP3    H142830   0.395   0.566   1.706 -1.0280  1.9025 -0.1217
 7113TIP3    H242831   0.460   0.518   1.578  1.2352  2.0924  0.9327
 7114TIP3   OH242832   1.294   0.916  13.995 -0.0371  0.3212 -0.2905
 7114TIP3    H142833   1.256   0.904  13.908 -1.2691 -1.9354  0.5369
 7114TIP3    H242834   1.254   0.998  14.026 -1.7455 -0.3065 -0.7471
 7115TIP3   OH242835   0.108   3.757  14.538 -0.0062 -0.3613 -0.1909
 7115TIP3    H142836   0.148   3.736  14.453  0.2436  0.1966 -0.2090
 7115TIP3    H242837   0.014   3.758  14.520  0.0383 -0.3753 -0.4297
 7116TIP3   OH242838   5.356   3.871   2.202 -0.5603 -0.0937  0.1653
 7116TIP3    H142839   5.377   3.935   2.270  0.4230 -1.1342  0.8706
 7116TIP3    H242840   5.382   3.912   2.120  1.1809 -0.0358  0.7213
 7117TIP3   OH242841   4.019   4.926  10.600 -0.4201  0.4598  0.1798
 7117TIP3    H142842   4.083   4.880  10.653  0.7042  0.2340 -1.3168
 7117TIP3    H242843   4.003   4.867  10.526 -2.2050  0.6077  0.4366
 7118TIP3   OH242844   3.324   4.505  14.619 -0.5529 -0.0197  0.0929
 7118TIP3    H142845   3.309   4.500  14.525  0.5404  0.6099 -0.1224
 7118TIP3    H242846   3.250   4.458  14.658 -1.8655  1.1118 -0.9982
 7119TIP3   OH242847   5.486   3.422   2.938  0.0853  0.0691  0.5591
 7119TIP3    H142848   5.498   3.515   2.919 -0.9294  0.1716  0.3902
 7119TIP3    H242849   5.407   3.398   2.889 -0.7478 -0.4156  2.1163
 7120TIP3   OH242850   5.988   4.528   6.494 -0.0905  0.2510 -0.0220
 7120TIP3    H142851   5.956   4.442   6.521  1.2308 -0.5798 -1.0795
 7120TIP3    H242852   5.926   4.556   6.427 -0.2363 -0.0881 -0.0284
 7121TIP3   OH242853   6.707   1.653  12.565  0.1399  0.3065 -0.0763
 7121TIP3    H142854   6.668   1.690  12.487  0.8766  0.5849 -0.3213
 7121TIP3    H242855   6.735   1.729  12.617  2.1061  0.1108 -0.8123
 7122TIP3   OH242856   4.580   6.298   4.974 -0.6034  0.3061  0.2192
 7122TIP3    H142857   4.583   6.372   5.035  0.1581  0.2157  0.2908
 7122TIP3    H242858   4.487   6.289   4.953 -0.7417  1.0650  0.4782
 7123TIP3   OH242859   2.811   0.665   1.708 -0.2172  0.2895 -0.2132
 7123TIP3    H142860   2.849   0.700   1.627  1.0573 -1.8457 -0.5717
 7123TIP3    H242861   2.867   0.701   1.777  0.3229 -0.0204 -0.4830
 7124TIP3   OH242862   5.280   2.250   1.145  0.4327 -0.0777 -0.0384
 7124TIP3    H142863   5.352   2.236   1.207 -1.6262  1.4361  2.8256
 7124TIP3    H242864   5.258   2.162   1.114  2.4327 -0.7271  0.3089
 7125TIP3   OH242865   3.286   4.597  16.025  0.6200 -0.5387  0.0249
 7125TIP3    H142866   3.337   4.622  15.948  1.1243  0.8556  0.8039
 7125TIP3    H242867   3.286   4.675  16.081 -1.1808 -0.9797  0.6813
 7126TIP3   OH242868   2.099   5.015   2.200  0.2351 -0.0691  0.3629
 7126TIP3    H142869   2.048   5.095   2.213 -0.6313 -0.8402  1.8313
 7126TIP3    H242870   2.035   4.950   2.172  0.9086 -0.3073 -0.6489
 7127TIP3   OH242871   4.958   1.477  17.105 -0.3329 -0.0306 -0.3214
 7127TIP3    H142872   4.957   1.507  17.196 -1.2975 -1.2103  0.0797
 7127TIP3    H242873   5.000   1.391  17.109  1.3516  0.7239 -1.2784
 7128TIP3   OH242874   3.156   6.805  16.282 -0.1264 -0.1977 -0.0444
 7128TIP3    H142875   3.229   6.861  16.254 -0.5753  0.9093  0.9407
 7128TIP3    H242876   3.176   6.784  16.374 -1.3623  0.6402  0.4240
 7129TIP3   OH242877   0.089   6.498  13.628  0.4152  0.8901  0.5448
 7129TIP3    H142878   0.001   6.462  13.634  0.3807  1.0558  1.1469
 7129TIP3    H242879   0.130   6.452  13.555 -0.2054  0.8968  0.1945
 7130TIP3   OH242880   0.218   1.849  15.161  0.0258  0.3865 -0.0515
 7130TIP3    H142881   0.256   1.826  15.076  0.7122 -1.4098  0.7338
 7130TIP3    H242882   0.272   1.803  15.225 -2.1314 -0.4286  1.2150
 7131TIP3   OH242883   3.568   2.113  12.499 -0.4255 -0.0318 -0.2384
 7131TIP3    H142884   3.614   2.094  12.417 -1.5150 -1.1616 -0.6020
 7131TIP3    H242885   3.487   2.063  12.493 -0.7693  0.3212  1.2933
 7132TIP3   OH242886   1.548   6.657   0.644  0.1690 -0.5190 -0.4836
 7132TIP3    H142887   1.579   6.735   0.692  1.2744 -1.6281  0.6554
 7132TIP3    H242888   1.537   6.687   0.554  0.2712  1.0498  0.0074
 7133TIP3   OH242889   4.839   3.609  15.876 -0.2561 -0.7408  0.3316
 7133TIP3    H142890   4.923   3.597  15.920  0.3961 -1.6806 -1.1041
 7133TIP3    H242891   4.775   3.571  15.935  0.3580 -0.2655  1.3189
 7134TIP3   OH242892   4.263   1.936  15.033 -0.0325  0.1712  0.1621
 7134TIP3    H142893   4.310   1.944  14.950  0.1636  0.7993  0.3320
 7134TIP3    H242894   4.292   2.011  15.085 -1.3741  0.6788  0.1948
 7135TIP3   OH242895   2.848   4.890   4.009  0.0224  0.0452 -0.3938
 7135TIP3    H142896   2.853   4.795   3.998  1.6317 -0.1832  1.9673
 7135TIP3    H242897   2.785   4.918   3.943  0.5536 -2.4967 -2.0820
 7136TIP3   OH242898   0.753   5.544  15.482 -0.2383  0.9412 -0.1766
 7136TIP3    H142899   0.816   5.522  15.551  1.9166  3.5694 -1.1936
 7136TIP3    H242900   0.699   5.466  15.473  0.4968 -0.0555  3.3056
 7137TIP3   OH242901   3.083   0.266  11.877  0.5103  0.6209  0.0613
 7137TIP3    H142902   3.150   0.215  11.833  0.0627  1.8481 -2.0859
 7137TIP3    H242903   3.112   0.270  11.968  2.5357 -0.1508 -0.5361
 7138TIP3   OH242904   4.209   3.901   2.423  0.3169 -0.0900 -0.6000
 7138TIP3    H142905   4.172   3.920   2.337 -0.3807  2.7884  0.2912
 7138TIP3    H242906   4.184   3.810   2.440 -2.6172  0.4062 -1.9098
 7139TIP3   OH242907   0.420   5.259   1.074  0.2688  0.2046  0.1765
 7139TIP3    H142908   0.377   5.237   0.991  1.0611 -0.5881 -0.0284
 7139TIP3    H242909   0.503   5.299   1.048 -0.1533  1.3429  0.5779
 7140TIP3   OH242910   0.732   3.456   2.201 -0.1421 -0.3298  0.3392
 7140TIP3    H142911   0.798   3.490   2.140  1.8360 -0.8443  2.1411
 7140TIP3    H242912   0.693   3.533   2.241  1.2991 -0.0673  1.2554
 7141TIP3   OH242913   0.089   3.677  13.665  0.1640  0.1573 -0.0423
 7141TIP3    H142914   0.097   3.584  13.685  0.6786  0.1839 -0.1097
 7141TIP3    H242915   0.126   3.686  13.577 -0.1227  0.3824 -0.1390
 7142TIP3   OH242916   6.184   0.839  11.734 -0.1939 -0.1820  0.2967
 7142TIP3    H142917   6.194   0.756  11.687 -0.7902 -0.3318  0.4370
 7142TIP3    H242918   6.200   0.817  11.825  4.1129  0.6653 -0.1334
 7143TIP3   OH242919   6.288   0.506   3.766 -0.4572 -0.0128  0.2290
 7143TIP3    H142920   6.234   0.534   3.840 -0.2619  1.8791 -0.3103
 7143TIP3    H242921   6.274   0.574   3.700  1.4471 -0.2750 -0.4686
 7144TIP3   OH242922   1.178   3.775  13.042  0.2658  0.4380 -0.2260
 7144TIP3    H142923   1.203   3.703  12.984  1.3202  0.2941  0.4022
 7144TIP3    H242924   1.233   3.849  13.015  0.7951  0.3577  0.6114
 7145TIP3   OH242925   6.723   6.580   5.539 -0.2103  0.5962 -0.1127
 7145TIP3    H142926   6.682   6.512   5.485  1.0077 -0.7131  0.5796
 7145TIP3    H242927   6.767   6.532   5.609  0.0102  2.1543  0.8531
 7146TIP3   OH242928   2.525   3.862  15.490  0.0112  0.1600  0.4151
 7146TIP3    H142929   2.602   3.899  15.535  0.0018  0.4412  0.2065
 7146TIP3    H242930   2.455   3.925  15.508  0.4817  1.3070 -1.6152
 7147TIP3   OH242931   2.268   6.743  16.419  0.3434  0.1392  0.3658
 7147TIP3    H142932   2.292   6.822  16.371 -0.1718  0.5983  0.8505
 7147TIP3    H242933   2.284   6.672  16.358  2.0678  0.4904  0.3693
 7148TIP3   OH242934   3.372   2.638   4.965  0.1511 -0.2532  0.0452
 7148TIP3    H142935   3.432   2.705   4.931  0.4107 -0.7927 -0.5764
 7148TIP3    H242936   3.401   2.557   4.923 -0.6983 -0.6089  0.1372
 7149TIP3   OH242937   0.983   5.483  12.944 -0.7356  0.2167 -0.5427
 7149TIP3    H142938   1.022   5.543  12.881  0.4479 -0.5267 -0.5187
 7149TIP3    H242939   0.897   5.521  12.963 -0.1711  1.6633 -0.8532
 7150TIP3   OH242940   3.890   5.893  14.911  0.5545 -0.0714 -0.8472
 7150TIP3    H142941   3.948   5.897  14.987 -0.0771  0.5150 -0.3889
 7150TIP3    H242942   3.934   5.945  14.844 -0.3629  2.0433  0.1331
 7151TIP3   OH242943   0.667   3.648   5.337 -0.3576 -0.2101 -0.4586
 7151TIP3    H142944   0.753   3.670   5.373  0.0688  1.1530 -2.2247
 7151TIP3    H242945   0.679   3.561   5.299  0.8868  0.8623 -2.6236
 7152TIP3   OH242946   1.108   2.271  12.273 -0.2779 -0.6630  0.5036
 7152TIP3    H142947   1.128   2.180  12.251  1.1095 -0.3352  0.3271
 7152TIP3    H242948   1.078   2.267  12.364  0.3825 -1.2315  0.7078
 7153TIP3   OH242949   2.970   6.576   1.582  0.4143 -0.4899  0.1052
 7153TIP3    H142950   2.934   6.535   1.504  0.9459 -0.7078 -0.0244
 7153TIP3    H242951   3.064   6.580   1.566  0.4185  0.3046  0.3406
 7154TIP3   OH242952   0.070   0.111  12.465  0.3699  0.2312  0.1864
 7154TIP3    H142953   0.045   0.021  12.443 -1.3530  0.7726 -0.0836
 7154TIP3    H242954   0.042   0.122  12.556 -2.1888  1.4622 -0.7137
 7155TIP3   OH242955   3.596   5.471   3.072  0.2241 -0.2191 -0.7580
 7155TIP3    H142956   3.596   5.394   3.129  2.7849 -0.0604 -0.5110
 7155TIP3    H242957   3.656   5.532   3.114 -2.4934  2.3574 -0.4431
 7156TIP3   OH242958   3.833   3.122  15.463 -0.4261  0.2448  0.1036
 7156TIP3    H142959   3.922   3.089  15.450 -0.0532 -0.1952  3.2466
 7156TIP3    H242960   3.782   3.085  15.391  1.7697 -0.1720 -1.2591
 7157TIP3   OH242961   5.294   0.021   2.495  0.5355 -0.3695  0.3677
 7157TIP3    H142962   5.328   0.106   2.466  1.1978 -1.0290 -0.8464
 7157TIP3    H242963   5.241   0.041   2.572  0.6632  1.1497  0.0774
 7158TIP3   OH242964   1.652   6.717   2.308 -0.0942 -0.1048 -0.3249
 7158TIP3    H142965   1.684   6.719   2.218 -1.2794 -0.8778 -0.7751
 7158TIP3    H242966   1.620   6.628   2.321 -0.5707  0.1915  0.6320
 7159TIP3   OH242967   4.309   0.963   5.464  0.3612 -0.2517 -0.0067
 7159TIP3    H142968   4.304   1.043   5.518  0.7262  1.2339 -2.1205
 7159TIP3    H242969   4.402   0.956   5.442  0.1866 -0.7787 -0.5549
 7160TIP3   OH242970   1.415   5.424  16.398  0.3194 -0.2064  0.0277
 7160TIP3    H142971   1.380   5.367  16.330 -0.6688  0.5101 -0.0635
 7160TIP3    H242972   1.344   5.432  16.461  0.2820  1.3421 -0.2105
 7161TIP3   OH242973   6.621   3.101   5.590 -0.5332 -0.3041 -0.4154
 7161TIP3    H142974   6.627   3.007   5.606 -1.0257 -0.2521  0.0966
 7161TIP3    H242975   6.674   3.115   5.511  0.2857 -0.8765  0.0140
 7162TIP3   OH242976   2.836   5.231  11.436  0.1014 -0.4352 -0.0339
 7162TIP3    H142977   2.775   5.275  11.495 -0.6399 -1.7412  0.1966
 7162TIP3    H242978   2.842   5.289  11.360  2.8701  2.4397  2.2294
 7163TIP3   OH242979   0.975   1.261   4.429 -0.5625  0.2535 -0.2273
 7163TIP3    H142980   0.989   1.355   4.443  0.9894  0.1012 -0.6608
 7163TIP3    H242981   1.044   1.235   4.368 -1.0290 -1.1571 -0.1811
 7164TIP3   OH242982   0.815   0.942   1.343 -0.1256 -0.1142 -0.3303
 7164TIP3    H142983   0.728   0.909   1.365  0.1930 -0.9683 -0.3041
 7164TIP3    H242984   0.800   1.030   1.310 -0.9620 -0.1178  0.0286
 7165TIP3   OH242985   6.725   4.489  15.531  0.4012  0.4464 -0.3867
 7165TIP3    H142986   6.691   4.511  15.618  0.2492 -0.4260 -0.2208
 7165TIP3    H242987   6.755   4.572  15.495  2.9507  0.4417  1.5597
 7166TIP3   OH242988   3.519   4.161  12.265 -0.0453 -0.1960  0.2035
 7166TIP3    H142989   3.603   4.198  12.291  0.4836 -2.1073  1.3333
 7166TIP3    H242990   3.465   4.237  12.242  0.6038  1.3811  3.5398
 7167TIP3   OH242991   5.188   1.250  11.441  0.5444  0.5528 -0.0237
 7167TIP3    H142992   5.209   1.285  11.354 -0.2647 -0.0933 -0.4960
 7167TIP3    H242993   5.166   1.158  11.425  0.0250  0.5259  0.8134
 7168TIP3   OH242994   2.515   5.289   6.077  0.1880  0.2419  0.0015
 7168TIP3    H142995   2.512   5.222   6.009 -0.4912 -0.9337  1.1543
 7168TIP3    H242996   2.526   5.371   6.030  2.1881 -0.7905 -1.3576
 7169TIP3   OH242997   1.422   0.810  14.385 -0.0399 -0.3292  0.3003
 7169TIP3    H142998   1.397   0.742  14.448  1.0785  0.7703  1.9784
 7169TIP3    H242999   1.341   0.858  14.370 -0.1782 -0.1745  1.4486
 7170TIP3   OH243000   4.985   0.265  14.130  0.0935  0.7966  0.4829
 7170TIP3    H143001   5.065   0.231  14.089  0.7697  0.6962  1.8450
 7170TIP3    H243002   4.972   0.350  14.089  1.2689  1.0956  0.6920
 7171TIP3   OH243003   5.578   0.911  15.597 -0.3544 -0.4404  0.5640
 7171TIP3    H143004   5.596   0.886  15.688 -0.9088  1.3585  1.1820
 7171TIP3    H243005   5.500   0.965  15.602  0.5815  1.0780 -0.7842
 7172TIP3   OH243006   0.969   2.062  11.888  0.5338 -0.1635 -0.0332
 7172TIP3    H143007   0.913   2.005  11.940  0.7585 -0.1922  0.1788
 7172TIP3    H243008   0.954   2.149  11.924  0.2036 -0.0900 -0.3450
 7173TIP3   OH243009   0.545   5.931   6.232 -0.7907  0.3952  0.0765
 7173TIP3    H143010   0.619   5.963   6.282 -1.4577  0.5206  0.9994
 7173TIP3    H243011   0.519   6.005   6.178  0.5648 -0.0556 -1.2212
 7174TIP3   OH243012   6.155   5.030  15.236 -0.4210  0.2046 -0.4106
 7174TIP3    H143013   6.179   4.939  15.221 -1.3166 -0.4779  1.9369
 7174TIP3    H243014   6.216   5.060  15.303 -0.2598  1.2599 -1.0298
 7175TIP3   OH243015   2.775   1.783  14.566  0.4183  0.3381  0.5258
 7175TIP3    H143016   2.687   1.815  14.585  0.4983  0.9628 -0.1288
 7175TIP3    H243017   2.804   1.835  14.491  1.1950 -0.1317  0.4902
 7176TIP3   OH243018   2.256   0.192  11.924  0.0594 -0.1694  0.3503
 7176TIP3    H143019   2.306   0.217  12.002 -1.4803  2.2430  0.6352
 7176TIP3    H243020   2.174   0.158  11.959 -0.1220 -0.3024 -0.2078
 7177TIP3   OH243021   5.485   2.464  16.401  0.0883 -0.3542 -0.1151
 7177TIP3    H143022   5.413   2.421  16.354  0.7700 -0.5804 -0.9726
 7177TIP3    H243023   5.446   2.543  16.438 -0.2191  0.4541 -2.0627
 7178TIP3   OH243024   4.974   2.761  14.770 -0.0795  0.1869  0.2947
 7178TIP3    H143025   4.978   2.827  14.702  2.3595  1.8594  2.0011
 7178TIP3    H243026   5.028   2.689  14.737 -0.3079  0.2717 -0.2713
 7179TIP3   OH243027   0.602   1.719   0.133 -0.1139 -0.1347  0.3641
 7179TIP3    H143028   0.557   1.641   0.102 -1.8482  0.6254  0.8642
 7179TIP3    H243029   0.532   1.784   0.144  0.7929  0.4199  3.2827
 7180TIP3   OH243030   1.002   5.631  10.955  0.6192  0.3923 -0.4222
 7180TIP3    H143031   1.061   5.581  10.899 -0.5019 -0.5001 -0.8445
 7180TIP3    H243032   0.978   5.707  10.902 -0.0820 -0.2167 -0.9985
 7181TIP3   OH243033   4.084   3.469  13.087  0.5985 -0.2046 -0.3500
 7181TIP3    H143034   4.067   3.374  13.088 -0.0137 -0.0903  1.6462
 7181TIP3    H243035   4.088   3.491  12.994  0.1347 -2.0908 -0.8466
 7182TIP3   OH243036   5.238   6.597  11.279 -0.1624  0.5051 -0.4869
 7182TIP3    H143037   5.231   6.642  11.363 -0.8173  0.9342 -0.7650
 7182TIP3    H243038   5.211   6.507  11.297 -0.0199  0.5215 -0.1823
 7183TIP3   OH243039   6.704   1.603   2.932  0.7763 -0.0689  0.9774
 7183TIP3    H143040   6.697   1.682   2.984 -0.9402  0.2858  0.2681
 7183TIP3    H243041   6.712   1.634   2.842  0.9459 -0.6934  0.7730
 7184TIP3   OH243042   4.286   6.164  11.635 -0.3023  0.0482 -0.1128
 7184TIP3    H143043   4.285   6.115  11.552  0.2183  1.6799 -1.0962
 7184TIP3    H243044   4.204   6.213  11.634  0.9489  2.1614 -0.9410
 7185TIP3   OH243045   1.648   4.036   4.414 -0.4670 -0.1005 -0.6037
 7185TIP3    H143046   1.580   3.971   4.430  0.2271 -0.6968 -0.0359
 7185TIP3    H243047   1.717   3.988   4.367  0.7741 -0.1973  1.2881
 7186TIP3   OH243048   6.177   6.363   4.436 -0.0045  0.2252 -0.1131
 7186TIP3    H143049   6.162   6.286   4.382 -0.6403  0.0625  0.2962
 7186TIP3    H243050   6.090   6.393   4.461  0.3009 -0.1865  1.5167
 7187TIP3   OH243051   0.270   3.113   3.954 -0.0002  0.0915  0.0159
 7187TIP3    H143052   0.300   3.204   3.951  0.0408  0.0563 -0.7186
 7187TIP3    H243053   0.187   3.116   4.002  0.6973  0.3211  1.2335
 7188TIP3   OH243054   6.654   2.745   1.555 -0.2583  0.1360  0.7784
 7188TIP3    H143055   6.740   2.765   1.517 -1.6037  0.3090 -2.3007
 7188TIP3    H243056   6.665   2.659   1.594  0.8349 -0.6776 -1.2323
 7189TIP3   OH243057   5.605   2.672  13.125 -0.4925 -0.0338  0.1063
 7189TIP3    H143058   5.562   2.742  13.076 -1.9723 -1.6203 -0.9130
 7189TIP3    H243059   5.541   2.644  13.190 -0.8303 -2.0033 -1.0328
 7190TIP3   OH243060   0.449   5.022   4.574  0.0579 -0.0736 -0.0325
 7190TIP3    H143061   0.436   4.945   4.629  0.4034 -1.2043 -1.5319
 7190TIP3    H243062   0.537   5.052   4.595 -0.2781  0.2580  0.9560
 7191TIP3   OH243063   4.604   5.224  16.762 -0.2361 -0.0292 -0.2205
 7191TIP3    H143064   4.667   5.295  16.745  0.2074 -0.4413 -0.3225
 7191TIP3    H243065   4.637   5.150  16.711 -0.0785 -0.6356  0.7485
 7192TIP3   OH243066   6.295   6.744  15.014 -0.2916  0.0186  0.1777
 7192TIP3    H143067   6.213   6.784  14.984  0.4649  0.2644 -1.6688
 7192TIP3    H243068   6.338   6.811  15.066 -1.1811 -0.0499  1.0058
 7193TIP3   OH243069   2.363   6.199   0.587  0.6885  0.3116 -0.4268
 7193TIP3    H143070   2.271   6.213   0.608  0.4761  1.2621 -1.9720
 7193TIP3    H243071   2.408   6.274   0.626  0.7022  0.3231 -0.4660
 7194TIP3   OH243072   6.422   4.606   3.238  0.0129 -0.4913  0.0441
 7194TIP3    H143073   6.345   4.576   3.190 -0.3136  1.6056 -0.8208
 7194TIP3    H243074   6.443   4.535   3.297 -1.1349 -2.0952 -1.4243
 7195TIP3   OH243075   3.867   6.237   0.401 -0.0217 -0.3414  0.1344
 7195TIP3    H143076   3.935   6.170   0.402  0.7017  0.3751  0.2741
 7195TIP3    H243077   3.912   6.315   0.366 -1.3945 -0.5062 -2.1195
 7196TIP3   OH243078   3.681   4.834   1.702 -0.3469  0.0121  0.2578
 7196TIP3    H143079   3.709   4.925   1.709 -0.7341  0.1455  0.0760
 7196TIP3    H243080   3.731   4.789   1.770  1.9057 -0.1513 -1.4462
 7197TIP3   OH243081   6.327   5.703  12.456 -0.2469  0.1008 -0.7358
 7197TIP3    H143082   6.377   5.650  12.394  0.3151 -0.8996  0.5569
 7197TIP3    H243083   6.392   5.733  12.519 -1.2950 -1.3843  1.0810
 7198TIP3   OH243084   3.020   0.038   2.479 -0.1245  0.2094 -0.1476
 7198TIP3    H143085   3.021   0.113   2.538 -0.0971 -0.2953  0.4951
 7198TIP3    H243086   2.960   0.064   2.408  0.7945  1.2996 -0.5418
 7199TIP3   OH243087   0.139   4.470  11.487  0.0529 -0.4318  0.3040
 7199TIP3    H143088   0.172   4.559  11.486 -0.8534 -0.0898 -0.3714
 7199TIP3    H243089   0.213   4.416  11.462  0.7844  0.0594  1.3650
 7200TIP3   OH243090   3.491   1.834   1.361  0.0359 -0.1156  0.2394
 7200TIP3    H143091   3.416   1.893   1.367  0.6991  0.6828  0.7897
 7200TIP3    H243092   3.454   1.747   1.378 -1.2214 -0.0964 -2.2015
 7201TIP3   OH243093   4.642   6.600  17.090 -0.0789 -0.0218  0.5114
 7201TIP3    H143094   4.671   6.624  17.002 -0.9196 -1.8201 -0.2892
 7201TIP3    H243095   4.681   6.666  17.148 -1.7545  2.8120 -1.4615
 7202TIP3   OH243096   5.292   3.630   0.102 -0.5055 -0.0071  0.1386
 7202TIP3    H143097   5.220   3.693   0.110  1.3230  2.0932  0.5128
 7202TIP3    H243098   5.362   3.678   0.057  1.7892 -0.9820  2.5007
 7203TIP3   OH243099   3.618   6.191  13.946  0.6915  0.4019 -0.2831
 7203TIP3    H143100   3.563   6.114  13.956 -0.0551  1.0687  0.8053
 7203TIP3    H243101   3.627   6.226  14.034  1.3258  1.3471 -0.7167
 7204TIP3   OH243102   4.792   5.148   4.011  0.5861 -0.8096  0.3758
 7204TIP3    H143103   4.881   5.125   4.038  0.6269 -1.5766 -0.4187
 7204TIP3    H243104   4.742   5.068   4.024  0.2150 -0.6536 -0.1093
 7205TIP3   OH243105   6.490   1.541  15.508  0.1844  0.2506  0.5441
 7205TIP3    H143106   6.530   1.496  15.434 -1.2715 -1.5347  0.8126
 7205TIP3    H243107   6.529   1.629  15.507  2.6537 -0.8066 -0.3308
 7206TIP3   OH243108   4.000   5.690  13.183  0.1706 -0.3478  0.1258
 7206TIP3    H143109   3.986   5.703  13.276 -0.9872  0.5809 -0.1722
 7206TIP3    H243110   4.091   5.660  13.176  0.8986  1.5247  1.3641
 7207TIP3   OH243111   3.993   3.949   2.231 -0.0754  0.2789  0.5220
 7207TIP3    H143112   3.975   3.942   2.137  0.5323 -0.2669  0.4389
 7207TIP3    H243113   3.916   3.914   2.274 -0.1614  0.0950  0.2165
 7208TIP3   OH243114   5.721   3.928   2.229 -0.1866  0.1775  0.0812
 7208TIP3    H143115   5.635   3.968   2.241 -0.6049 -0.6097 -0.2336
 7208TIP3    H243116   5.748   3.957   2.142 -0.4072 -0.0796 -0.0727
 7209TIP3   OH243117   1.951   4.062   1.428 -0.1338 -0.3278  0.5730
 7209TIP3    H143118   1.953   4.135   1.489 -1.5888  1.0289 -0.9555
 7209TIP3    H243119   1.882   4.005   1.461 -0.8996  0.3890  0.2315
 7210TIP3   OH243120   1.782   5.691  14.437  0.0255 -0.6844 -0.6245
 7210TIP3    H143121   1.712   5.686  14.502 -0.8313  0.0454 -1.4601
 7210TIP3    H243122   1.753   5.633  14.366  0.4349 -0.6620 -0.8116
 7211TIP3   OH243123   1.548   4.406  11.995  0.8169 -0.0911  0.1215
 7211TIP3    H143124   1.557   4.316  11.964  0.0021  0.2038 -0.9978
 7211TIP3    H243125   1.491   4.399  12.072 -0.0305 -0.4366 -0.5259
 7212TIP3   OH243126   5.885   6.096   3.816  0.2881  0.1179 -0.4605
 7212TIP3    H143127   5.829   6.096   3.738  0.5801 -0.7336 -0.6743
 7212TIP3    H243128   5.956   6.035   3.794 -0.4351 -1.3040  1.0430
 7213TIP3   OH243129   5.460   4.292  15.272 -0.1390 -0.5174  0.4424
 7213TIP3    H143130   5.453   4.231  15.198 -0.0606 -0.4105  0.3490
 7213TIP3    H243131   5.478   4.235  15.348  3.6333 -0.3022 -0.2137
 7214TIP3   OH243132   3.269   0.845   6.153  0.0026  0.3779  0.1931
 7214TIP3    H143133   3.212   0.921   6.169 -1.4739 -1.0123  1.7890
 7214TIP3    H243134   3.240   0.780   6.217 -0.8450 -2.6827 -3.1246
 7215TIP3   OH243135   6.268   5.530   2.711 -0.0813  0.0498 -0.1396
 7215TIP3    H143136   6.335   5.466   2.738  1.5474  1.9328  0.4055
 7215TIP3    H243137   6.296   5.557   2.623 -2.0320 -1.6135 -1.3171
 7216TIP3   OH243138   4.964   3.473  16.379  0.0467 -0.1285  0.5187
 7216TIP3    H143139   4.994   3.500  16.466 -0.7719 -0.4140  0.8968
 7216TIP3    H243140   4.876   3.510  16.371 -0.6927 -1.8354  0.6431
 7217TIP3   OH243141   5.058   3.526   1.560 -0.0983 -0.1028  0.3706
 7217TIP3    H143142   5.142   3.489   1.535  0.3963  1.2462 -0.0170
 7217TIP3    H243143   5.063   3.538   1.655  0.7949  1.5112  0.1388
 7218TIP3   OH243144   3.132   1.981   5.542  0.0735  0.0883 -0.2627
 7218TIP3    H143145   3.094   1.931   5.469  1.2282  1.8056 -2.0978
 7218TIP3    H243146   3.226   1.966   5.536  0.2838  1.1836  0.1454
 7219TIP3   OH243147   0.251   3.389  11.954  0.0399 -0.2544  0.4381
 7219TIP3    H143148   0.220   3.310  11.997  0.2472 -0.9944 -0.7588
 7219TIP3    H243149   0.314   3.427  12.016  0.9872 -1.7633  0.4361
 7220TIP3   OH243150   5.675   1.567   5.457 -0.1653  0.8067 -0.4328
 7220TIP3    H143151   5.666   1.653   5.499 -0.2450  0.9358 -0.7164
 7220TIP3    H243152   5.761   1.536   5.485 -1.7082 -0.7833  2.9335
 7221TIP3   OH243153   2.882   4.125   1.065 -0.1319  0.0379 -0.4505
 7221TIP3    H143154   2.819   4.196   1.072 -0.4307 -0.2057 -0.6954
 7221TIP3    H243155   2.832   4.046   1.083  0.2455 -0.0945  0.0351
 7222TIP3   OH243156   6.261   2.358   1.983 -0.1039 -0.0658  0.2889
 7222TIP3    H143157   6.346   2.401   1.978  0.2792 -0.8501  0.0601
 7222TIP3    H243158   6.281   2.265   1.995 -0.9250 -0.2510  0.2767
 7223TIP3   OH243159   3.422   1.481   1.744 -0.1110  0.0381  0.1746
 7223TIP3    H143160   3.330   1.462   1.725  0.0665  1.1443 -1.9661
 7223TIP3    H243161   3.454   1.401   1.786 -2.0250 -0.3668  0.9316
 7224TIP3   OH243162   1.371   0.455  15.686 -0.1629 -0.1137 -0.4063
 7224TIP3    H143163   1.303   0.456  15.619  0.6168  2.2517 -1.1979
 7224TIP3    H243164   1.437   0.516  15.654  1.1159 -0.3956  1.6177
 7225TIP3   OH243165   4.348   5.116  13.652 -0.2280 -0.5218 -0.3294
 7225TIP3    H143166   4.377   5.047  13.591  0.2959 -0.0933 -0.5709
 7225TIP3    H243167   4.409   5.109  13.726 -1.4932 -1.7156  0.6277
 7226TIP3   OH243168   2.083   2.314   4.960  0.4652  0.1591 -0.1539
 7226TIP3    H143169   2.116   2.312   4.870 -0.8045 -0.0208 -0.6246
 7226TIP3    H243170   2.153   2.276   5.013  1.7747  1.5191 -0.8887
 7227TIP3   OH243171   4.603   5.544   5.181 -0.0983 -0.0291 -0.7972
 7227TIP3    H143172   4.632   5.454   5.163  0.5236 -0.3844  1.8605
 7227TIP3    H243173   4.513   5.534   5.212 -0.0237  0.2670 -0.4888
 7228TIP3   OH243174   3.546   2.754   3.350 -0.5777  0.3953 -0.2742
 7228TIP3    H143175   3.641   2.746   3.363 -0.5226  2.1130  0.5160
 7228TIP3    H243176   3.538   2.813   3.275 -1.0165  2.1993  1.1471
 7229TIP3   OH243177   4.225   3.796   0.173 -0.2037 -0.4804  0.1193
 7229TIP3    H143178   4.226   3.786   0.078  1.4217  0.6628  0.0007
 7229TIP3    H243179   4.316   3.780   0.200 -0.2146  1.2487  1.2489
 7230TIP3   OH243180   1.576   0.639   3.551  0.0903  0.0452 -0.1653
 7230TIP3    H143181   1.532   0.640   3.636 -0.7354  0.6404 -0.5933
 7230TIP3    H243182   1.516   0.593   3.493  0.7539 -0.5607 -0.3809
 7231TIP3   OH243183   2.230   5.920  11.195  0.3684 -0.7249 -0.2306
 7231TIP3    H143184   2.145   5.958  11.173 -0.3863 -2.1790  0.1290
 7231TIP3    H243185   2.294   5.987  11.168 -0.9558  1.3366  1.5520
 7232TIP3   OH243186   3.113   5.932   2.487 -0.2135  0.1255 -0.0502
 7232TIP3    H143187   3.036   5.977   2.523 -0.5055 -0.8156  0.5154
 7232TIP3    H243188   3.113   5.847   2.531 -0.0360 -0.6725 -1.5818
 7233TIP3   OH243189   3.653   4.962   4.616 -0.2474  0.9238  0.1533
 7233TIP3    H143190   3.564   4.985   4.643 -0.7722 -0.1455 -0.6543
 7233TIP3    H243191   3.673   4.882   4.664  0.3063  1.2020  0.3884
 7234TIP3   OH243192   5.109   6.240  12.638 -0.3577  0.2144 -0.4900
 7234TIP3    H143193   5.083   6.150  12.658 -1.8870  0.7384 -0.0568
 7234TIP3    H243194   5.054   6.264  12.563  0.4762  0.5818 -0.9820
 7235TIP3   OH243195   3.932   3.574   5.766 -0.3681  0.0808  0.0701
 7235TIP3    H143196   4.027   3.564   5.766 -0.4017 -0.2457 -0.0450
 7235TIP3    H243197   3.916   3.649   5.823 -0.0165  0.3869 -0.2304
 7236TIP3   OH243198   6.484   6.636  11.372  0.8664  0.2135  0.2481
 7236TIP3    H143199   6.448   6.558  11.330  1.6455  0.4012 -0.7716
 7236TIP3    H243200   6.568   6.608  11.407 -0.1938 -0.2092  2.5783
 7237TIP3   OH243201   5.037   5.463  11.183  0.1089 -0.0340 -1.1263
 7237TIP3    H143202   5.100   5.449  11.254 -0.8162 -0.5040 -0.3895
 7237TIP3    H243203   5.091   5.480  11.106  1.1769 -2.0568 -0.8617
 7238TIP3   OH243204   5.913   5.803   4.405 -0.6026  0.3934  0.2346
 7238TIP3    H143205   5.863   5.722   4.394  1.0704 -0.6256 -0.2026
 7238TIP3    H243206   5.953   5.794   4.492 -2.4077  1.9259  1.2609
 7239TIP3   OH243207   1.583   3.276  11.520 -0.3007 -0.0038  0.2627
 7239TIP3    H143208   1.652   3.219  11.553 -1.7227 -1.6506  0.4861
 7239TIP3    H243209   1.535   3.303  11.598  0.3791  1.5540  0.1608
 7240TIP3   OH243210   4.563   1.818  13.466  0.2106  0.1230 -0.5409
 7240TIP3    H143211   4.604   1.901  13.445  1.7686 -0.6398 -0.6108
 7240TIP3    H243212   4.627   1.773  13.522  0.2364 -1.8135 -2.0682
 7241TIP3   OH243213   1.329   1.211   3.792  0.2313  0.4817  0.2965
 7241TIP3    H143214   1.293   1.215   3.703 -0.7795  0.3622  0.6985
 7241TIP3    H243215   1.278   1.143   3.836  1.7764 -0.5716  0.5156
 7242TIP3   OH243216   0.848   1.016  12.608 -0.4496  0.2007 -0.1330
 7242TIP3    H143217   0.907   1.088  12.586  0.6560 -1.1136 -1.5077
 7242TIP3    H243218   0.810   0.989  12.525 -1.0492 -0.6528  0.4048
 7243TIP3   OH243219   3.888   2.108   2.949 -0.4324  0.0669 -0.3790
 7243TIP3    H143220   3.855   2.195   2.972 -2.3930 -0.4188 -1.2635
 7243TIP3    H243221   3.928   2.076   3.030 -1.5687  0.9464  0.5586
 7244TIP3   OH243222   4.676   4.814   3.928 -0.0710 -0.1131 -0.5231
 7244TIP3    H143223   4.625   4.875   3.875 -2.5376 -3.0249 -1.6521
 7244TIP3    H243224   4.678   4.853   4.015 -1.2723  1.7440 -1.3100
 7245TIP3   OH243225   5.278   1.751  10.643  0.4054 -0.3219  0.5237
 7245TIP3    H143226   5.321   1.794  10.717 -0.6221 -0.6541  1.3329
 7245TIP3    H243227   5.236   1.674  10.682  1.9374 -1.8867 -0.8387
 7246TIP3   OH243228   2.863   4.115   0.082 -0.6538 -0.1377 -0.0577
 7246TIP3    H143229   2.805   4.189   0.099 -0.2253  0.3865 -0.8623
 7246TIP3    H243230   2.923   4.115   0.157 -1.2083 -0.2195  0.3917
 7247TIP3   OH243231   1.800   1.099   5.292  0.5816 -0.4749 -0.2037
 7247TIP3    H143232   1.740   1.170   5.318  0.2689 -0.9749  0.4621
 7247TIP3    H243233   1.791   1.093   5.197 -1.3971 -1.4070  0.0247
 7248TIP3   OH243234   1.336   3.600  15.634  0.0055  0.0928  0.1863
 7248TIP3    H143235   1.351   3.506  15.629  0.8990  0.2401  0.0418
 7248TIP3    H243236   1.419   3.636  15.665  0.1508  0.9866 -1.1843
 7249TIP3   OH243237   0.663   1.066  15.441 -0.2803  0.0472 -0.1374
 7249TIP3    H143238   0.673   0.974  15.468 -1.4641 -0.0893 -0.1106
 7249TIP3    H243239   0.734   1.081  15.379  0.3854 -0.6673  0.4421
 7250TIP3   OH243240   3.763   2.970  12.685 -0.3968  0.1468 -0.2057
 7250TIP3    H143241   3.750   2.981  12.591 -1.3715  2.0511  0.1080
 7250TIP3    H243242   3.855   2.993  12.699 -0.5716  1.1125 -0.5476
 7251TIP3   OH243243   1.655   1.680   4.798 -0.7745  0.1962 -0.0068
 7251TIP3    H143244   1.630   1.662   4.707 -0.9288 -2.3491  0.4992
 7251TIP3    H243245   1.585   1.736   4.832 -1.7673 -0.5054 -0.8665
 7252TIP3   OH243246   1.660   2.967   0.484  0.2504  0.0486 -0.1960
 7252TIP3    H143247   1.625   2.963   0.395  0.3283 -0.6917 -0.1933
 7252TIP3    H243248   1.656   3.060   0.507  0.5556  0.2948 -1.1066
 7253TIP3   OH243249   0.460   1.823  14.098  0.2521  0.6490  0.3953
 7253TIP3    H143250   0.394   1.807  14.166 -0.2265  2.6584  0.4283
 7253TIP3    H243251   0.502   1.738  14.086 -2.1650 -0.6234  0.5532
 7254TIP3   OH243252   0.445   6.431   3.215  0.0104  0.3921 -0.0342
 7254TIP3    H143253   0.438   6.363   3.282 -0.0229 -0.4773 -0.9020
 7254TIP3    H243254   0.363   6.479   3.221 -0.8299 -0.8947 -0.7137
 7255TIP3   OH243255   2.074   6.069  11.507 -0.6623 -0.4094 -0.0728
 7255TIP3    H143256   2.160   6.094  11.540 -0.8044 -0.7009  0.5286
 7255TIP3    H243257   2.059   6.126  11.432 -0.0595 -0.1754 -0.0145
 7256TIP3   OH243258   2.059   0.344  14.272  0.4971 -0.5866  0.1148
 7256TIP3    H143259   2.026   0.316  14.357 -1.2585  0.6299 -0.1343
 7256TIP3    H243260   2.116   0.418  14.291 -0.7875  0.4188  0.1816
 7257TIP3   OH243261   3.490   3.090   0.669 -0.4742 -0.3090  0.3121
 7257TIP3    H143262   3.471   3.184   0.672 -1.1713 -0.4867  1.9604
 7257TIP3    H243263   3.571   3.083   0.618  0.6701  1.3568  1.8642
 7258TIP3   OH243264   2.720   2.723  14.068  0.4489  0.7698  0.3664
 7258TIP3    H143265   2.773   2.751  13.993  1.7655  0.1255  1.0302
 7258TIP3    H243266   2.784   2.709  14.138 -0.3954 -1.6832  0.6919
 7259TIP3   OH243267   2.486   6.080  15.962  0.2098  0.5597  0.7278
 7259TIP3    H143268   2.465   6.056  15.872 -1.8311  2.1654  0.7266
 7259TIP3    H243269   2.432   6.023  16.016  0.0454  0.8646  0.8875
 7260TIP3   OH243270   0.503   4.340   5.188  0.0497 -0.0057  0.1701
 7260TIP3    H143271   0.418   4.382   5.197  0.3312  0.2874  1.6962
 7260TIP3    H243272   0.484   4.249   5.165 -0.7638 -0.5479  2.8673
 7261TIP3   OH243273   3.685   4.044  16.096  0.1395  0.1151  0.0941
 7261TIP3    H143274   3.669   4.018  16.005  0.6872  1.7936 -0.5043
 7261TIP3    H243275   3.714   4.135  16.090 -0.8624  0.5899  2.0396
 7262TIP3   OH243276   0.187   6.496  12.346  0.5496  0.0746 -0.6196
 7262TIP3    H143277   0.135   6.440  12.402  2.0488 -0.7461 -0.0244
 7262TIP3    H243278   0.220   6.437  12.277  1.5782  0.3512 -0.3696
 7263TIP3   OH243279   3.707   3.811   4.240  0.4479 -0.2901  0.1686
 7263TIP3    H143280   3.709   3.768   4.154 -2.1574  2.0241 -1.1451
 7263TIP3    H243281   3.667   3.747   4.298 -1.2268 -0.5780 -1.2313
 7264TIP3   OH243282   6.000   0.576   2.437  0.5075  0.7259 -0.0203
 7264TIP3    H143283   5.965   0.539   2.356  1.8504  0.7160 -0.6040
 7264TIP3    H243284   5.986   0.507   2.502  1.4363 -0.1357 -0.7254
 7265TIP3   OH243285   1.070   4.953   6.057  0.1344  0.2761  0.0221
 7265TIP3    H143286   0.976   4.959   6.073  0.5666  0.8413  2.5579
 7265TIP3    H243287   1.086   4.859   6.046 -0.8024  0.2332 -1.0247
 7266TIP3   OH243288   0.213   1.199  16.015  0.5804 -0.5288  0.3785
 7266TIP3    H143289   0.174   1.166  16.095 -0.2179  0.4261  0.3933
 7266TIP3    H243290   0.139   1.223  15.959  1.1278  0.2698 -0.0294
 7267TIP3   OH243291   1.514   3.483   0.360  0.2308  0.1597 -0.0226
 7267TIP3    H143292   1.458   3.413   0.328  0.2112  0.6334 -1.0269
 7267TIP3    H243293   1.564   3.512   0.284  0.9165  0.6067  0.5871
 7268TIP3   OH243294   3.138   6.418   4.838 -0.0946 -0.2189 -0.1292
 7268TIP3    H143295   3.063   6.380   4.884  0.6387 -0.0505  1.2449
 7268TIP3    H243296   3.119   6.405   4.745 -1.8055 -0.2039  0.2019
 7269TIP3   OH243297   3.467   5.285   4.557  0.7517  0.3089 -0.1333
 7269TIP3    H143298   3.557   5.316   4.567  0.8893 -0.4348  1.0956
 7269TIP3    H243299   3.464   5.246   4.470  1.7234  0.0311 -0.0459
 7270TIP3   OH243300   3.105   1.608  16.146 -0.4167 -0.6762  0.4099
 7270TIP3    H143301   3.049   1.536  16.176 -0.5794  0.0558  1.9581
 7270TIP3    H243302   3.044   1.671  16.106 -0.5398 -0.4783  0.9033
 7271TIP3   OH243303   3.952   6.112   2.082 -0.5782  0.4890  0.3681
 7271TIP3    H143304   3.888   6.042   2.070  0.2028  0.1425 -1.8581
 7271TIP3    H243305   3.991   6.125   1.996  3.0614  0.0301  1.8706
 7272TIP3   OH243306   5.525   3.046   1.418 -0.0435 -0.2343 -0.3100
 7272TIP3    H143307   5.437   3.039   1.381 -0.4932 -0.4653  0.7957
 7272TIP3    H243308   5.524   2.986   1.493  0.0360  2.1914  1.6803
 7273TIP3   OH243309   2.924   1.172  14.548  0.0572  0.3705  0.0068
 7273TIP3    H143310   2.920   1.209  14.460  3.2186  0.3421 -0.1742
 7273TIP3    H243311   2.836   1.188  14.584 -0.8161  1.7059 -2.5928
 7274TIP3   OH243312   5.232   4.830  13.864 -0.2304 -0.6868 -0.5922
 7274TIP3    H143313   5.231   4.856  13.956  1.5099  0.7297 -0.9549
 7274TIP3    H243314   5.235   4.734  13.867 -0.6699 -0.6701  0.8131
 7275TIP3   OH243315   5.036   4.498  11.481  0.2236  0.2204 -0.7179
 7275TIP3    H143316   5.122   4.540  11.474 -0.0039  0.8389  0.1485
 7275TIP3    H243317   4.974   4.568  11.459 -0.0399 -0.4129 -2.0593
 7276TIP3   OH243318   0.716   2.191   5.325  0.3664  0.2663 -0.5081
 7276TIP3    H143319   0.798   2.154   5.356  0.7198  0.9355 -0.6564
 7276TIP3    H243320   0.691   2.255   5.392 -0.3387 -0.3612 -0.1617
 7277TIP3   OH243321   5.353   3.893  11.940  0.4553 -0.0757  0.1654
 7277TIP3    H143322   5.439   3.852  11.927  0.8339  1.0704 -1.1079
 7277TIP3    H243323   5.297   3.854  11.872  1.1826  2.4585 -1.9736
 7278TIP3   OH243324   5.146   4.355   4.662 -0.0171 -0.4999 -0.6208
 7278TIP3    H143325   5.236   4.325   4.655  0.9633  2.3546 -1.0070
 7278TIP3    H243326   5.110   4.343   4.574 -0.3747 -2.6179 -0.2093
 7279TIP3   OH243327   4.763   6.126  14.007  0.3186 -0.1944  0.5577
 7279TIP3    H143328   4.847   6.161  13.976  0.5278 -2.5435 -1.6698
 7279TIP3    H243329   4.771   6.129  14.103  1.9957  1.7702  0.4014
 7280TIP3   OH243330   3.216   6.205   2.497 -0.4723 -0.5456 -0.7062
 7280TIP3    H143331   3.255   6.177   2.580 -1.2067 -0.4652 -0.3368
 7280TIP3    H243332   3.178   6.126   2.460 -1.3811 -0.3048 -0.2948
 7281TIP3   OH243333   3.055   6.433  11.669 -0.9029 -0.4394 -0.1482
 7281TIP3    H143334   2.997   6.456  11.740 -0.0390 -1.3844  0.8903
 7281TIP3    H243335   3.021   6.350  11.636  0.1194 -1.2525  0.7930
 7282TIP3   OH243336   1.948   1.876  16.002 -0.0096  0.1158  0.0366
 7282TIP3    H143337   1.912   1.960  15.973 -0.0375  0.0522 -0.1171
 7282TIP3    H243338   1.904   1.811  15.946 -0.7750 -0.0948  0.8620
 7283TIP3   OH243339   0.945   0.789   6.275  0.4916 -0.3063 -0.2749
 7283TIP3    H143340   1.032   0.826   6.287  0.2370  0.1106  0.3053
 7283TIP3    H243341   0.954   0.697   6.298  0.3742  0.1345  1.5759
 7284TIP3   OH243342   4.231   0.101  16.185  0.1474 -0.1300  0.3158
 7284TIP3    H143343   4.309   0.154  16.201  0.6697 -0.5070 -0.9125
 7284TIP3    H243344   4.248   0.059  16.101 -1.4369 -0.1205 -0.0200
 7285TIP3   OH243345   4.208   3.021   3.699 -0.3583 -0.8283 -0.4636
 7285TIP3    H143346   4.200   3.112   3.668  2.6949 -0.0308  0.9644
 7285TIP3    H243347   4.236   2.972   3.621 -1.3026 -0.4352 -1.0642
 7286TIP3   OH243348   5.271   3.704   5.378  0.4116 -0.3823 -0.2250
 7286TIP3    H143349   5.287   3.799   5.382  0.7114 -0.4306 -0.2914
 7286TIP3    H243350   5.333   3.666   5.439 -0.6227 -0.4336  0.8132
 7287TIP3   OH243351   6.404   6.411  13.281  1.0791 -0.0280  0.3285
 7287TIP3    H143352   6.371   6.363  13.205 -1.2950  1.0273  0.6675
 7287TIP3    H243353   6.450   6.486  13.244 -2.0159  1.7410 -0.0790
 7288TIP3   OH243354   4.899   6.437   1.301  1.0776 -0.4975  0.0176
 7288TIP3    H143355   4.936   6.450   1.388 -1.7226  0.3532  1.1064
 7288TIP3    H243356   4.850   6.355   1.307 -0.3214  0.3104 -0.3486
 7289TIP3   OH243357   1.548   5.701  12.573  1.0458  0.6432 -0.1197
 7289TIP3    H143358   1.557   5.760  12.498  0.2967 -2.8000 -3.0992
 7289TIP3    H243359   1.638   5.675  12.593  1.0695 -0.9825 -2.1075
 7290TIP3   OH243360   3.803   5.400  17.066 -0.5706 -0.1733 -0.0337
 7290TIP3    H143361   3.746   5.388  17.142  1.8118  1.9191  2.1635
 7290TIP3    H243362   3.809   5.494  17.054  1.1228 -0.4013 -1.2220
 7291TIP3   OH243363   6.474   0.532  11.351  0.1074  0.1514 -0.0597
 7291TIP3    H143364   6.481   0.458  11.290  0.3396 -0.0620  0.2275
 7291TIP3    H243365   6.559   0.576  11.345  0.9875 -1.2413  1.8778
 7292TIP3   OH243366   1.858   5.497  12.364 -0.1252 -0.2364  0.0779
 7292TIP3    H143367   1.850   5.472  12.272 -1.2130  0.9086 -0.1560
 7292TIP3    H243368   1.787   5.450  12.408  0.1955 -0.5291  0.2913
 7293TIP3   OH243369   4.540   4.935  12.381  0.0215 -0.1931  0.2607
 7293TIP3    H143370   4.538   5.002  12.312  1.3498  0.2249  0.6096
 7293TIP3    H243371   4.548   4.852  12.333 -1.6112 -0.1190 -0.1726
 7294TIP3   OH243372   5.002   2.484   5.663  0.2126 -0.1187  0.1003
 7294TIP3    H143373   5.014   2.525   5.749  0.5618 -2.1633  1.0764
 7294TIP3    H243374   4.907   2.483   5.650  0.0879 -0.6973  0.9588
 7295TIP3   OH243375   2.400   5.620   5.129  0.3959  0.2655 -0.4682
 7295TIP3    H143376   2.422   5.713   5.140 -0.6853  0.4966 -0.0945
 7295TIP3    H243377   2.307   5.621   5.104  0.1873 -0.7381  0.2466
 7296TIP3   OH243378   4.039   3.310   4.944 -0.1552 -0.0811 -0.6628
 7296TIP3    H143379   3.978   3.336   5.012 -1.5046 -0.0090 -1.8763
 7296TIP3    H243380   4.122   3.296   4.990 -0.5955  1.6550  0.7285
 7297TIP3   OH243381   6.464   1.827   5.759  0.1068  0.7037 -1.2465
 7297TIP3    H143382   6.460   1.733   5.743 -0.6963  0.9088 -2.3046
 7297TIP3    H243383   6.556   1.845   5.777  0.1758 -0.3620 -0.5093
 7298TIP3   OH243384   3.756   5.037   5.232  0.6700  0.5084  0.0785
 7298TIP3    H143385   3.754   5.111   5.293  1.6724  1.3885 -0.9227
 7298TIP3    H243386   3.663   5.021   5.212  0.2889 -0.2259  2.3059
 7299TIP3   OH243387   5.511   3.398   5.621  0.4227 -0.6498 -0.5746
 7299TIP3    H143388   5.559   3.429   5.544 -0.4054  0.6220 -0.6096
 7299TIP3    H243389   5.458   3.325   5.589  2.1725 -1.9357 -0.5774
 7300TIP3   OH243390   0.301   4.003  12.080  0.3351 -0.2166 -0.2186
 7300TIP3    H143391   0.211   3.974  12.065 -0.5471 -0.1761  4.2475
 7300TIP3    H243392   0.330   4.035  11.994 -3.4038 -1.4712 -2.0951
 7301TIP3   OH243393   5.699   1.182   3.274 -0.4513  0.5747  0.3469
 7301TIP3    H143394   5.664   1.105   3.318  1.1872  0.2947  1.1706
 7301TIP3    H243395   5.666   1.175   3.184 -0.6084 -0.8815  0.5116
 7302TIP3   OH243396   4.396   5.761  16.794  0.3960 -0.4032 -0.0646
 7302TIP3    H143397   4.312   5.733  16.756  0.5104 -0.2293 -0.4404
 7302TIP3    H243398   4.379   5.763  16.888 -0.1917  0.2060 -0.1812
 7303TIP3   OH243399   0.914   0.133   2.895  0.4172 -0.1046  0.6780
 7303TIP3    H143400   0.937   0.192   2.967  0.4047  0.0041  0.5923
 7303TIP3    H243401   0.958   0.170   2.818 -0.6336  0.5064  0.3647
 7304TIP3   OH243402   6.305   5.550   4.601  0.3753  0.4387  0.3730
 7304TIP3    H143403   6.294   5.474   4.543 -2.1120  1.5360 -0.6804
 7304TIP3    H243404   6.241   5.537   4.671  0.3512  1.2418  0.5108
 7305TIP3   OH243405   1.028   0.806   4.228 -0.5898 -0.4143 -0.1989
 7305TIP3    H143406   0.934   0.821   4.217 -0.7494 -0.1185  1.4846
 7305TIP3    H243407   1.052   0.748   4.155 -1.8896  0.2502 -1.1628
 7306TIP3   OH243408   4.158   3.682   3.200 -0.2860  0.1753 -0.1166
 7306TIP3    H143409   4.183   3.740   3.129 -1.4683 -1.3082 -1.7873
 7306TIP3    H243410   4.084   3.726   3.243  0.4788  1.1057  0.2634
 7307TIP3   OH243411   0.635   0.401  14.372 -0.0897 -0.5057  0.1174
 7307TIP3    H143412   0.682   0.384  14.291 -1.6255 -0.5842 -0.7788
 7307TIP3    H243413   0.622   0.495  14.374 -0.5200 -0.5603 -0.0013
 7308TIP3   OH243414   0.952   3.097  14.001 -0.8369  0.0676 -0.3838
 7308TIP3    H143415   0.886   3.134  13.943  0.8836  1.3588 -1.5810
 7308TIP3    H243416   0.924   3.007  14.015 -1.1163 -0.3778 -3.4952
 7309TIP3   OH243417   1.851   5.136   2.413 -0.6346 -0.2343 -0.3763
 7309TIP3    H143418   1.899   5.054   2.397 -0.1402  0.3511 -1.9233
 7309TIP3    H243419   1.782   5.111   2.475 -0.6459 -1.8914 -1.0204
 7310TIP3   OH243420   1.743   4.079  12.929 -0.2445 -0.2627  0.1823
 7310TIP3    H143421   1.767   3.988  12.945  0.9970 -0.1212 -0.7665
 7310TIP3    H243422   1.683   4.076  12.855 -1.5596 -0.4347  1.2256
 7311TIP3   OH243423   5.042   5.627   4.327 -0.1317 -0.6205  0.8775
 7311TIP3    H143424   4.992   5.690   4.378  1.0300  0.8332  0.2769
 7311TIP3    H243425   5.019   5.647   4.236  0.0985 -1.1900  0.6934
 7312TIP3   OH243426   3.243   4.523  15.032  0.4882 -0.5164  0.2790
 7312TIP3    H143427   3.302   4.538  14.958  0.5897  0.5418  0.5680
 7312TIP3    H243428   3.252   4.601  15.086  0.4807 -1.3231  1.4634
 7313TIP3   OH243429   0.254   0.294   1.556 -0.4072 -0.1064 -0.4589
 7313TIP3    H143430   0.276   0.386   1.571 -0.2837 -0.2039 -0.0387
 7313TIP3    H243431   0.275   0.251   1.638 -0.0254 -0.5950 -0.8088
 7314TIP3   OH243432   5.514   3.027   2.204  0.6586 -0.1614 -0.2404
 7314TIP3    H143433   5.490   3.041   2.112  0.5350 -0.4085 -0.2478
 7314TIP3    H243434   5.431   3.014   2.249  0.7128  0.0750 -0.0727
 7315TIP3   OH243435   3.446   2.973  13.041  0.5675  0.2507  0.3206
 7315TIP3    H143436   3.536   2.945  13.024  1.0406  1.3420  0.9943
 7315TIP3    H243437   3.440   2.979  13.136  0.2089  1.5285  0.2245
 7316TIP3   OH243438   4.845   4.693  11.685 -0.1041 -0.6632 -0.2502
 7316TIP3    H143439   4.937   4.697  11.708 -0.2854  0.1800  0.3291
 7316TIP3    H243440   4.808   4.775  11.718 -0.8541 -0.5452 -1.3559
 7317TIP3   OH243441   0.595   6.383  16.391 -0.5213 -0.0778 -0.1988
 7317TIP3    H143442   0.687   6.375  16.413 -0.5689  1.4223  0.5919
 7317TIP3    H243443   0.574   6.475  16.407 -2.2648 -0.5039  0.0786
 7318TIP3   OH243444   0.361   3.406  12.370  0.9073 -0.3217 -0.0589
 7318TIP3    H143445   0.274   3.366  12.369  1.4890 -1.6122  0.2472
 7318TIP3    H243446   0.350   3.488  12.321 -0.8550  0.3275  1.3729
 7319TIP3   OH243447   1.528   3.437  13.137 -0.0509 -0.4147 -0.2531
 7319TIP3    H143448   1.561   3.526  13.151 -4.8321  1.6506 -1.0073
 7319TIP3    H243449   1.512   3.402  13.225 -0.7428  0.5825  0.0273
 7320TIP3   OH243450   6.586   3.137   1.296 -0.1508 -0.0425 -0.3099
 7320TIP3    H143451   6.563   3.057   1.344  0.7430  0.2973  0.7077
 7320TIP3    H243452   6.536   3.131   1.214  0.3448 -1.9109 -0.4921
 7321TIP3   OH243453   6.553   4.270  14.952  0.1647  0.0245 -0.3345
 7321TIP3    H143454   6.559   4.331  15.025  0.2311 -0.1154 -0.2219
 7321TIP3    H243455   6.638   4.226  14.950  0.7026  1.0622 -1.4094
 7322TIP3   OH243456   4.903   6.164   2.923 -0.7980 -0.1608 -0.0215
 7322TIP3    H143457   4.820   6.152   2.969 -2.6143  0.3914 -2.9968
 7322TIP3    H243458   4.902   6.097   2.854  0.5207  0.7977 -0.9980
 7323TIP3   OH243459   4.859   5.242   1.742 -0.1518  0.2801 -0.4963
 7323TIP3    H143460   4.882   5.280   1.657  1.9583 -1.6173 -0.8153
 7323TIP3    H243461   4.926   5.275   1.802 -2.7556  3.2034  0.9251
 7324TIP3   OH243462   2.745   0.839  14.966  0.5566 -0.4649 -0.7712
 7324TIP3    H143463   2.795   0.807  14.891  1.5763  0.3331 -0.4536
 7324TIP3    H243464   2.802   0.824  15.042  0.7029  1.2437 -0.5102
 7325TIP3   OH243465   4.620   4.160  16.754 -0.0525  0.5085  0.7261
 7325TIP3    H143466   4.566   4.207  16.691  2.0881  0.5373 -1.1282
 7325TIP3    H243467   4.583   4.072  16.757 -0.0269  0.4331 -0.7762
 7326TIP3   OH243468   0.292   5.202  14.633 -0.2087 -0.0607 -0.4618
 7326TIP3    H143469   0.271   5.117  14.672 -0.2472  0.1630  0.0209
 7326TIP3    H243470   0.296   5.186  14.539 -3.6813  0.0704 -0.7162
 7327TIP3   OH243471   5.460   2.192   1.333 -0.2930  0.0434  0.3080
 7327TIP3    H143472   5.454   2.097   1.335  1.6838 -0.1373 -1.2629
 7327TIP3    H243473   5.525   2.214   1.400 -0.8526  0.3115  0.7721
 7328TIP3   OH243474   2.234   0.807   6.029  0.4523  0.0831 -0.6182
 7328TIP3    H143475   2.263   0.717   6.014  0.8509 -0.3597  2.4805
 7328TIP3    H243476   2.315   0.856   6.041  0.2260  0.8363 -2.0881
 7329TIP3   OH243477   3.589   4.982   3.042  0.2104 -0.0823 -0.4769
 7329TIP3    H143478   3.606   4.914   2.977  0.8697  0.2313 -0.6300
 7329TIP3    H243479   3.503   4.960   3.077  0.8801 -1.6434  0.2607
 7330TIP3   OH243480   0.766   4.932   5.428  0.2435  0.1316 -0.4957
 7330TIP3    H143481   0.830   4.971   5.368 -0.5624  0.3050 -1.2516
 7330TIP3    H243482   0.705   4.886   5.371  0.5491 -1.3208  0.3177
 7331TIP3   OH243483   3.887   2.274   3.451  0.1848  0.1552  0.5841
 7331TIP3    H143484   3.881   2.330   3.373  0.9674 -1.2088 -0.4636
 7331TIP3    H243485   3.851   2.328   3.521  0.2438  1.7178 -0.5543
 7332TIP3   OH243486   4.907   6.657  12.895  0.1514 -0.6963 -0.3407
 7332TIP3    H143487   4.916   6.687  12.805 -0.2467  0.3518 -0.0360
 7332TIP3    H243488   4.919   6.562  12.890  2.0737 -0.4454 -1.2422
 7333TIP3   OH243489   4.221   5.773  15.892  0.6930 -0.3045  0.0620
 7333TIP3    H143490   4.205   5.862  15.924  1.6265 -1.2480  3.4459
 7333TIP3    H243491   4.284   5.784  15.821 -0.8445  1.8737 -1.0416
 7334TIP3   OH243492   1.659   4.833   5.620 -0.4687  0.3786 -0.0693
 7334TIP3    H143493   1.696   4.888   5.688 -0.4952  0.5463 -0.1911
 7334TIP3    H243494   1.589   4.784   5.663  0.3581 -0.4666  0.3430
 7335TIP3   OH243495   0.665   0.822  16.211 -0.0466  0.1886  0.4969
 7335TIP3    H143496   0.578   0.841  16.247 -0.7735 -1.4104 -0.3907
 7335TIP3    H243497   0.682   0.893  16.149 -0.1292  1.2302  1.6370
 7336TIP3   OH243498   3.678   6.577  12.678  0.0068 -0.3001 -0.4779
 7336TIP3    H143499   3.772   6.569  12.665  0.0975  0.4314 -0.2452
 7336TIP3    H243500   3.666   6.660  12.724 -0.6442 -1.0428  0.7187
 7337TIP3   OH243501   2.245   6.145  16.774  0.7435 -0.1465  0.0926
 7337TIP3    H143502   2.231   6.240  16.768 -0.9788 -0.3636  0.4536
 7337TIP3    H243503   2.309   6.126  16.705 -1.2497  0.8169 -2.0929
 7338TIP3   OH243504   1.781   4.330   6.376 -0.0573  0.1256  0.1183
 7338TIP3    H143505   1.871   4.308   6.354 -0.0086  0.1865  0.2512
 7338TIP3    H243506   1.741   4.247   6.402 -0.4455 -0.1412 -1.3072
 7339TIP3   OH243507   6.058   3.106   3.719  0.1015 -0.3914  0.5979
 7339TIP3    H143508   6.015   3.182   3.759 -0.0921 -0.3877  0.3852
 7339TIP3    H243509   5.990   3.065   3.666  0.5813  0.1136 -0.4426
 7340TIP3   OH243510   4.973   1.624  13.031 -0.0851 -0.3005  0.2288
 7340TIP3    H143511   5.025   1.693  13.073 -0.1626 -0.8833  1.2974
 7340TIP3    H243512   4.884   1.638  13.062 -0.3110 -0.1967 -0.4520
 7341TIP3   OH243513   1.676   3.513   4.893 -0.3346  0.2766  0.2865
 7341TIP3    H143514   1.727   3.573   4.947  1.4155 -1.1640  0.2449
 7341TIP3    H243515   1.639   3.569   4.824  2.4545  1.0856 -0.6067
 7342TIP3   OH243516   5.592   6.283   6.379 -0.4767 -0.3143  0.1294
 7342TIP3    H143517   5.505   6.291   6.341  0.3703  0.2699 -1.7843
 7342TIP3    H243518   5.597   6.352   6.445 -0.9776  0.5521 -0.7365
 7343TIP3   OH243519   5.258   1.342   5.477 -0.7800 -0.1566  0.0620
 7343TIP3    H143520   5.206   1.392   5.414 -0.3847  0.9886  0.6235
 7343TIP3    H243521   5.246   1.388   5.560  1.6263  0.5500  0.0677
 7344TIP3   OH243522   4.890   6.435   2.740  0.3421  0.0821  0.3621
 7344TIP3    H143523   4.983   6.426   2.759  0.3742  1.4050  0.8923
 7344TIP3    H243524   4.857   6.495   2.807 -0.3472  1.6883 -1.3688
 7345TIP3   OH243525   3.267   4.230   5.997 -0.2531  0.4637  0.0624
 7345TIP3    H143526   3.185   4.215   5.951  0.4440  0.2663 -1.1309
 7345TIP3    H243527   3.263   4.321   6.025  0.0457  1.0945 -1.8902
 7346TIP3   OH243528   1.082   0.504  12.624  0.8135  0.0869  0.1913
 7346TIP3    H143529   1.000   0.547  12.600  0.8406 -0.7381 -1.4604
 7346TIP3    H243530   1.069   0.476  12.715 -0.4970  0.4938  0.1408
 7347TIP3   OH243531   0.906   4.402  14.144 -0.1788  0.3341 -0.4897
 7347TIP3    H143532   0.874   4.462  14.077  2.4544 -1.6526 -3.6601
 7347TIP3    H243533   0.872   4.317  14.118 -0.8236 -0.1709  1.9003
 7348TIP3   OH243534   2.168   5.615   2.728  0.2331  0.0300 -0.0760
 7348TIP3    H143535   2.217   5.555   2.783  0.7364 -1.1385 -1.7490
 7348TIP3    H243536   2.080   5.577   2.724  0.1193  0.2680  0.1403
 7349TIP3   OH243537   0.549   0.737   1.775 -0.1761 -0.1344 -0.4013
 7349TIP3    H143538   0.496   0.665   1.810  0.4499  1.0576  3.1399
 7349TIP3    H243539   0.505   0.816   1.804  0.2421  0.9421 -2.5912
 7350TIP3   OH243540   4.274   3.128  12.351 -0.1376 -0.3633 -0.0145
 7350TIP3    H143541   4.321   3.059  12.398  0.7799 -0.4644 -1.0537
 7350TIP3    H243542   4.312   3.127  12.263  0.2151  1.7555  0.0806
 7351TIP3   OH243543   4.307   5.935   4.588 -0.2609  0.0149  0.1604
 7351TIP3    H143544   4.317   5.872   4.659  2.3138 -1.7177 -1.6735
 7351TIP3    H243545   4.377   5.999   4.603 -0.0975 -0.0157 -0.4575
 7352TIP3   OH243546   0.836   5.210   5.665  0.1288 -0.6036  0.1237
 7352TIP3    H143547   0.785   5.131   5.683 -0.1918 -0.0833  1.6476
 7352TIP3    H243548   0.897   5.217   5.739 -0.4227  1.0230  0.4571
 7353TIP3   OH243549   5.489   2.487  12.476 -0.2929  0.0133 -0.6651
 7353TIP3    H143550   5.428   2.548  12.434  0.2012  1.2443  0.3795
 7353TIP3    H243551   5.549   2.543  12.525  1.5057 -1.2045 -1.4411
 7354TIP3   OH243552   2.216   5.823   5.649  0.0166  0.1097  0.2985
 7354TIP3    H143553   2.259   5.823   5.734 -1.3969 -2.0603  1.0451
 7354TIP3    H243554   2.288   5.830   5.586  1.0486  2.2493  1.6274
 7355TIP3   OH243555   2.871   4.760   3.273 -0.4846  0.3784  0.1730
 7355TIP3    H143556   2.944   4.784   3.215 -0.0623  2.0210  1.3436
 7355TIP3    H243557   2.839   4.677   3.238  1.1690  0.2443 -1.0939
 7356TIP3   OH243558   2.274   3.976   0.440  0.6186 -0.6625  0.0716
 7356TIP3    H143559   2.343   3.996   0.503 -1.4036 -1.5472  2.6916
 7356TIP3    H243560   2.279   3.882   0.426  1.4816 -0.3756 -1.6445
 7357TIP3   OH243561   0.679   2.305  13.888  0.1174  0.6040 -0.4226
 7357TIP3    H143562   0.603   2.299  13.945  0.0743  0.5848 -0.4826
 7357TIP3    H243563   0.722   2.386  13.913 -0.0401  0.7223 -0.5361
 7358TIP3   OH243564   0.311   2.468   6.305 -0.1417  0.4966  0.9538
 7358TIP3    H143565   0.348   2.383   6.282  1.7240  1.6890 -0.6641
 7358TIP3    H243566   0.227   2.470   6.260  1.7470  1.2098 -2.7705
 7359TIP3   OH243567   2.700   2.549   0.862 -0.2180 -0.3735 -0.0007
 7359TIP3    H143568   2.745   2.612   0.919  0.1522 -1.5314  1.0060
 7359TIP3    H243569   2.608   2.575   0.865 -0.1488 -0.2014  0.8539
 7360TIP3   OH243570   5.144   5.517  14.028 -0.1968 -0.0042 -0.0646
 7360TIP3    H143571   5.172   5.590  13.973 -1.5989  1.2297  0.8312
 7360TIP3    H243572   5.127   5.446  13.966  0.7813  0.5447 -0.9837
 7361TIP3   OH243573   1.869   1.825   5.192 -0.7913 -0.2104 -0.6292
 7361TIP3    H143574   1.894   1.899   5.137  2.8707 -1.1986 -0.4061
 7361TIP3    H243575   1.841   1.757   5.130  1.4784 -0.6483 -1.2071
 7362TIP3   OH243576   1.216   4.727   3.535 -0.4460 -0.0344  0.2790
 7362TIP3    H143577   1.181   4.640   3.551  0.0336  0.0651  1.9407
 7362TIP3    H243578   1.168   4.784   3.596  0.3904  0.6012  0.3567
 7363TIP3   OH243579   0.594   0.365  16.604 -0.2929  0.2244 -0.0377
 7363TIP3    H143580   0.669   0.366  16.663 -0.3166  2.9552  0.0023
 7363TIP3    H243581   0.626   0.406  16.524 -1.5311  0.8087 -0.2557
 7364TIP3   OH243582   3.693   0.883   2.223  0.2429 -0.6693 -0.7972
 7364TIP3    H143583   3.784   0.884   2.254  0.3534  0.0292 -1.1534
 7364TIP3    H243584   3.693   0.819   2.152  0.1346 -1.7746  0.1846
 7365TIP3   OH243585   0.222   5.406  15.795 -0.1442  0.0160  0.3208
 7365TIP3    H143586   0.170   5.486  15.795 -0.3545 -0.1178 -0.6650
 7365TIP3    H243587   0.301   5.429  15.745 -1.1980 -1.0208 -1.8854
 7366TIP3   OH243588   4.665   4.710  15.954 -0.3209 -0.0364  0.2240
 7366TIP3    H143589   4.752   4.744  15.973  0.0254 -0.4165 -0.6508
 7366TIP3    H243590   4.672   4.616  15.969 -1.1408  0.1832  2.1542
 7367TIP3   OH243591   1.276   2.187  16.501 -0.2961  0.0523  0.5695
 7367TIP3    H143592   1.273   2.282  16.488 -2.0359  0.1545  1.5266
 7367TIP3    H243593   1.320   2.176  16.585  0.1353 -0.0016  0.3348
 7368TIP3   OH243594   3.269   6.524   6.021  0.3773  0.4773  0.0906
 7368TIP3    H143595   3.227   6.439   6.032 -1.6822  1.4884  0.2131
 7368TIP3    H243596   3.360   6.509   6.048  0.1895 -1.8042 -0.4254
 7369TIP3   OH243597   0.249   1.353  15.266  0.6926 -0.2852 -0.2491
 7369TIP3    H143598   0.187   1.322  15.201  0.0270 -0.1285  0.3057
 7369TIP3    H243599   0.318   1.287  15.266 -0.4644 -1.5322  0.5626
 7370TIP3   OH243600   4.344   6.090  12.584  0.2733 -0.1380 -0.3649
 7370TIP3    H143601   4.310   6.179  12.590 -0.5362 -0.5508  1.9219
 7370TIP3    H243602   4.289   6.048  12.518 -1.3860  0.2088  0.7641
 7371TIP3   OH243603   0.552   2.664   4.365  0.5386  0.3779  0.1295
 7371TIP3    H143604   0.518   2.597   4.306  1.5512 -0.6292  0.6601
 7371TIP3    H243605   0.526   2.635   4.453  0.5629  0.9241  0.3180
 7372TIP3   OH243606   4.054   3.299  12.330 -0.0167  0.8114  0.4862
 7372TIP3    H143607   4.113   3.231  12.297  1.1120  1.8973  0.2308
 7372TIP3    H243608   3.977   3.294  12.273  0.6764  0.7178 -0.4581
 7373TIP3   OH243609   5.511   5.573  13.602 -0.1465 -0.5745 -0.8826
 7373TIP3    H143610   5.562   5.581  13.521  0.2513 -0.9915 -0.6793
 7373TIP3    H243611   5.440   5.637  13.593  1.5142  1.4042 -0.3554
 7374TIP3   OH243612   4.585   2.917  14.621  0.7669  0.3015  0.2560
 7374TIP3    H143613   4.580   3.012  14.629  2.0113  0.4143 -0.1840
 7374TIP3    H243614   4.627   2.888  14.702  0.3660  0.1304  0.4011
 7375TIP3   OH243615   4.210   1.149   2.922  0.2043 -0.4593  0.0704
 7375TIP3    H143616   4.297   1.118   2.945  0.2181  1.1034  2.3051
 7375TIP3    H243617   4.219   1.244   2.915 -1.2451 -0.3090  0.0047
 7376TIP3   OH243618   5.427   4.634   2.216  0.4685 -0.5379  0.1939
 7376TIP3    H143619   5.399   4.549   2.184  1.8443 -0.7350 -0.5225
 7376TIP3    H243620   5.447   4.684   2.137  1.9858 -0.3687  0.6614
 7377TIP3   OH243621   3.409   6.441  15.308 -0.0745  0.3332 -0.0834
 7377TIP3    H143622   3.360   6.421  15.228 -0.1000  0.7641 -0.1802
 7377TIP3    H243623   3.342   6.466  15.372 -0.2458 -2.3409  0.8020
 7378TIP3   OH243624   1.181   2.718   2.968  0.2761  0.2771  0.4042
 7378TIP3    H143625   1.215   2.644   2.916  0.2060 -0.2299  1.0674
 7378TIP3    H243626   1.224   2.795   2.931 -0.4569  0.0317 -1.0032
 7379TIP3   OH243627   4.865   6.750  15.677 -0.0194 -0.4292 -0.0471
 7379TIP3    H143628   4.841   6.802  15.601  0.0062  1.2278  1.0315
 7379TIP3    H243629   4.923   6.808  15.728  2.3515 -2.5729 -0.2210
 7380TIP3   OH243630   3.013   1.520  17.240  0.1191  0.9793 -0.2952
 7380TIP3    H143631   2.975   1.483  17.320 -1.6243  3.6792  0.2001
 7380TIP3    H243632   3.011   1.614  17.254 -0.7793  1.5490 -3.7497
 7381TIP3   OH243633   5.357   1.093  15.548 -0.1693  0.2216  0.1938
 7381TIP3    H143634   5.277   1.095  15.496 -0.5200  0.3296  0.7252
 7381TIP3    H243635   5.419   1.149  15.501 -0.9672  1.5219  0.6615
 7382TIP3   OH243636   4.934   3.199   3.560  0.0858  0.3512 -0.1110
 7382TIP3    H143637   4.890   3.120   3.591 -1.1819  0.6791 -1.0688
 7382TIP3    H243638   4.864   3.254   3.525  1.2550  0.8027 -1.8024
 7383TIP3   OH243639   1.369   0.302  12.340  0.2666 -0.1677  1.3796
 7383TIP3    H143640   1.327   0.309  12.426 -0.0768 -3.1458  1.4854
 7383TIP3    H243641   1.463   0.304  12.359  0.2061  1.6905  1.5694
 7384TIP3   OH243642   0.702   5.987   4.253 -0.4963 -0.0786 -0.0227
 7384TIP3    H143643   0.784   5.954   4.290  1.3039  2.6710 -1.3421
 7384TIP3    H243644   0.670   6.050   4.318 -0.0639  0.9162 -0.7579
 7385TIP3   OH243645   4.075   0.481  15.469  0.4331 -0.5486 -0.1802
 7385TIP3    H143646   4.020   0.513  15.541 -1.5218 -1.5876 -1.1683
 7385TIP3    H243647   4.132   0.555  15.449  1.1898 -0.3270  2.5798
 7386TIP3   OH243648   4.192   0.651   0.515 -0.2849  0.0842  0.0591
 7386TIP3    H143649   4.172   0.628   0.605  0.0567  0.5201  0.2511
 7386TIP3    H243650   4.202   0.567   0.470  0.9583 -0.1561  0.7447
 7387TIP3   OH243651   2.096   1.545   4.343  0.1017 -0.5281 -0.1103
 7387TIP3    H143652   2.011   1.531   4.384  0.5041  1.0453  1.3239
 7387TIP3    H243653   2.159   1.526   4.413  0.9117 -1.1669 -1.0073
 7388TIP3   OH243654   2.223   5.473   5.925 -0.9370  0.1998 -0.3254
 7388TIP3    H143655   2.310   5.482   5.963 -0.7140  0.3925 -0.8651
 7388TIP3    H243656   2.176   5.552   5.951 -0.2800  1.0760 -1.7330
 7389TIP3   OH243657   0.795   6.452   0.842 -0.2752  0.0029 -0.1850
 7389TIP3    H143658   0.757   6.430   0.927 -0.5049 -2.4653 -0.8810
 7389TIP3    H243659   0.880   6.491   0.862 -1.0984  1.1206  1.2214
 7390TIP3   OH243660   4.186   1.739   1.931  0.5990  0.1679  0.5598
 7390TIP3    H143661   4.268   1.747   1.882  0.1504 -0.0786 -0.2455
 7390TIP3    H243662   4.213   1.744   2.023  1.5216  0.0535  0.3074
 7391TIP3   OH243663   2.216   3.113   2.607 -0.0981  0.1236  0.4229
 7391TIP3    H143664   2.166   3.060   2.545 -0.0176  0.4553  0.0685
 7391TIP3    H243665   2.290   3.058   2.631  0.8017  0.6268 -1.0994
 7392TIP3   OH243666   3.962   1.876   1.839 -0.4071 -0.3612 -0.1054
 7392TIP3    H143667   4.031   1.834   1.891  1.2678 -0.3857 -2.3069
 7392TIP3    H243668   3.932   1.948   1.895  1.5457 -0.2124  0.8048
 7393TIP3   OH243669   6.416   1.298  14.790  0.4553 -0.0656 -0.0286
 7393TIP3    H143670   6.411   1.216  14.840 -1.7200  0.7705  1.1592
 7393TIP3    H243671   6.396   1.272  14.700 -0.3600 -0.8344  0.3609
 7394TIP3   OH243672   4.953   3.170   6.103  0.1250  0.3489  0.2988
 7394TIP3    H143673   4.989   3.188   6.190 -0.3822 -0.3696  0.6709
 7394TIP3    H243674   4.880   3.232   6.094 -0.0279  0.2028  0.5232
 7395TIP3   OH243675   0.730   2.425   2.066 -0.1752  0.2887 -0.0921
 7395TIP3    H143676   0.723   2.520   2.057  0.3271  0.3907  0.5968
 7395TIP3    H243677   0.776   2.412   2.149 -0.7579 -0.5640  0.0989
 7396TIP3   OH243678   2.937   0.852  16.653 -0.2489  0.3460 -0.1817
 7396TIP3    H143679   2.918   0.773  16.702  1.1778  0.1029 -0.0027
 7396TIP3    H243680   2.854   0.876  16.612 -1.0298 -0.3989  0.9677
 7397TIP3   OH243681   0.756   0.225  14.555  0.3946  0.3868  0.4304
 7397TIP3    H143682   0.727   0.283  14.485  2.7057 -0.4698 -1.3220
 7397TIP3    H243683   0.685   0.227  14.619 -0.3533  3.7500 -0.3856
 7398TIP3   OH243684   5.051   5.979  17.272 -0.0582 -0.2457 -0.1958
 7398TIP3    H143685   4.990   6.052  17.268 -0.2182 -0.3918 -0.4150
 7398TIP3    H243686   5.096   5.991  17.356 -0.1105  0.0822 -0.2108
 7399TIP3   OH243687   1.336   5.351  13.564 -0.0198 -0.3018 -0.2445
 7399TIP3    H143688   1.325   5.256  13.556  0.3757 -0.3493 -0.2331
 7399TIP3    H243689   1.260   5.388  13.519  0.2218 -0.6165 -0.9114
 7400TIP3   OH243690   4.146   6.437  14.673  0.3279 -0.3812  0.2133
 7400TIP3    H143691   4.144   6.370  14.741 -1.2337 -0.4894  0.0810
 7400TIP3    H243692   4.082   6.408  14.608  0.8015  0.4217 -0.6400
 7401TIP3   OH243693   0.396   3.069   5.040 -0.6409 -0.1852 -0.0289
 7401TIP3    H143694   0.311   3.099   5.006 -0.0778 -0.5968 -1.8682
 7401TIP3    H243695   0.437   3.148   5.075 -0.6607  0.5390 -1.5997
 7402TIP3   OH243696   3.566   2.221  10.361  0.0426 -0.0020  0.3666
 7402TIP3    H143697   3.519   2.247  10.281  2.2197  0.6608 -0.7409
 7402TIP3    H243698   3.560   2.125  10.361 -1.5693  0.0877  0.4168
 7403TIP3   OH243699   3.585   2.608  11.108 -0.3143 -0.0608 -0.0293
 7403TIP3    H143700   3.670   2.645  11.133 -1.4130 -0.0022  3.8984
 7403TIP3    H243701   3.534   2.684  11.079 -0.0650  0.3661  0.6402
 7404TIP3   OH243702   3.613   4.323  15.678  0.0429  0.1755  0.0288
 7404TIP3    H143703   3.627   4.236  15.641 -3.9292 -0.8177  0.7051
 7404TIP3    H243704   3.577   4.375  15.607 -0.3958  0.4420  0.4403
 7405TIP3   OH243705   4.216   1.210   0.989  0.1421  0.0561 -0.2797
 7405TIP3    H143706   4.254   1.122   0.981 -0.6513 -0.3621  0.5248
 7405TIP3    H243707   4.172   1.209   1.073  1.5986  1.8120  0.5320
 7406TIP3   OH243708   1.967   6.770  17.099  0.0188  0.0688  0.3690
 7406TIP3    H143709   1.992   6.735  17.184 -0.3079 -2.7523 -0.6071
 7406TIP3    H243710   1.886   6.723  17.076 -0.1776  1.1365 -1.2553
 7407TIP3   OH243711   1.309   2.049  15.562  0.0984  0.0397  0.5757
 7407TIP3    H143712   1.334   2.141  15.563  1.6646 -0.3745  2.0813
 7407TIP3    H243713   1.372   2.008  15.503  1.6984 -0.6486  2.7093
 7408TIP3   OH243714   5.380   5.864  14.945 -0.3248  0.3093 -0.1638
 7408TIP3    H143715   5.377   5.830  14.856  2.2871  0.7612 -0.4721
 7408TIP3    H243716   5.421   5.950  14.936 -0.2077  0.4387  1.4666
 7409TIP3   OH243717   1.419   1.381   3.270 -0.5475  0.6469  0.1404
 7409TIP3    H143718   1.344   1.334   3.232 -0.4048 -1.0420  1.8656
 7409TIP3    H243719   1.379   1.448   3.325 -0.7617  1.5389 -1.0798
 7410TIP3   OH243720   3.026   3.534  13.995  0.4269  0.1447  0.0215
 7410TIP3    H143721   3.121   3.535  13.980  0.7407  0.9399  1.8494
 7410TIP3    H243722   2.999   3.626  13.984 -0.6850 -0.5303 -3.5028
 7411TIP3   OH243723   3.116   4.837  14.047 -0.0212  0.2458  0.0209
 7411TIP3    H143724   3.139   4.902  14.114  2.4578 -0.9340  0.3784
 7411TIP3    H243725   3.051   4.781  14.089 -0.7935  1.3550  0.3425
 7412TIP3   OH243726   0.695   2.058   0.364 -0.8309 -0.1111  0.0874
 7412TIP3    H143727   0.624   2.016   0.412 -2.1665 -0.1427 -1.8918
 7412TIP3    H243728   0.737   1.987   0.316  0.6819 -0.1218  1.3715
 7413TIP3   OH243729   6.488   3.681   1.784  0.4955 -0.0257  0.0394
 7413TIP3    H143730   6.486   3.776   1.773 -0.9107 -0.2781 -2.0705
 7413TIP3    H243731   6.442   3.666   1.867  0.8688  1.1314  0.4660
 7414TIP3   OH243732   0.765   1.316   5.874  0.3602  0.5574  0.0631
 7414TIP3    H143733   0.786   1.248   5.938  0.3677  2.0433  1.7178
 7414TIP3    H243734   0.850   1.353   5.849  0.3431  0.1150 -0.6513
 7415TIP3   OH243735   6.101   2.199  15.672  0.1268 -0.0138  0.3248
 7415TIP3    H143736   6.038   2.187  15.601 -0.7696  2.8616  0.5862
 7415TIP3    H243737   6.180   2.154  15.641 -1.4890 -2.2023 -0.7304
 7416TIP3   OH243738   4.417   5.194  16.416 -0.7456  0.2939 -0.0609
 7416TIP3    H143739   4.369   5.268  16.377  0.0726 -0.1356 -1.9480
 7416TIP3    H243740   4.469   5.234  16.486 -1.2989  1.2976 -0.1996
 7417TIP3   OH243741   2.297   5.456  11.949  0.5194 -0.7088 -0.3305
 7417TIP3    H143742   2.238   5.423  12.017  0.2662 -0.6008 -0.4936
 7417TIP3    H243743   2.357   5.383  11.931  0.4123 -0.8320 -0.1841
 7418TIP3   OH243744   6.507   6.283   1.805  0.0365  0.1194 -0.4583
 7418TIP3    H143745   6.542   6.360   1.759  0.5361  1.4682  2.0595
 7418TIP3    H243746   6.538   6.208   1.754 -0.3458  1.5722 -2.8937
 7419TIP3   OH243747   2.520   0.389   2.506 -0.1458  0.8037 -0.1007
 7419TIP3    H143748   2.480   0.307   2.479 -1.9061  0.8506  2.2423
 7419TIP3    H243749   2.612   0.367   2.523  0.1569  0.0425 -2.5134
 7420TIP3   OH243750   3.713   0.782   0.261 -0.0557 -0.6954 -0.5266
 7420TIP3    H143751   3.705   0.737   0.177 -2.2395 -0.9752 -0.1774
 7420TIP3    H243752   3.658   0.732   0.321  2.0413 -0.9199  1.2762
 7421TIP3   OH243753   4.068   3.542   2.981 -0.2706  0.9877 -0.2199
 7421TIP3    H143754   4.106   3.593   3.053 -1.0876 -0.2296  1.1220
 7421TIP3    H243755   3.975   3.564   2.984 -0.8592 -1.5016  1.2077
 7422TIP3   OH243756   4.695   1.332   6.629  0.3137  0.2672 -0.1358
 7422TIP3    H143757   4.783   1.343   6.666  0.4567  1.4270 -0.7802
 7422TIP3    H243758   4.653   1.417   6.643 -1.6550 -1.0742  2.5635
 7423TIP3   OH243759   5.974   5.372  11.126 -0.8195 -0.2463 -0.2003
 7423TIP3    H143760   5.939   5.321  11.054  1.9728  0.8538 -2.4589
 7423TIP3    H243761   5.976   5.462  11.093 -0.3216  0.4191  1.5632
 7424TIP3   OH243762   4.468   1.950   3.295 -0.3089 -0.2623  0.0660
 7424TIP3    H143763   4.435   2.015   3.234 -1.6736  0.4539  1.5314
 7424TIP3    H243764   4.560   1.939   3.271 -0.9773 -0.5291 -2.5370
 7425TIP3   OH243765   3.669   2.280   1.664 -0.1825 -0.3066  0.2118
 7425TIP3    H143766   3.630   2.192   1.662 -0.3909 -0.1951 -0.6139
 7425TIP3    H243767   3.616   2.328   1.728 -1.0831 -0.3145 -0.5150
 7426TIP3   OH243768   3.004   0.628  13.877 -0.2169  0.4179  0.1450
 7426TIP3    H143769   3.080   0.602  13.825  0.0608 -1.0386  1.2225
 7426TIP3    H243770   3.014   0.722  13.891 -0.1694  0.7843 -2.1811
 7427TIP3   OH243771   4.120   5.809   0.732 -0.2823  0.5695 -0.3553
 7427TIP3    H143772   4.143   5.882   0.789  0.1274 -1.8599  2.7024
 7427TIP3    H243773   4.200   5.791   0.682  0.1148  1.1595  0.0632
 7428TIP3   OH243774   3.505   3.653   1.836  0.0948 -0.1912 -0.1004
 7428TIP3    H143775   3.555   3.733   1.855 -1.3309  0.7059 -0.0709
 7428TIP3    H243776   3.458   3.672   1.755 -0.4279 -0.9162  0.0223
 7429TIP3   OH243777   3.973   1.825   3.771  0.1420 -0.0020  0.4499
 7429TIP3    H143778   3.904   1.873   3.818  1.0204  0.4305  1.3025
 7429TIP3    H243779   3.952   1.840   3.678 -1.1165 -0.1703  0.6896
 7430TIP3   OH243780   5.691   0.174  13.801 -0.6720  0.3871  0.6873
 7430TIP3    H143781   5.759   0.241  13.805 -1.7948  1.5904 -0.1705
 7430TIP3    H243782   5.738   0.093  13.780  0.4110  1.3307 -0.5578
 7431TIP3   OH243783   4.847   4.822   5.205  0.5533  0.6908  0.5029
 7431TIP3    H143784   4.936   4.823   5.168  0.1164 -2.2988 -0.7725
 7431TIP3    H243785   4.847   4.747   5.264 -0.4111  2.1979  2.4748
 7432TIP3   OH243786   2.660   6.633   4.950  0.0420 -0.1148 -0.0693
 7432TIP3    H143787   2.578   6.584   4.951 -0.6296  0.9861 -0.1386
 7432TIP3    H243788   2.684   6.640   4.858  0.0930 -0.2229 -0.0645
 7433TIP3   OH243789   0.897   6.491   0.172 -0.4747  0.1539  0.2136
 7433TIP3    H143790   0.834   6.419   0.161 -0.1351 -0.2462  0.8745
 7433TIP3    H243791   0.861   6.544   0.243 -0.2820  0.1655  0.3006
 7434TIP3   OH243792   5.156   5.785  15.096 -0.4081  0.8110  0.1210
 7434TIP3    H143793   5.243   5.804  15.061  0.4890 -0.3575  1.6286
 7434TIP3    H243794   5.113   5.870  15.101  0.4383  1.3241 -1.1770
 7435TIP3   OH243795   4.454   5.904  11.672 -0.2296 -0.4590  0.1895
 7435TIP3    H143796   4.410   5.956  11.739 -1.0186 -1.3879  0.4051
 7435TIP3    H243797   4.383   5.854  11.630  0.3540 -0.4416 -0.8253
 7436TIP3   OH243798   1.254   2.626  15.722 -0.9053 -0.0665 -0.5361
 7436TIP3    H143799   1.261   2.545  15.772  0.3227  1.3198  1.6515
 7436TIP3    H243800   1.167   2.661  15.745 -0.3529  0.5552  0.6541
 7437TIP3   OH243801   2.330   4.528   6.309  0.0209 -0.0115 -0.1013
 7437TIP3    H143802   2.403   4.569   6.356  0.0064  1.8615 -1.6156
 7437TIP3    H243803   2.254   4.581   6.332 -0.2904 -0.1173 -0.8667
 7438TIP3   OH243804   4.903   2.961   0.974  0.2852  0.9332  0.1578
 7438TIP3    H143805   4.858   2.929   1.052  1.2382  0.3269  0.4717
 7438TIP3    H243806   4.864   2.912   0.902 -0.4513  1.3453  0.2684
 7439TIP3   OH243807   3.482   3.402  11.951 -0.1592  0.0165  0.1145
 7439TIP3    H143808   3.458   3.310  11.963  1.0374 -0.2962  0.2717
 7439TIP3    H243809   3.445   3.447  12.027 -1.2793 -0.2331 -0.2894
 7440TIP3   OH243810   5.085   0.235  14.442 -0.5525  0.1676 -0.2344
 7440TIP3    H143811   5.013   0.206  14.498 -0.8250 -1.2533 -1.2945
 7440TIP3    H243812   5.056   0.319  14.406 -0.4891  0.9537  1.5293
 7441TIP3   OH243813   1.049   3.280   4.506  0.9637 -0.5136  0.5890
 7441TIP3    H143814   1.055   3.265   4.600  2.2013 -1.7051  0.3309
 7441TIP3    H243815   0.965   3.243   4.480  0.2314  0.5699  1.3444
 7442TIP3   OH243816   1.496   4.665   1.267  0.9306  0.2654 -0.0302
 7442TIP3    H143817   1.404   4.672   1.292  0.6501  2.2527 -1.5025
 7442TIP3    H243818   1.544   4.674   1.349 -0.2038 -2.3903  0.9792
 7443TIP3   OH243819   6.543   4.086   5.056  0.5340 -0.1026  0.2707
 7443TIP3    H143820   6.452   4.110   5.039  0.7613  0.6466  0.1286
 7443TIP3    H243821   6.591   4.116   4.979  1.3240  1.8978  1.5205
 7444TIP3   OH243822   4.642   6.147  12.490  0.0863  0.2592 -0.1385
 7444TIP3    H143823   4.594   6.224  12.462 -0.6219 -0.5737 -1.2575
 7444TIP3    H243824   4.689   6.118  12.411 -1.5140 -1.8043 -0.3788
 7445TIP3   OH243825   2.308   4.762  15.093 -0.8318 -0.6454 -0.0770
 7445TIP3    H143826   2.302   4.694  15.027 -0.7295 -2.0319  1.3114
 7445TIP3    H243827   2.241   4.825  15.069 -0.6298 -1.0025 -1.6287
 7446TIP3   OH243828   0.234   4.915   1.835 -1.0150  0.1647  0.3144
 7446TIP3    H143829   0.253   4.955   1.750  0.3800 -0.3297  0.3837
 7446TIP3    H243830   0.162   4.854   1.817  1.0739 -1.9678 -1.1212
 7447TIP3   OH243831   3.444   6.602  16.745  0.5676  0.4181 -0.5054
 7447TIP3    H143832   3.519   6.637  16.698 -0.6789 -0.1193 -3.0125
 7447TIP3    H243833   3.422   6.521  16.698  0.8291 -1.5251  2.6084
 7448TIP3   OH243834   1.062   2.182  16.739  0.3694  0.3800  0.4233
 7448TIP3    H143835   1.090   2.192  16.830  0.9493 -1.3259  0.4561
 7448TIP3    H243836   1.142   2.162  16.691 -0.3490 -1.8045  0.0666
 7449TIP3   OH243837   2.064   6.551   0.891 -0.8557 -0.0336  0.8298
 7449TIP3    H143838   2.124   6.498   0.943 -2.1331 -1.6618  0.6814
 7449TIP3    H243839   2.077   6.521   0.801 -1.6377 -0.1600  0.7540
 7450TIP3   OH243840   5.299   2.320  13.869 -0.1114 -0.3424  0.6599
 7450TIP3    H143841   5.361   2.370  13.922 -0.9686  0.2899  1.0929
 7450TIP3    H243842   5.327   2.229  13.877  1.4377  0.0448 -0.0854
 7451TIP3   OH243843   3.409   0.832   3.449 -0.0216  0.0539 -0.1667
 7451TIP3    H143844   3.434   0.921   3.475  0.5159  0.2769 -1.4392
 7451TIP3    H243845   3.411   0.782   3.531  1.6656  0.7432  0.2251
 7452TIP3   OH243846   5.121   5.261  14.471  0.4431 -0.7589  0.3244
 7452TIP3    H143847   5.118   5.193  14.404  2.0460 -0.6281  0.1037
 7452TIP3    H243848   5.103   5.342  14.425 -1.4756 -1.0112  0.5895
 7453TIP3   OH243849   5.289   5.758   4.238  0.0381 -0.1316 -0.1396
 7453TIP3    H143850   5.245   5.692   4.291 -0.0802  0.2764  0.2672
 7453TIP3    H243851   5.231   5.833   4.240  0.5170  0.2355 -0.0107
 7454TIP3   OH243852   2.181   0.814  16.799 -0.5197  0.1823 -0.1102
 7454TIP3    H143853   2.126   0.867  16.856 -2.3440  0.2395 -1.8412
 7454TIP3    H243854   2.204   0.873  16.727 -1.1072 -0.8385 -1.1531
 7455TIP3   OH243855   0.643   6.772  13.634  0.4124 -0.1574  0.0447
 7455TIP3    H143856   0.600   6.768  13.548  1.1950 -0.8922 -0.3178
 7455TIP3    H243857   0.676   6.862  13.640  1.2827 -0.4112 -0.8768
 7456TIP3   OH243858   0.884   2.021   1.729 -0.2596  0.1867 -0.1096
 7456TIP3    H143859   0.874   2.115   1.743 -0.2940  0.5247 -2.2420
 7456TIP3    H243860   0.961   1.997   1.781 -0.8008  1.1906  1.1971
 7457TIP3   OH243861   2.183   2.912   1.598  0.1388  0.4895 -0.0494
 7457TIP3    H143862   2.225   2.830   1.623  2.4084  1.6566  0.1476
 7457TIP3    H243863   2.222   2.933   1.512 -0.6337  1.2133 -0.2323
 7458TIP3   OH243864   4.058   4.298   1.575  0.4273 -0.0699 -0.0423
 7458TIP3    H143865   4.077   4.380   1.621  2.6799  0.1451 -1.2596
 7458TIP3    H243866   4.073   4.319   1.483 -1.6391 -1.1480 -0.6454
 7459TIP3   OH243867   4.256   1.975   1.329  0.2946 -0.6906 -0.9076
 7459TIP3    H143868   4.265   2.070   1.337 -0.1696 -0.7180  0.0458
 7459TIP3    H243869   4.203   1.950   1.405  1.3821 -1.8515 -0.5273
 7460TIP3   OH243870   1.228   5.212   1.143 -0.6008 -0.0982 -0.5315
 7460TIP3    H143871   1.160   5.191   1.080 -1.5488  2.7249 -0.5379
 7460TIP3    H243872   1.293   5.262   1.093  0.5147 -1.0989 -0.0985
 7461TIP3   OH243873   2.973   2.549   1.340 -0.5038  0.3312 -0.1270
 7461TIP3    H143874   2.977   2.469   1.392 -0.5123 -1.8644 -3.3392
 7461TIP3    H243875   3.058   2.591   1.352 -0.4327 -0.2443  1.4235
 7462TIP3   OH243876   1.691   1.542  12.242 -0.3112 -0.0213 -0.1517
 7462TIP3    H143877   1.681   1.456  12.201 -0.5016  0.7353 -1.7280
 7462TIP3    H243878   1.702   1.523  12.336 -1.2369 -1.7014 -0.3684
 7463TIP3   OH243879   2.068   0.572   6.265  0.3611 -0.0845  0.1262
 7463TIP3    H143880   2.149   0.558   6.216 -1.1985 -1.5504 -2.1762
 7463TIP3    H243881   2.076   0.513   6.340  0.7816 -1.3877 -0.9135
 7464TIP3   OH243882   1.759   1.123  14.730  0.0420 -0.2446  0.0746
 7464TIP3    H143883   1.791   1.063  14.662  1.3561  0.6131 -0.0588
 7464TIP3    H243884   1.784   1.081  14.812  2.0302  0.7005 -0.0343
 7465TIP3   OH243885   1.175   3.531  14.850  0.0272 -0.1394  0.4628
 7465TIP3    H143886   1.098   3.509  14.797  1.0257 -1.1863 -0.5755
 7465TIP3    H243887   1.170   3.472  14.925 -0.9003  0.7225  1.0910
 7466TIP3   OH243888   1.986   1.394  12.937 -0.1191 -0.4135  0.0950
 7466TIP3    H143889   1.922   1.323  12.945 -0.6340 -0.1835 -1.6755
 7466TIP3    H243890   1.973   1.447  13.016 -0.8950 -1.3467  0.6084
 7467TIP3   OH243891   5.670   1.071  12.852 -0.0249  0.7841  0.3476
 7467TIP3    H143892   5.706   1.147  12.899  0.0109  0.5243  0.7479
 7467TIP3    H243893   5.702   1.081  12.763  0.9710  0.6025  0.6730
 7468TIP3   OH243894   5.939   4.139  11.781 -0.8127 -0.3882  0.0425
 7468TIP3    H143895   5.859   4.175  11.819 -1.5255 -1.1294 -0.7368
 7468TIP3    H243896   5.970   4.207  11.721  0.5856  0.9865  2.2879
 7469TIP3   OH243897   4.212   2.259   1.289 -0.4454  0.1281  0.4545
 7469TIP3    H143898   4.229   2.346   1.323 -0.3786 -0.1580  1.1637
 7469TIP3    H243899   4.118   2.246   1.301 -0.9208  1.0877 -1.9975
 7470TIP3   OH243900   2.379   5.148   2.376  0.1070  0.0992 -0.0860
 7470TIP3    H143901   2.390   5.134   2.281 -0.1294 -0.0665 -0.0899
 7470TIP3    H243902   2.461   5.115   2.414  0.4875  0.8125 -0.2906
 7471TIP3   OH243903   3.024   3.101  12.586 -0.0194  0.4000 -0.6534
 7471TIP3    H143904   2.959   3.064  12.526 -1.8978  3.9073 -0.9363
 7471TIP3    H243905   2.983   3.181  12.619  2.4500  0.4267  2.5580
 7472TIP3   OH243906   5.775   6.548  13.356  0.3545 -0.1728 -0.9543
 7472TIP3    H143907   5.712   6.615  13.379  0.2811 -0.9457  1.2967
 7472TIP3    H243908   5.738   6.504  13.279 -0.6333  0.9588 -1.1299
 7473TIP3   OH243909   4.782   3.878  13.531  0.1747  0.0844 -0.5500
 7473TIP3    H143910   4.833   3.798  13.520  0.5433 -0.2537  3.0619
 7473TIP3    H243911   4.848   3.948  13.527  0.3518 -0.0608 -0.2514
 7474TIP3   OH243912   4.972   6.632  11.606 -0.0436  0.0877 -0.0321
 7474TIP3    H143913   4.972   6.692  11.680 -0.8719 -1.2358  1.0579
 7474TIP3    H243914   4.899   6.662  11.551 -0.1354  0.3740  0.2470
 7475TIP3   OH243915   6.691   5.114  13.628  0.0401  0.0027 -0.3501
 7475TIP3    H143916   6.659   5.200  13.601  0.3305 -0.0667 -0.9236
 7475TIP3    H243917   6.779   5.131  13.662 -0.2983  0.0809  0.5111
 7476TIP3   OH243918   4.273   4.391   3.944  0.5066  0.2536  0.2080
 7476TIP3    H143919   4.336   4.461   3.963 -0.9898  1.1964  1.8523
 7476TIP3    H243920   4.196   4.436   3.912  0.4043 -0.8542 -1.1421
 7477TIP3   OH243921   5.925   4.091  13.568  0.4398 -0.2963 -0.1112
 7477TIP3    H143922   5.840   4.050  13.583  1.0472 -0.7481  2.2861
 7477TIP3    H243923   5.987   4.018  13.563  1.0117  0.1549  0.4259
 7478TIP3   OH243924   6.089   5.399  15.899  0.5824 -0.2458  0.1449
 7478TIP3    H143925   6.134   5.332  15.846 -0.2472 -0.0923 -0.7573
 7478TIP3    H243926   6.160   5.448  15.940  1.1921 -2.1936  1.4542
 7479TIP3   OH243927   2.531   6.169   5.579 -0.2945 -0.1033  0.3901
 7479TIP3    H143928   2.615   6.205   5.608 -0.1191  0.6986 -1.0412
 7479TIP3    H243929   2.512   6.100   5.641  0.9162  0.4056  1.3607
 7480TIP3   OH243930   1.157   1.113   4.786 -0.2891  0.4327  0.3254
 7480TIP3    H143931   1.213   1.125   4.863  0.1865 -1.4219  0.2811
 7480TIP3    H243932   1.078   1.071   4.820 -0.8837  1.3231  0.0808
 7481TIP3   OH243933   3.456   0.136   5.157  0.3054  0.6042 -0.0828
 7481TIP3    H143934   3.520   0.207   5.152  1.0897 -0.1450 -0.9914
 7481TIP3    H243935   3.468   0.088   5.075 -0.6065 -0.2473  0.2771
 7482TIP3   OH243936   2.131   0.387  15.220  0.9752  0.5424 -0.0135
 7482TIP3    H143937   2.072   0.430  15.283  1.4693  0.4994  0.4871
 7482TIP3    H243938   2.073   0.338  15.162  0.3879  1.9071 -0.6175
 7483TIP3   OH243939   6.527   2.150   1.994  0.2125  0.4649 -0.2735
 7483TIP3    H143940   6.557   2.143   2.084 -1.4225  0.2370  0.2621
 7483TIP3    H243941   6.532   2.243   1.974  1.2645  0.4350 -0.2046
 7484TIP3   OH243942   1.248   1.075  16.279 -0.2791  0.3068  0.3180
 7484TIP3    H143943   1.339   1.055  16.299 -0.7244 -1.2392  0.8383
 7484TIP3    H243944   1.242   1.170  16.290  1.8869  0.8047 -2.3246
 7485TIP3   OH243945   1.647   2.701   0.978  0.0903 -0.2667 -0.2598
 7485TIP3    H143946   1.615   2.625   0.929 -0.6041 -0.2170  0.1108
 7485TIP3    H243947   1.640   2.675   1.070  3.1642 -1.0718 -0.1974
 7486TIP3   OH243948   6.495   4.204   0.790  0.7732  0.1442 -0.6028
 7486TIP3    H143949   6.516   4.130   0.847  0.0996  0.9461  0.7132
 7486TIP3    H243950   6.576   4.220   0.741  0.7278 -1.8713 -1.3981
 7487TIP3   OH243951   6.624   4.337  16.080  0.0528 -0.2234 -0.2578
 7487TIP3    H143952   6.661   4.425  16.068  0.1790 -0.5586 -2.6647
 7487TIP3    H243953   6.574   4.343  16.161  1.0391  1.7392  0.2424
 7488TIP3   OH243954   5.575   3.364   6.259  0.6011  0.4481 -0.2693
 7488TIP3    H143955   5.542   3.291   6.205  0.2197  1.4047 -1.3637
 7488TIP3    H243956   5.638   3.324   6.318 -0.0400 -0.8724 -0.4526
 7489TIP3   OH243957   1.266   1.475   3.858  0.0657  0.1751 -0.0362
 7489TIP3    H143958   1.323   1.399   3.844  0.7083  0.4951  0.8218
 7489TIP3    H243959   1.189   1.457   3.803  0.1919 -1.1110  0.1850
 7490TIP3   OH243960   2.330   0.311   4.225 -0.6939 -0.0893  0.3601
 7490TIP3    H143961   2.262   0.370   4.257  0.1358  0.9899  0.1570
 7490TIP3    H243962   2.362   0.267   4.304 -1.1472 -0.0981  0.5438
 7491TIP3   OH243963   3.168   1.368  16.882  0.0517 -0.3166  0.4099
 7491TIP3    H143964   3.225   1.316  16.825  0.9045 -1.1959  2.0052
 7491TIP3    H243965   3.082   1.327  16.875  0.2634 -0.7170  0.1377
 7492TIP3   OH243966   0.883   1.727   5.552 -0.9296  0.3506 -0.0826
 7492TIP3    H143967   0.901   1.673   5.474 -0.7759 -0.9087  0.8033
 7492TIP3    H243968   0.969   1.746   5.588 -0.9840  1.2414 -0.4179
 7493TIP3   OH243969   6.185   2.697   5.471  0.3316 -0.4647  0.1371
 7493TIP3    H143970   6.105   2.699   5.524 -0.5656 -1.6248 -1.1255
 7493TIP3    H243971   6.191   2.785   5.434  0.9942  0.3729  2.1502
 7494TIP3   OH243972   2.378   1.545  15.978  0.3797 -0.2825  0.2881
 7494TIP3    H143973   2.466   1.508  15.977  0.2436 -0.6875  1.8727
 7494TIP3    H243974   2.374   1.596  16.058 -0.3007  1.0698 -0.5886
 7495TIP3   OH243975   4.785   0.886   2.898 -0.1622  0.2375  0.0279
 7495TIP3    H143976   4.787   0.803   2.944  0.0051  0.9969  1.4226
 7495TIP3    H243977   4.807   0.864   2.807 -0.9276 -1.3277  0.2095
 7496TIP3   OH243978   6.391   1.180   0.017 -0.0343  0.0973  1.0836
 7496TIP3    H143979   6.438   1.157  -0.064 -2.4989  0.8109 -0.6262
 7496TIP3    H243980   6.460   1.197   0.081  1.9789 -1.0684 -0.7054
 7497TIP3   OH243981   1.351   0.270   5.602 -0.1382  0.4084  0.1413
 7497TIP3    H143982   1.264   0.259   5.563  0.8315 -1.5016 -1.6304
 7497TIP3    H243983   1.391   0.342   5.554 -0.7092  1.2735  0.9428
 7498TIP3   OH243984   2.018   6.714  13.349  0.0090 -0.2456 -0.4573
 7498TIP3    H143985   2.035   6.626  13.315 -0.8034 -0.6093  0.0517
 7498TIP3    H243986   2.094   6.734  13.403  0.1817 -0.6510 -0.5450
 7499TIP3   OH243987   6.338   2.656   4.684 -0.1760  0.1275  0.5227
 7499TIP3    H143988   6.345   2.739   4.731 -0.9647  1.3987 -1.5278
 7499TIP3    H243989   6.248   2.656   4.650  0.1066 -1.1549 -0.2286
 7500TIP3   OH243990   1.609   5.020  12.600  0.2256  0.9434 -0.2103
 7500TIP3    H143991   1.568   5.010  12.515  0.1343 -1.4926  0.0869
 7500TIP3    H243992   1.618   4.931  12.634 -1.1118  1.9113  2.9647
 7501TIP3   OH243993   5.366   5.353   1.926 -0.1528  0.0507  0.6810
 7501TIP3    H143994   5.387   5.361   1.833  1.8459  0.8396  1.1743
 7501TIP3    H243995   5.332   5.264   1.935 -1.2793  0.2850 -0.9581
 7502TIP3   OH243996   4.548   5.875   2.607  0.6061  0.5303 -0.0264
 7502TIP3    H143997   4.491   5.911   2.676 -0.8428 -0.6071 -0.5899
 7502TIP3    H243998   4.579   5.792   2.643 -0.0400  0.0023 -0.6608
 7503TIP3   OH243999   2.777   5.492   5.565  0.2628 -0.4072 -0.2945
 7503TIP3    H144000   2.759   5.568   5.621  1.4318  0.0584 -0.5350
 7503TIP3    H244001   2.738   5.418   5.612 -1.9824  0.4872 -0.6495
 7504TIP3   OH244002   5.829   1.725  12.840  0.5214 -0.0149 -0.5515
 7504TIP3    H144003   5.822   1.670  12.918  0.0527 -0.4869 -0.9180
 7504TIP3    H244004   5.784   1.807  12.864  1.0148  0.1190 -0.0851
 7505TIP3   OH244005   1.472   2.734  11.845 -0.4847 -0.0770  0.2943
 7505TIP3    H144006   1.437   2.795  11.911 -0.1271  1.2000 -0.6859
 7505TIP3    H244007   1.562   2.763  11.830 -0.5252 -0.4359 -0.6826
 7506TIP3   OH244008   0.892   1.293   2.595 -0.0236 -0.0679 -0.1122
 7506TIP3    H144009   0.980   1.256   2.587 -0.5118 -1.2259 -0.2589
 7506TIP3    H244010   0.903   1.385   2.570  0.6823 -0.7904 -2.6724
 7507TIP3   OH244011   6.633   6.470   3.469  0.3324  0.6912  0.1262
 7507TIP3    H144012   6.593   6.492   3.386  0.8842 -0.6864 -0.5141
 7507TIP3    H244013   6.723   6.503   3.462  0.6640 -0.2714 -0.1958
 7508TIP3   OH244014   0.746   3.029  12.912 -0.0903  0.1658  0.2331
 7508TIP3    H144015   0.755   2.987  12.826 -0.2793  1.2977 -0.3445
 7508TIP3    H244016   0.680   3.096  12.899  0.7096  1.1118  0.9800
 7509TIP3   OH244017   6.578   3.617  12.626  0.3649 -0.9979 -0.7224
 7509TIP3    H144018   6.582   3.591  12.718  2.4840 -0.1288 -0.5404
 7509TIP3    H244019   6.561   3.711  12.629 -0.8522 -1.1960 -1.2551
 7510TIP3   OH244020   3.181   1.975   0.204  0.0929 -0.0241 -0.5120
 7510TIP3    H144021   3.184   1.900   0.264  1.3816  1.6155  1.5256
 7510TIP3    H244022   3.092   2.009   0.213  0.0786 -0.1773 -0.0329
 7511TIP3   OH244023   4.589   4.792  14.930 -0.1447 -0.1071  0.1821
 7511TIP3    H144024   4.604   4.790  14.836 -0.2374 -0.3719  0.1724
 7511TIP3    H244025   4.500   4.757  14.941 -0.4813  0.7712  0.2964
 7512TIP3   OH244026   4.565   2.973  13.927 -0.1638 -0.5466 -0.4499
 7512TIP3    H144027   4.566   2.894  13.980  0.7373 -1.1088 -1.2751
 7512TIP3    H244028   4.555   3.044  13.989  2.2199 -1.0962  0.6172
 7513TIP3   OH244029   3.872   5.686  11.876 -0.2791 -0.1767  0.3518
 7513TIP3    H144030   3.815   5.650  11.808 -1.6756  0.6504  1.0651
 7513TIP3    H244031   3.814   5.701  11.951  1.4873 -2.3945  2.2362
 7514TIP3   OH244032   4.833   6.593  11.186  0.3961 -0.0370  0.2568
 7514TIP3    H144033   4.750   6.554  11.159  0.2673 -0.1637  0.8247
 7514TIP3    H244034   4.813   6.636  11.269  0.6455  0.8535 -0.1411
 7515TIP3   OH244035   5.416   3.989  14.369 -0.1521  0.2010  0.3583
 7515TIP3    H144036   5.454   3.921  14.425 -0.0511  1.1068  1.4226
 7515TIP3    H244037   5.324   3.966  14.362  0.1493 -0.8049 -0.4353
 7516TIP3   OH244038   1.399   1.895  16.994 -0.1813 -0.0188  0.1233
 7516TIP3    H144039   1.339   1.920  17.065  1.5122  0.0360  1.5714
 7516TIP3    H244040   1.389   1.801  16.986  0.2056 -0.1471  1.0177
 7517TIP3   OH244041   2.326   3.516  16.402 -0.6954  0.0217 -0.2268
 7517TIP3    H144042   2.321   3.565  16.320  2.4858  0.6320 -0.0894
 7517TIP3    H244043   2.306   3.425  16.377  0.2566  0.2027 -1.6644
 7518TIP3   OH244044   5.171   5.059   6.148 -0.5348  0.1638 -0.0899
 7518TIP3    H144045   5.141   5.082   6.236 -0.1873  0.8063 -0.1340
 7518TIP3    H244046   5.128   4.975   6.129 -0.2674 -0.1936  0.8607
 7519TIP3   OH244047   4.683   3.213   3.233 -0.0983 -0.7699  0.1915
 7519TIP3    H144048   4.759   3.213   3.176  0.9492  0.6486  1.5564
 7519TIP3    H244049   4.611   3.244   3.178  1.0970  1.4867 -0.1239
 7520TIP3   OH244050   1.585   0.299   3.417  0.3519  0.3454  0.2436
 7520TIP3    H144051   1.624   0.252   3.491  1.4406 -1.6347 -1.5210
 7520TIP3    H244052   1.497   0.264   3.411  0.0595  0.9424  0.9566
 7521TIP3   OH244053   3.436   6.699   3.460  0.0768 -0.3219 -0.5558
 7521TIP3    H144054   3.506   6.639   3.432 -0.8944 -1.0241 -1.5539
 7521TIP3    H244055   3.482   6.775   3.495  1.3985 -2.9992  3.9319
 7522TIP3   OH244056   3.404   1.581  11.912 -0.0411 -0.3039  0.1427
 7522TIP3    H144057   3.378   1.673  11.903  1.4618  0.1412  0.2822
 7522TIP3    H244058   3.487   1.584  11.959  0.0052 -1.7450  0.1653
 7523TIP3   OH244059   2.952   2.627   0.128 -1.2018 -0.3473 -0.4038
 7523TIP3    H144060   3.003   2.689   0.180  1.2324 -0.5293 -2.4242
 7523TIP3    H244061   2.921   2.678   0.053 -1.3604 -0.9499 -0.7536
 7524TIP3   OH244062   2.846   0.504  16.457 -0.1784  0.8847  0.2723
 7524TIP3    H144063   2.862   0.553  16.538  0.3949 -0.0986  0.7637
 7524TIP3    H244064   2.878   0.416  16.476 -1.7169  0.1672 -0.4208
 7525TIP3   OH244065   1.335   1.131   4.543 -0.0126 -0.0525  0.5236
 7525TIP3    H144066   1.282   1.129   4.622  0.5970 -2.0445  0.9078
 7525TIP3    H244067   1.402   1.196   4.560  1.3837 -1.9645  2.4996
 7526TIP3   OH244068   2.013   4.530   4.576  0.1927 -0.0336  0.3957
 7526TIP3    H144069   2.062   4.530   4.494 -0.4817  0.7360 -0.0232
 7526TIP3    H244070   1.937   4.475   4.558 -1.3363  2.2384 -0.3780
 7527TIP3   OH244071   0.839   2.249  12.431  0.0535 -0.1304 -0.2496
 7527TIP3    H144072   0.811   2.159  12.449  0.6599 -0.0950  0.9111
 7527TIP3    H244073   0.790   2.274  12.353 -1.6863 -0.7331  0.6355
 7528TIP3   OH244074   0.315   6.628  16.257 -0.1329 -0.1380  0.1601
 7528TIP3    H144075   0.399   6.631  16.303  2.0317  0.8858 -3.6772
 7528TIP3    H244076   0.280   6.717  16.263  1.2292  0.5842 -1.9507
 7529TIP3   OH244077   5.921   3.392   1.642  0.4227 -0.1555 -0.3888
 7529TIP3    H144078   5.913   3.306   1.601  1.7799 -0.5744  0.1782
 7529TIP3    H244079   5.841   3.401   1.694 -0.6945 -0.1732 -2.0528
 7530TIP3   OH244080   0.636   4.183   4.240  0.4516 -0.4156 -0.1176
 7530TIP3    H144081   0.633   4.215   4.150  2.1039  0.5481  0.1464
 7530TIP3    H244082   0.724   4.205   4.271 -0.5735  0.6073  2.2346
 7531TIP3   OH244083   4.666   1.050  11.627  0.3749 -0.6303 -0.4040
 7531TIP3    H144084   4.703   0.973  11.584  0.1664  0.1202 -1.9510
 7531TIP3    H244085   4.717   1.124  11.593  0.2958 -0.0375  0.7450
 7532TIP3   OH244086   4.783   5.397   3.903  0.9193 -0.0945  0.2828
 7532TIP3    H144087   4.770   5.308   3.934 -0.4617 -0.3793 -1.0736
 7532TIP3    H244088   4.858   5.391   3.845  2.3891  0.1070  2.1169
 7533TIP3   OH244089   2.185   6.356   6.051  0.2217  0.3877 -0.0747
 7533TIP3    H144090   2.154   6.334   5.963  0.3246  2.8161 -0.7465
 7533TIP3    H244091   2.258   6.296   6.066 -1.7222 -2.1420 -0.3796
 7534TIP3   OH244092   1.188   5.269  14.725 -0.1718 -0.3701  0.4868
 7534TIP3    H144093   1.224   5.292  14.639  0.7074  0.9842  1.2075
 7534TIP3    H244094   1.128   5.197  14.707 -1.0069  0.7602 -1.4730
 7535TIP3   OH244095   1.463   4.357   4.835 -0.2440  0.1190 -0.1857
 7535TIP3    H144096   1.387   4.373   4.891 -1.7390 -0.3358 -2.0441
 7535TIP3    H244097   1.537   4.355   4.896 -1.8019 -0.2484  1.7593
 7536TIP3   OH244098   5.567   2.860   3.312  0.0923  0.1244  0.3789
 7536TIP3    H144099   5.544   2.773   3.344 -3.6528  0.1772 -1.9377
 7536TIP3    H244100   5.614   2.845   3.231  0.6863  0.2386  0.6997
 7537TIP3   OH244101   6.679   4.338  11.109  0.4932  0.9661  0.2942
 7537TIP3    H144102   6.731   4.261  11.084 -0.4655  0.3484  0.2039
 7537TIP3    H244103   6.636   4.365  11.029  0.1997  1.1177  0.5042
 7538TIP3   OH244104   5.352   6.155   1.423  0.0670  0.4189  0.2912
 7538TIP3    H144105   5.322   6.126   1.337 -0.4744 -0.6875  0.8383
 7538TIP3    H244106   5.421   6.092   1.446 -1.1360 -0.4897  1.5003
 7539TIP3   OH244107   1.634   2.951  10.391 -0.0786 -0.3364 -0.0448
 7539TIP3    H144108   1.614   2.869  10.436  2.1043 -0.0516  1.4981
 7539TIP3    H244109   1.705   2.929  10.330  1.1847  0.6015  1.0713
 7540TIP3   OH244110   3.987   1.833   2.637  0.1634  0.6061  0.8093
 7540TIP3    H144111   4.013   1.772   2.568 -2.1764  0.0156  0.4083
 7540TIP3    H244112   4.045   1.908   2.626  0.3988  0.1567 -1.2339
 7541TIP3   OH244113   1.637   0.681  15.239  0.4447 -0.0071 -0.0140
 7541TIP3    H144114   1.661   0.692  15.331  1.0408  1.5696 -0.3384
 7541TIP3    H244115   1.656   0.766  15.199 -0.8747 -0.3220 -1.3632
 7542TIP3   OH244116   3.472   3.859   6.115  0.1365  0.0821 -0.4704
 7542TIP3    H144117   3.534   3.828   6.181  1.1217  2.5856 -0.1839
 7542TIP3    H244118   3.389   3.818   6.139  0.4190  1.1426  2.5048
 7543TIP3   OH244119   0.930   3.749   5.108  0.1520 -0.0014  0.1345
 7543TIP3    H144120   0.933   3.690   5.033 -0.6255 -2.1164  1.7420
 7543TIP3    H244121   0.918   3.692   5.184  2.0332  2.0018  2.0156
 7544TIP3   OH244122   1.520   4.532   0.089 -0.4247  0.5786 -0.1227
 7544TIP3    H144123   1.596   4.540   0.033 -0.9656 -1.6273 -1.2285
 7544TIP3    H244124   1.548   4.567   0.174  0.9601  2.2177 -1.2219
 7545TIP3   OH244125   6.422   4.409  15.904  0.9417 -0.9432 -0.3391
 7545TIP3    H144126   6.473   4.355  15.965 -0.7613 -2.6412 -0.3552
 7545TIP3    H244127   6.414   4.494  15.947  0.1414 -1.9885  1.6122
 7546TIP3   OH244128   4.120   2.607  16.550  0.4826  0.5292 -0.5233
 7546TIP3    H144129   4.208   2.644  16.560  0.4196  0.2872  1.0936
 7546TIP3    H244130   4.124   2.557  16.469  1.5425  1.3349 -0.9799
 7547TIP3   OH244131   6.318   5.266  14.238 -0.0523 -0.0104 -0.3693
 7547TIP3    H144132   6.258   5.312  14.297  0.5252  1.7108 -1.0757
 7547TIP3    H244133   6.276   5.182  14.222 -0.5819 -0.2043  1.8866
 7548TIP3   OH244134   6.302   6.490  15.459  0.0297 -0.2980 -0.2067
 7548TIP3    H144135   6.291   6.584  15.445 -0.6077 -0.3838 -0.3060
 7548TIP3    H244136   6.393   6.472  15.435  0.6648  0.5948  1.4418
 7549TIP3   OH244137   4.153   3.166   4.342  0.0382 -0.0317 -0.5914
 7549TIP3    H144138   4.155   3.077   4.376  1.8505  0.4070  0.5185
 7549TIP3    H244139   4.109   3.217   4.410  0.2982  0.1677 -0.5707
 7550TIP3   OH244140   0.721   5.749  14.134  1.0873 -0.2663  0.6080
 7550TIP3    H144141   0.760   5.662  14.146  0.3407 -1.0738 -2.4392
 7550TIP3    H244142   0.647   5.750  14.195  0.1089 -2.4113 -0.4951
 7551TIP3   OH244143   6.809   2.029   2.174  0.2029  0.5077  0.2494
 7551TIP3    H144144   6.816   1.934   2.162  2.3285  0.8848 -2.0242
 7551TIP3    H244145   6.894   2.054   2.212 -0.6459  1.4095  1.5846
 7552TIP3   OH244146   3.421   0.889  14.886 -0.5197 -0.3325 -0.7788
 7552TIP3    H144147   3.449   0.974  14.851  0.6625 -0.3698  0.0485
 7552TIP3    H244148   3.331   0.879  14.855 -0.1285  0.4866 -2.2373
 7553TIP3   OH244149   5.929   2.106   2.517  0.0059  0.4697 -0.0364
 7553TIP3    H144150   6.001   2.055   2.554 -1.5002 -2.3521 -0.7629
 7553TIP3    H244151   5.853   2.079   2.569 -1.0180  1.1830 -1.1498
 7554TIP3   OH244152   5.568   1.428   4.128 -0.3110  0.0117 -0.2958
 7554TIP3    H144153   5.645   1.373   4.141 -0.0967  0.4042  0.1220
 7554TIP3    H244154   5.567   1.446   4.034  0.4896  0.5464 -0.2110
 7555TIP3   OH244155   1.507   6.590  12.908  0.1533 -0.2109 -0.3055
 7555TIP3    H144156   1.492   6.612  12.816  1.0472 -1.6948 -0.8208
 7555TIP3    H244157   1.420   6.571  12.942 -0.0839 -0.5896 -1.1016
 7556TIP3   OH244158   3.350   1.113   4.748  0.4960 -0.1302  0.3137
 7556TIP3    H144159   3.379   1.094   4.837  1.2611  0.0381  0.1085
 7556TIP3    H244160   3.371   1.034   4.699  1.7006  0.4098 -0.0811
 7557TIP3   OH244161   1.577   5.998  14.707  0.5069  0.2763 -0.1628
 7557TIP3    H144162   1.528   6.026  14.630  0.9190 -1.9434 -1.2571
 7557TIP3    H244163   1.669   5.997  14.679  0.7203 -0.0284  0.5174
 7558TIP3   OH244164   0.095   0.429  10.555 -1.3141  0.4918 -0.4404
 7558TIP3    H144165   0.098   0.358  10.619  1.9117 -0.5943 -1.6616
 7558TIP3    H244166   0.103   0.509  10.607 -0.7592 -0.2819  0.6702
 7559TIP3   OH244167   6.272   4.617  12.400  0.4456 -0.4577  0.5351
 7559TIP3    H144168   6.351   4.661  12.369 -0.4436 -0.0255 -1.1891
 7559TIP3    H244169   6.263   4.540  12.343 -1.1339  0.2686 -0.2443
 7560TIP3   OH244170   4.676   4.938   4.173  0.7125  0.1945 -0.8282
 7560TIP3    H144171   4.627   4.979   4.243 -0.5000 -0.4592 -1.2828
 7560TIP3    H244172   4.754   4.902   4.216  0.5516  0.7993 -0.0246
 7561TIP3   OH244173   1.184   2.416   4.282  0.2402  0.0195 -0.1624
 7561TIP3    H144174   1.175   2.376   4.195  1.4112  0.6810 -0.5997
 7561TIP3    H244175   1.206   2.342   4.339 -1.1546 -0.5201 -0.3083
 7562TIP3   OH244176   2.213   2.597  15.195 -0.3342  0.0829  0.2779
 7562TIP3    H144177   2.278   2.595  15.125  1.0023 -0.7124  1.5001
 7562TIP3    H244178   2.260   2.637  15.269 -0.8110 -1.6247  1.5500
 7563TIP3   OH244179   2.408   0.438  14.610  0.1619 -0.3206 -0.1508
 7563TIP3    H144180   2.476   0.504  14.594 -1.1539  1.3527  0.9477
 7563TIP3    H244181   2.408   0.426  14.705 -0.8156 -0.5691 -0.1754
 7564TIP3   OH244182   2.621   4.547  14.426 -0.6737  0.0414 -0.0000
 7564TIP3    H144183   2.627   4.613  14.357 -0.2476  0.5728  0.5428
 7564TIP3    H244184   2.672   4.583  14.498  1.3314 -1.8354 -0.4539
 7565TIP3   OH244185   6.173   1.588  16.820 -1.0747 -0.3041 -0.0089
 7565TIP3    H144186   6.216   1.569  16.737 -2.0301 -0.7067 -0.4275
 7565TIP3    H244187   6.171   1.503  16.865 -1.7663 -0.3745 -0.1626
 7566TIP3   OH244188   6.111   6.251  13.748  0.1800 -0.7907 -0.1843
 7566TIP3    H144189   6.106   6.268  13.654 -1.1116 -0.1001 -0.0075
 7566TIP3    H244190   6.204   6.251  13.768  0.4201  0.1435 -1.2728
 7567TIP3   OH244191   3.437   6.231   0.599 -0.5722  0.4699 -0.2298
 7567TIP3    H144192   3.353   6.203   0.637 -0.0656  0.8947  1.2372
 7567TIP3    H244193   3.417   6.313   0.555 -0.4230  2.0119  2.4317
 7568TIP3   OH244194   4.707   2.030  14.704  0.8816 -0.2405 -0.2610
 7568TIP3    H144195   4.777   1.978  14.663  3.0432  0.6884  2.1054
 7568TIP3    H244196   4.689   2.099  14.640  0.4016 -1.8538 -1.9324
 7569TIP3   OH244197   4.925   6.426  12.515  0.0694  0.2788  0.3189
 7569TIP3    H144198   5.007   6.473  12.498  0.6181 -0.2024  1.5649
 7569TIP3    H244199   4.860   6.470  12.461  0.4272  2.8871  1.9179
 7570TIP3   OH244200   3.038   1.968   4.875  0.0816  0.0346 -0.8561
 7570TIP3    H144201   3.088   1.921   4.943  0.0457 -2.1694 -2.3134
 7570TIP3    H244202   2.953   1.985   4.916  0.7578  0.5192  0.3625
 7571TIP3   OH244203   3.556   6.075   2.731 -0.2242 -0.2090 -0.1003
 7571TIP3    H144204   3.543   6.169   2.745 -2.2928 -0.3645 -0.6918
 7571TIP3    H244205   3.573   6.040   2.819 -1.4297  0.4672  0.4249
 7572TIP3   OH244206   0.662   5.009   2.748 -0.0443 -0.2932 -0.0322
 7572TIP3    H144207   0.707   5.022   2.664 -0.0045  1.2532  0.2127
 7572TIP3    H244208   0.569   5.023   2.727 -0.1033 -0.5741  0.0454
 7573TIP3   OH244209   1.377   3.717  14.759 -0.0165  0.0297  0.1858
 7573TIP3    H144210   1.371   3.682  14.670 -0.3124  0.4036  0.0553
 7573TIP3    H244211   1.313   3.666  14.809  0.3600 -0.3790  0.2505
 7574TIP3   OH244212   1.576   6.068  13.012  0.3014 -0.3208 -0.1150
 7574TIP3    H144213   1.634   6.052  12.937  0.8982 -0.3891  0.3602
 7574TIP3    H244214   1.493   6.096  12.972  0.8438  0.3593 -0.7782
 7575TIP3   OH244215   4.570   1.273   0.524 -0.1018  0.6331 -0.2057
 7575TIP3    H144216   4.583   1.357   0.480  1.4683 -0.6023 -2.1704
 7575TIP3    H244217   4.627   1.212   0.477 -1.9250 -1.7447  0.5682
 7576TIP3   OH244218   1.476   4.709  13.959 -0.0196 -0.2403  0.1825
 7576TIP3    H144219   1.509   4.766  14.029 -1.0524 -0.2638  0.6888
 7576TIP3    H244220   1.402   4.757  13.922  0.5727 -0.1784 -0.9841
 7577TIP3   OH244221   5.168   2.143  15.039  0.1113 -0.1765 -0.3843
 7577TIP3    H144222   5.094   2.115  14.985 -1.0320  1.1451  0.4520
 7577TIP3    H244223   5.242   2.148  14.979 -0.7940 -0.2009 -1.5115
 7578TIP3   OH244224   0.494   2.783   0.705 -1.0859 -0.1480 -0.3895
 7578TIP3    H144225   0.587   2.800   0.718 -0.7587 -0.9785 -1.5789
 7578TIP3    H244226   0.457   2.868   0.681 -0.6360  0.1744  0.0465
 7579TIP3   OH244227   0.602   5.597  13.283 -0.6007  0.4244  0.5509
 7579TIP3    H144228   0.606   5.502  13.293  0.4291  0.4486  0.4111
 7579TIP3    H244229   0.514   5.613  13.250 -0.2830 -0.6248 -0.8658
 7580TIP3   OH244230   5.325   5.077   3.189 -0.2851  0.7011  0.2797
 7580TIP3    H144231   5.321   5.134   3.266 -3.2448  0.6326  0.2580
 7580TIP3    H244232   5.275   5.125   3.123 -1.6642 -1.2765 -0.1518
 7581TIP3   OH244233   1.282   2.698   4.776  0.2214 -0.1245 -0.2878
 7581TIP3    H144234   1.352   2.743   4.730 -0.2675 -0.9330 -1.8498
 7581TIP3    H244235   1.326   2.637   4.835  0.8195 -0.4241 -1.0538
 7582TIP3   OH244236   5.445   4.246   0.093 -0.3754 -0.5245 -0.2279
 7582TIP3    H144237   5.454   4.212   0.181  1.0063 -0.2396 -0.2451
 7582TIP3    H244238   5.449   4.169   0.036  0.3497 -0.5623 -0.1306
 7583TIP3   OH244239   2.047   3.835  15.952  0.1201 -0.4405 -0.0562
 7583TIP3    H144240   2.059   3.759  15.895 -0.3893 -0.7697  0.2753
 7583TIP3    H244241   1.952   3.850  15.953  0.2586  0.5740 -0.6110
 7584TIP3   OH244242   0.481   3.197  11.283 -0.6630 -0.3128 -0.0725
 7584TIP3    H144243   0.432   3.123  11.318 -2.4286  0.7668 -0.1707
 7584TIP3    H244244   0.442   3.213  11.197  0.9075 -0.3813 -0.8208
 7585TIP3   OH244245   4.929   0.910   4.579 -0.1921 -0.3235  0.5207
 7585TIP3    H144246   4.852   0.875   4.625 -1.3600 -0.6831 -1.6158
 7585TIP3    H244247   4.907   1.001   4.561  0.3997 -0.0944  0.9261
 7586TIP3   OH244248   2.679   4.913  10.409  0.9388 -0.9460  0.1553
 7586TIP3    H144249   2.614   4.843  10.404  2.1310 -1.9861 -1.3171
 7586TIP3    H244250   2.641   4.977  10.469 -1.0874 -1.8852 -0.0863
 7587TIP3   OH244251   6.477   1.217   3.312  0.0887  0.4394  0.4109
 7587TIP3    H144252   6.493   1.268   3.391 -1.0323  1.3446  0.0660
 7587TIP3    H244253   6.438   1.279   3.250 -1.5332 -0.8565  0.0689
 7588TIP3   OH244254   6.300   3.297   0.675 -0.0588  0.7340  0.6062
 7588TIP3    H144255   6.385   3.282   0.632 -1.5346  0.0202 -2.1940
 7588TIP3    H244256   6.245   3.335   0.607 -1.4628  2.9690  2.9211
 7589TIP3   OH244257   2.898   4.633   2.056 -0.1360  0.0389 -0.2997
 7589TIP3    H144258   2.808   4.663   2.052  0.1420  0.8716 -0.3251
 7589TIP3    H244259   2.904   4.586   2.139 -0.4828  0.3136 -0.1210
 7590TIP3   OH244260   5.926   1.023   3.493 -0.2852 -0.1615  0.1012
 7590TIP3    H144261   6.002   1.068   3.533  0.1660 -0.5247 -0.3433
 7590TIP3    H244262   5.935   1.041   3.400 -0.6443 -0.3774  0.0274
 7591TIP3   OH244263   4.804   6.745   0.974  0.0186  0.0631 -0.6531
 7591TIP3    H144264   4.800   6.780   0.885 -1.9924 -0.0017 -0.5973
 7591TIP3    H244265   4.762   6.811   1.029 -0.0777 -0.5570  0.0341
 7592TIP3   OH244266   3.138   4.344   0.695 -0.0844 -0.7178  0.3773
 7592TIP3    H144267   3.071   4.338   0.764  1.5508  1.8102  2.2747
 7592TIP3    H244268   3.126   4.431   0.658 -0.2525 -1.6684 -1.8521
 7593TIP3   OH244269   5.606   1.541   3.835 -0.9076  0.1088 -0.6593
 7593TIP3    H144270   5.557   1.527   3.754 -2.0874  2.9009 -0.5109
 7593TIP3    H244271   5.623   1.635   3.835  0.3250 -0.1034  1.6381
 7594TIP3   OH244272   2.553   5.930   1.404 -0.0348  0.4658 -0.0678
 7594TIP3    H144273   2.508   5.868   1.346  0.6382 -0.0258 -0.0549
 7594TIP3    H244274   2.548   6.013   1.357 -1.2750  0.4926  0.0888
 7595TIP3   OH244275   0.596   6.605   2.545  0.1004  0.3554 -0.1164
 7595TIP3    H144276   0.621   6.591   2.453  0.9578 -0.3531  0.2137
 7595TIP3    H244277   0.577   6.698   2.551  0.9432  0.5765 -0.8063
 7596TIP3   OH244278   6.623   5.937   0.988  0.0971 -0.2062 -0.3773
 7596TIP3    H144279   6.715   5.950   1.011  0.0184 -1.3810  0.6531
 7596TIP3    H244280   6.626   5.873   0.916  0.2713  2.5427 -2.8944
 7597TIP3   OH244281   2.808   0.437  14.571  0.2228  0.6140 -0.6835
 7597TIP3    H144282   2.748   0.506  14.542  0.1556 -0.0423 -2.1311
 7597TIP3    H244283   2.895   0.472  14.553  0.2686  1.3368  0.8993
 7598TIP3   OH244284   2.289   3.117  12.206 -0.4252  0.5524 -0.3209
 7598TIP3    H144285   2.299   3.212  12.200 -1.1018  0.6409 -0.0958
 7598TIP3    H244286   2.378   3.084  12.217 -0.2192  1.1832 -0.0913
 7599TIP3   OH244287   4.331   2.215   5.976 -0.5729  0.1581 -0.4706
 7599TIP3    H144288   4.396   2.218   6.046 -1.2596  0.5797  0.1559
 7599TIP3    H244289   4.382   2.219   5.895  0.1711  0.4998  0.0143
 7600TIP3   OH244290   5.809   1.179   0.779 -0.4436 -0.3778  0.2972
 7600TIP3    H144291   5.810   1.089   0.746 -1.2230 -0.5079  0.6406
 7600TIP3    H244292   5.837   1.232   0.704  2.0627 -1.0946  0.6772
 7601TIP3   OH244293   4.370   3.545   1.664  0.2620 -0.3953  0.0883
 7601TIP3    H144294   4.298   3.571   1.721 -0.7943 -1.7706 -0.5848
 7601TIP3    H244295   4.449   3.571   1.712 -0.6586  0.4276  1.1831
 7602TIP3   OH244296   0.888   1.288  10.495  0.4634  0.2734  0.3687
 7602TIP3    H144297   0.842   1.367  10.523  0.3782  0.2710  0.2331
 7602TIP3    H244298   0.939   1.262  10.572  0.7364  0.6388  0.3091
 7603TIP3   OH244299   0.173   2.586   4.030  0.3284 -0.4327 -0.1012
 7603TIP3    H144300   0.141   2.505   4.069 -1.2269  0.4226  0.4405
 7603TIP3    H244301   0.115   2.654   4.066  1.8057  0.9487 -0.3074
 7604TIP3   OH244302   3.368   3.087  14.439  0.0739  0.6137  0.3174
 7604TIP3    H144303   3.398   3.069  14.528 -1.0139 -0.2324  0.5244
 7604TIP3    H244304   3.444   3.126  14.395  1.4059 -1.3145  0.8705
 7605TIP3   OH244305   5.461   4.071  17.174 -0.4615 -0.4993  0.0420
 7605TIP3    H144306   5.393   4.015  17.210 -0.2516 -0.7221  0.0899
 7605TIP3    H244307   5.435   4.086  17.084 -1.8335  1.3497  0.7031
 7606TIP3   OH244308   4.804   1.642  12.733  0.0799  0.0712  0.4075
 7606TIP3    H144309   4.753   1.709  12.780 -2.6086 -1.5628 -0.0683
 7606TIP3    H244310   4.776   1.650  12.642  1.9089  0.2095 -0.1596
 7607TIP3   OH244311   5.990   0.125   0.477 -0.3644 -0.1741  0.1094
 7607TIP3    H144312   6.071   0.125   0.526 -0.4137 -0.0071  0.1893
 7607TIP3    H244313   5.923   0.151   0.540 -0.7437 -1.9828  0.4950
 7608TIP3   OH244314   4.900   1.161  12.050 -0.0572  0.1169  0.3261
 7608TIP3    H144315   4.872   1.103  11.979  0.7231  0.0840  0.0375
 7608TIP3    H244316   4.935   1.238  12.005  2.3159 -0.7577  0.6194
 7609TIP3   OH244317   4.788   5.507  14.544 -0.6468  0.2845  0.2725
 7609TIP3    H144318   4.787   5.602  14.551 -0.8072  0.3349 -0.4168
 7609TIP3    H244319   4.867   5.480  14.591  1.0594  0.9781 -2.1372
 7610TIP3   OH244320   0.389   3.611  15.722  0.1686  0.6955  0.0693
 7610TIP3    H144321   0.380   3.645  15.811  3.0678 -0.0153  0.6551
 7610TIP3    H244322   0.351   3.680  15.667 -0.7617  1.5691  1.7515
 7611TIP3   OH244323   1.031   6.025  13.156 -0.3992 -0.2014  0.0650
 7611TIP3    H144324   1.076   5.967  13.216  0.0356  0.6148  0.5327
 7611TIP3    H244325   0.952   6.053  13.203 -0.8395 -0.7588 -0.3317
 7612TIP3   OH244326   5.578   0.653   3.916 -0.2042  0.4289 -0.0222
 7612TIP3    H144327   5.570   0.729   3.858 -0.1980  1.2299  1.0162
 7612TIP3    H244328   5.526   0.676   3.993  0.7000 -0.1601  0.7700
 7613TIP3   OH244329   0.701   5.957  11.870 -0.3394 -0.0768 -0.0855
 7613TIP3    H144330   0.666   5.869  11.882 -0.8295 -0.1014 -1.5340
 7613TIP3    H244331   0.679   6.003  11.951 -0.2060 -1.2409  0.6281
 7614TIP3   OH244332   4.142   0.801   4.681  0.4368  0.7480  0.0633
 7614TIP3    H144333   4.168   0.755   4.761  1.2540 -0.0170 -0.6350
 7614TIP3    H244334   4.068   0.856   4.708 -1.3832 -1.9060  0.6421
 7615TIP3   OH244335   3.041   1.385   4.663  0.9324  0.5323 -0.1619
 7615TIP3    H144336   3.051   1.307   4.718  0.3170  0.8570  0.4123
 7615TIP3    H244337   2.949   1.384   4.637  0.5749  1.8025  0.9644
 7616TIP3   OH244338   5.407   5.250  13.337  0.6009 -0.0053 -0.4827
 7616TIP3    H144339   5.344   5.212  13.398 -0.7922  2.4253 -0.3572
 7616TIP3    H244340   5.488   5.257  13.388 -0.0757  0.3888  0.5610
 7617TIP3   OH244341   0.731   2.478  16.430  0.6451 -0.2466  0.3566
 7617TIP3    H144342   0.820   2.452  16.454  1.1024 -0.7691 -1.8102
 7617TIP3    H244343   0.742   2.531  16.352 -0.9161  0.1633  0.4025
 7618TIP3   OH244344   4.431   4.414  12.626 -0.1979 -0.3929  0.3807
 7618TIP3    H144345   4.472   4.466  12.557 -0.8665 -0.9709 -0.4642
 7618TIP3    H244346   4.382   4.347  12.579 -2.8591  0.8118  1.3490
 7619TIP3   OH244347   6.243   4.982  13.507 -0.3309  0.8624  0.1387
 7619TIP3    H144348   6.286   4.899  13.488 -0.0275  0.6459  1.7235
 7619TIP3    H244349   6.263   5.037  13.431  0.1885 -0.2128 -0.5201
 7620TIP3   OH244350   5.018   6.419   1.579 -0.0703 -0.0850 -0.0944
 7620TIP3    H144351   5.042   6.483   1.646 -1.6398  0.6202 -0.1921
 7620TIP3    H244352   4.998   6.339   1.628 -2.0723  0.6774  0.3774
 7621TIP3   OH244353   4.558   1.176  11.855  0.3747  0.2131  0.4462
 7621TIP3    H144354   4.608   1.142  11.781  0.2072  1.5720 -0.3162
 7621TIP3    H244355   4.554   1.271  11.840 -3.6596  0.0388 -0.3583
 7622TIP3   OH244356   5.431   0.916   2.736  0.2424 -0.4170  0.0038
 7622TIP3    H144357   5.407   0.950   2.649  0.7422 -0.8289 -0.2943
 7622TIP3    H244358   5.352   0.930   2.789 -0.6288 -1.6291 -0.9360
 7623TIP3   OH244359   3.058   0.614  13.061 -0.3511  0.1763 -0.4013
 7623TIP3    H144360   3.033   0.610  13.153  1.2648  0.9415  0.0874
 7623TIP3    H244361   3.052   0.707  13.039 -1.6621 -0.1090 -1.3623
 7624TIP3   OH244362   1.518   3.568  12.222  0.1120 -0.4211 -0.2622
 7624TIP3    H144363   1.565   3.612  12.293 -0.7891 -1.4187  0.9593
 7624TIP3    H244364   1.534   3.475  12.236 -2.0444 -0.7633  0.0479
 7625TIP3   OH244365   1.407   6.651   6.115 -0.6457 -0.3352  0.1485
 7625TIP3    H144366   1.438   6.705   6.188 -1.0021 -0.3205  0.2903
 7625TIP3    H244367   1.436   6.563   6.135  1.7193  0.1258 -1.0873
 7626TIP3   OH244368   5.481   3.053  15.793 -0.2024 -0.0058 -0.1040
 7626TIP3    H144369   5.551   3.000  15.833  1.9735  2.3022 -0.7174
 7626TIP3    H244370   5.427   3.080  15.867  0.0898 -1.0304  0.5022
 7627TIP3   OH244371   6.111   1.108  14.405 -0.4844  0.7766 -0.0236
 7627TIP3    H144372   6.086   1.175  14.342 -0.0670  2.0218  1.1190
 7627TIP3    H244373   6.193   1.073  14.372 -0.9052  0.5565 -0.8339
 7628TIP3   OH244374   4.594   1.710  15.451 -0.1884 -0.4148  0.4026
 7628TIP3    H144375   4.523   1.770  15.471  0.5424  1.0754 -1.3240
 7628TIP3    H244376   4.674   1.761  15.466  0.4372 -0.7615 -1.5325
 7629TIP3   OH244377   5.514   6.205   3.662 -0.0871  0.9439  0.6163
 7629TIP3    H144378   5.588   6.215   3.602 -1.0131  3.4868 -0.1538
 7629TIP3    H244379   5.551   6.161   3.738  1.8972  0.8869 -0.3484
 7630TIP3   OH244380   0.611   0.984  11.784 -0.4018 -0.1449  0.4810
 7630TIP3    H144381   0.639   0.931  11.710  0.0265 -0.9478  1.2124
 7630TIP3    H244382   0.518   1.002  11.768 -0.2630 -0.1390 -0.3451
 7631TIP3   OH244383   6.279   1.417   6.926 -0.2050 -0.1423 -0.1918
 7631TIP3    H144384   6.237   1.473   6.861 -2.6546 -0.5797  0.9608
 7631TIP3    H244385   6.323   1.349   6.875 -1.9020 -0.3560 -1.4045
 7632TIP3   OH244386   0.330   5.686   2.558 -0.0775  0.3833  0.4736
 7632TIP3    H144387   0.349   5.780   2.562 -0.4216  0.4449  0.6886
 7632TIP3    H244388   0.259   5.674   2.620  0.0356 -0.0391  0.5183
 7633TIP3   OH244389   5.753   0.434   5.198 -0.3837  0.0843  0.1675
 7633TIP3    H144390   5.823   0.456   5.136 -0.5969 -0.3926 -0.2505
 7633TIP3    H244391   5.790   0.452   5.284  0.1675  0.0720 -0.0641
 7634TIP3   OH244392   4.943   3.266   2.119  0.2334 -0.6977 -0.8865
 7634TIP3    H144393   4.865   3.253   2.173 -1.1395  0.8992 -2.4074
 7634TIP3    H244394   4.984   3.180   2.113 -0.0274 -1.0483  2.0132
 7635TIP3   OH244395   2.083   2.348  12.041  0.4249  0.9325  0.2992
 7635TIP3    H144396   2.006   2.388  12.080  0.0911  1.7258 -1.1837
 7635TIP3    H244397   2.091   2.264  12.087 -1.5103  0.6826  0.2183
 7636TIP3   OH244398   5.340   1.139   1.748  0.1186 -0.3307 -0.0027
 7636TIP3    H144399   5.273   1.199   1.715 -0.9760 -0.8344  1.2561
 7636TIP3    H244400   5.340   1.152   1.842  0.8581 -1.2997  0.1389
 7637TIP3   OH244401   2.220   1.929   1.361  0.3474  0.4970 -0.1415
 7637TIP3    H144402   2.234   2.002   1.421  1.0116 -0.1397  0.4839
 7637TIP3    H244403   2.147   1.957   1.305  0.3529  1.4754  0.3439
 7638TIP3   OH244404   0.156   2.202   2.856 -0.1217 -0.5756  0.5178
 7638TIP3    H144405   0.144   2.107   2.846 -1.0698 -0.5713  1.4301
 7638TIP3    H244406   0.102   2.224   2.932  1.3488  0.4395  1.2978
 7639TIP3   OH244407   6.117   1.971  13.479 -0.0745 -0.0916 -0.1592
 7639TIP3    H144408   6.177   2.045  13.477 -0.9254  0.6390  0.6116
 7639TIP3    H244409   6.045   1.997  13.421  0.1416 -0.7683 -0.7333
 7640TIP3   OH244410   0.890   0.792   2.089  0.1850 -0.2189 -0.9283
 7640TIP3    H144411   0.804   0.820   2.121  1.9208  0.9429  2.9970
 7640TIP3    H244412   0.898   0.702   2.119 -0.2110 -0.8237 -2.5778
 7641TIP3   OH244413   1.496   6.020  14.456 -0.0287 -0.6566  0.1161
 7641TIP3    H144414   1.444   5.947  14.421  1.0124 -1.4155  0.1386
 7641TIP3    H244415   1.557   6.042  14.385 -0.1500  0.0108  0.2180
 7642TIP3   OH244416   5.819   3.130  14.927 -0.5365  0.6237  0.0119
 7642TIP3    H144417   5.863   3.075  14.862 -1.6155  0.2839 -0.4420
 7642TIP3    H244418   5.824   3.079  15.008  0.7355  1.0125  0.1870
 7643TIP3   OH244419   1.278   1.590   2.795 -0.0141  0.5280  0.4068
 7643TIP3    H144420   1.188   1.563   2.774  0.6425 -0.6327 -1.0449
 7643TIP3    H244421   1.304   1.645   2.721  0.6386  0.4424  0.5728
 7644TIP3   OH244422   0.019   2.782   4.532 -0.5823  0.2683 -0.1709
 7644TIP3    H144423  -0.063   2.732   4.529  1.1637 -2.7821  0.2449
 7644TIP3    H244424   0.070   2.738   4.600  1.1856  2.4768 -0.0521
 7645TIP3   OH244425   5.516   6.729   4.861  0.3331  0.1785  0.2185
 7645TIP3    H144426   5.433   6.754   4.821  0.4328  1.0693  0.5673
 7645TIP3    H244427   5.580   6.788   4.822  0.5689  0.4743  1.0541
 7646TIP3   OH244428   1.978   0.362   0.152 -0.3325 -0.5309  0.1601
 7646TIP3    H144429   2.007   0.450   0.174 -1.6097  0.7454 -2.9725
 7646TIP3    H244430   2.030   0.337   0.076  0.9439 -3.0595  1.7821
 7647TIP3   OH244431   1.015   2.093  15.216  0.3061 -0.5166 -0.0889
 7647TIP3    H144432   0.974   2.172  15.180  0.9035 -0.9001 -1.6499
 7647TIP3    H244433   0.942   2.033  15.231 -0.0136 -0.1540 -0.1878
 7648TIP3   OH244434   0.011   0.861   5.834 -0.3444  0.2213  0.2883
 7648TIP3    H144435   0.095   0.850   5.790 -0.7032  0.0723 -0.3623
 7648TIP3    H244436   0.029   0.838   5.925  0.4122  0.5843  0.2346
 7649TIP3   OH244437   1.677   4.669   0.604 -0.0641 -0.0875 -0.3692
 7649TIP3    H144438   1.650   4.702   0.689  2.0808  0.0780  0.2856
 7649TIP3    H244439   1.769   4.645   0.616  0.1696 -0.3773 -2.5457
 7650TIP3   OH244440   5.624   3.434  11.384 -0.1527 -0.2288 -0.0270
 7650TIP3    H144441   5.693   3.377  11.418  0.4858  0.7917  0.4417
 7650TIP3    H244442   5.549   3.376  11.369 -0.4860 -0.7100  3.1848
 7651TIP3   OH244443   6.081   5.214  16.267 -0.0474 -0.2268  0.2459
 7651TIP3    H144444   6.145   5.151  16.301 -0.8040 -1.0624  0.1279
 7651TIP3    H244445   6.032   5.165  16.201 -1.1726  0.2444  0.7260
 7652TIP3   OH244446   4.705   6.347  16.690  0.3389 -0.3947 -0.0746
 7652TIP3    H144447   4.717   6.299  16.608  0.9691 -1.1101  0.4353
 7652TIP3    H244448   4.612   6.368  16.692  0.4174  0.0879 -1.2314
 7653TIP3   OH244449   1.322   2.351  13.057 -0.5435 -0.3506  0.5289
 7653TIP3    H144450   1.390   2.350  12.991 -1.3223  0.3274 -0.2952
 7653TIP3    H244451   1.358   2.405  13.128  0.5815 -1.6882  0.9839
 7654TIP3   OH244452   0.952   1.907   0.463  0.2662  0.0594  0.3574
 7654TIP3    H144453   1.009   1.831   0.467  2.6198  1.7145 -0.8407
 7654TIP3    H244454   0.910   1.902   0.377  0.4186  0.1281  0.2800
 7655TIP3   OH244455   3.991   0.454   2.659 -0.3322 -0.1932 -0.1354
 7655TIP3    H144456   4.028   0.397   2.727 -1.4764  1.2015  1.7205
 7655TIP3    H244457   3.898   0.431   2.657 -0.0320 -1.3204 -2.3792
 7656TIP3   OH244458   6.686   0.189   0.512  0.3877 -0.6234 -0.1343
 7656TIP3    H144459   6.681   0.116   0.573 -2.6311 -0.9322 -0.6666
 7656TIP3    H244460   6.704   0.148   0.427 -1.8983 -0.8544 -0.5371
 7657TIP3   OH244461   0.287   5.193   4.883 -0.2970 -0.3985  0.5087
 7657TIP3    H144462   0.259   5.102   4.889 -1.5851  0.0789  2.0802
 7657TIP3    H244463   0.304   5.207   4.790 -1.6212 -1.8030  0.0349
 7658TIP3   OH244464   2.966   1.809  16.851 -0.1921 -0.3794 -0.1586
 7658TIP3    H144465   2.924   1.726  16.874 -0.5149 -0.0295  0.5282
 7658TIP3    H244466   2.940   1.824  16.760  1.8196 -2.2118 -1.0951
 7659TIP3   OH244467   1.085   5.069   4.208 -0.1861 -0.7634 -0.2858
 7659TIP3    H144468   1.074   5.131   4.280  0.4161 -1.8059  0.7208
 7659TIP3    H244469   1.165   5.097   4.163  1.6521 -2.4275  1.8521
 7660TIP3   OH244470   3.986   5.529   6.260  0.2607 -0.0137  0.0970
 7660TIP3    H144471   4.079   5.549   6.249  0.3156 -0.2924  0.0581
 7660TIP3    H244472   3.978   5.438   6.232 -0.0994  0.1384 -0.3042
 7661TIP3   OH244473   1.268   2.846   6.265  0.5731  0.5135  0.4384
 7661TIP3    H144474   1.353   2.859   6.223  1.1855 -0.3259  1.3983
 7661TIP3    H244475   1.258   2.751   6.270 -0.8444  0.6084 -0.5083
 7662TIP3   OH244476   3.959   1.558  13.888 -0.1291  0.6003  0.3560
 7662TIP3    H144477   3.930   1.483  13.939  2.2385  0.5463  1.6748
 7662TIP3    H244478   3.899   1.629  13.913 -1.1182 -0.3131  0.6024
 7663TIP3   OH244479   2.184   2.647  14.453 -0.2928 -0.7296  0.1263
 7663TIP3    H144480   2.260   2.658  14.511 -0.5286  0.7089  0.1653
 7663TIP3    H244481   2.164   2.553  14.459  0.0607 -0.7170  1.8964
 7664TIP3   OH244482   1.837   0.655  14.915  0.5383  0.3157 -0.3318
 7664TIP3    H144483   1.749   0.682  14.890  0.4922 -0.8769 -1.5314
 7664TIP3    H244484   1.895   0.700  14.853  0.5506 -1.1866 -1.4548
 7665TIP3   OH244485   4.768   1.987  13.676 -0.2300  0.3988 -0.2224
 7665TIP3    H144486   4.809   1.902  13.658 -2.3305 -1.1602  2.1005
 7665TIP3    H244487   4.840   2.042  13.707  0.5394 -1.7317  1.9739
 7666TIP3   OH244488   4.054   1.212   1.206  0.4253 -0.5339 -0.1149
 7666TIP3    H144489   4.026   1.174   1.289 -0.8419  1.3541  0.3415
 7666TIP3    H244490   3.974   1.220   1.154  1.0181 -0.5536 -1.0548
 7667TIP3   OH244491   3.464   2.499   4.672 -0.2666  0.8145 -0.0306
 7667TIP3    H144492   3.538   2.559   4.661 -1.1242  1.8886 -0.1192
 7667TIP3    H244493   3.390   2.545   4.630 -0.5551 -1.0918 -1.6774
 7668TIP3   OH244494   2.471   5.107  14.342  0.3989  0.3137  0.4587
 7668TIP3    H144495   2.476   5.072  14.254  0.0584  2.0366 -0.2673
 7668TIP3    H244496   2.465   5.030  14.399  0.3137 -0.7903 -1.0337
 7669TIP3   OH244497   2.388   0.807   0.283  0.0244  0.2945  0.1114
 7669TIP3    H144498   2.366   0.832   0.193 -1.8518 -0.8994  0.2349
 7669TIP3    H244499   2.468   0.754   0.274 -1.1505 -1.3282 -1.0443
 7670TIP3   OH244500   0.294   5.153  13.045 -0.0108  0.0457 -0.3771
 7670TIP3    H144501   0.365   5.102  13.083  0.6547  0.6394 -0.8032
 7670TIP3    H244502   0.338   5.229  13.006 -0.7448 -0.2916 -1.8614
 7671TIP3   OH244503   6.801   4.377   1.416 -0.1551  0.3132  0.2256
 7671TIP3    H144504   6.860   4.307   1.390 -1.0352  0.0905 -1.2556
 7671TIP3    H244505   6.788   4.428   1.336 -2.1733  0.1949  0.4468
 7672TIP3   OH244506   3.504   2.033  13.147 -0.2901 -0.6184 -0.0610
 7672TIP3    H144507   3.471   1.986  13.071  0.1304  0.3844 -0.8791
 7672TIP3    H244508   3.426   2.067  13.191 -0.3879  1.4834 -1.8118
 7673TIP3   OH244509   1.290   1.635   3.234 -0.5731  0.4950 -0.0287
 7673TIP3    H144510   1.208   1.613   3.190 -0.5777  1.8726 -0.7346
 7673TIP3    H244511   1.351   1.653   3.163 -0.2533  1.5571  0.5030
 7674TIP3   OH244512   4.440   6.621  11.410  0.2490 -0.1566  0.3297
 7674TIP3    H144513   4.456   6.636  11.316  0.9633 -0.5864  0.3736
 7674TIP3    H244514   4.375   6.551  11.412  1.5456 -1.3823  0.1581
 7675TIP3   OH244515   6.320   5.081   5.084  0.0519 -0.1645 -0.2506
 7675TIP3    H144516   6.292   5.157   5.135  0.3402  0.0534 -0.4182
 7675TIP3    H244517   6.312   5.108   4.992  0.4661 -0.2239 -0.3065
 7676TIP3   OH244518   3.435   0.645   6.587 -0.0421 -0.6911  0.6503
 7676TIP3    H144519   3.401   0.555   6.590  0.2175 -0.7847  0.7382
 7676TIP3    H244520   3.529   0.635   6.577  0.0827 -0.4326  1.6057
 7677TIP3   OH244521   2.267   2.599   2.610  0.3529  0.0010  0.0588
 7677TIP3    H144522   2.305   2.516   2.580 -0.2179  0.4025 -1.8302
 7677TIP3    H244523   2.177   2.577   2.631  0.0600  0.2346 -0.9259
 7678TIP3   OH244524   1.087   6.018   3.072 -0.7071  0.1190 -0.0764
 7678TIP3    H144525   1.082   5.930   3.033  0.6828  0.2608 -0.6344
 7678TIP3    H244526   1.105   6.076   2.998  0.6895  0.5613  0.5760
 7679TIP3   OH244527   5.055   0.558  16.519 -1.0343 -0.4600 -0.0136
 7679TIP3    H144528   4.982   0.601  16.563 -0.6646  2.0655 -1.7518
 7679TIP3    H244529   5.126   0.623  16.521  1.0853 -2.7046  1.2927
 7680TIP3   OH244530   4.998   4.816   4.921 -0.1964 -0.4436  0.0057
 7680TIP3    H144531   5.064   4.794   4.856  0.4209  2.7192 -0.5186
 7680TIP3    H244532   4.922   4.845   4.871 -0.2171  0.6368  0.6217
 7681TIP3   OH244533   6.745   4.623   0.541 -0.2221 -0.1591  0.3932
 7681TIP3    H144534   6.750   4.718   0.543 -1.2499 -0.1185  0.9449
 7681TIP3    H244535   6.824   4.594   0.586  0.9702  0.4061 -1.2529
 7682TIP3   OH244536   4.474   0.437  15.014  0.1531 -0.5751  0.0132
 7682TIP3    H144537   4.489   0.486  15.095  0.3532  0.4429 -0.6385
 7682TIP3    H244538   4.543   0.467  14.955 -1.2131  0.1925 -1.2155
 7683TIP3   OH244539   4.434   1.479  15.583  0.0271 -0.1352 -0.3143
 7683TIP3    H144540   4.387   1.448  15.505 -0.2516  2.1534 -1.0900
 7683TIP3    H244541   4.390   1.561  15.607  2.0252  0.7376  0.4712
 7684TIP3   OH244542   2.476   3.517   4.063  0.5323 -0.1931  0.2060
 7684TIP3    H144543   2.523   3.433   4.070 -1.7974 -1.3800  2.1201
 7684TIP3    H244544   2.461   3.544   4.154 -1.2671  0.8469 -0.3760
 7685TIP3   OH244545   6.353   5.531   0.554  0.0598 -0.0273  0.0012
 7685TIP3    H144546   6.325   5.439   0.560  1.6220 -0.5997 -1.0075
 7685TIP3    H244547   6.442   5.530   0.590  0.5731  0.8583 -1.2447
 7686TIP3   OH244548   2.977   5.690   4.311  0.2104 -0.0450  0.0805
 7686TIP3    H144549   3.063   5.704   4.271 -0.3455 -0.2625 -1.2258
 7686TIP3    H244550   2.951   5.776   4.343 -0.4683  0.7095 -2.3836
 7687TIP3   OH244551   3.374   1.570   3.073 -0.4988 -0.0170 -0.3927
 7687TIP3    H144552   3.282   1.592   3.082 -0.4938  0.4546 -1.4865
 7687TIP3    H244553   3.392   1.510   3.146 -2.0629 -1.3730 -1.1029
 7688TIP3   OH244554   3.412   3.295   6.325  0.5947  1.0004  0.3274
 7688TIP3    H144555   3.432   3.213   6.281  1.6041  0.8111  1.1086
 7688TIP3    H244556   3.468   3.360   6.282  0.0886  1.2061 -0.0240
 7689TIP3   OH244557   1.473   6.774   1.009 -0.1642  0.1758  0.1185
 7689TIP3    H144558   1.554   6.805   1.049 -0.9384  0.8044  1.1887
 7689TIP3    H244559   1.489   6.681   0.992  0.4300  0.0747  1.2164
 7690TIP3   OH244560   6.102   2.700  12.456  0.2145 -0.5369  0.7229
 7690TIP3    H144561   6.192   2.668  12.454 -0.2666 -1.8410 -1.3040
 7690TIP3    H244562   6.049   2.624  12.479 -0.4573  0.0503  1.1513
 7691TIP3   OH244563   0.817   1.806  16.203  0.7031 -0.0564 -0.0293
 7691TIP3    H144564   0.881   1.856  16.254  0.9772  0.2493 -0.6716
 7691TIP3    H244565   0.808   1.723  16.250  0.5618  0.4312  0.8038
 7692TIP3   OH244566   2.580   0.037  11.403  0.1985  0.1604 -0.0752
 7692TIP3    H144567   2.676   0.043  11.398  0.2318  1.0988  1.3470
 7692TIP3    H244568   2.549   0.108  11.347  0.3540  0.8907  0.7657
 7693TIP3   OH244569   2.514   2.398   6.376 -0.1233  0.2994  0.9786
 7693TIP3    H144570   2.501   2.333   6.445  0.4844  0.4740  1.2630
 7693TIP3    H244571   2.521   2.481   6.422  1.7359  0.2480  0.8393
 7694TIP3   OH244572   6.579   1.822  16.807  0.2100 -0.2324 -0.1330
 7694TIP3    H144573   6.520   1.771  16.862  0.4137 -0.3705 -0.0397
 7694TIP3    H244574   6.559   1.913  16.828  0.8611 -0.2958  0.7796
 7695TIP3   OH244575   5.419   1.718  13.081 -0.6001  0.1494 -0.2369
 7695TIP3    H144576   5.457   1.692  13.164 -0.6163 -0.1581 -0.3232
 7695TIP3    H244577   5.414   1.813  13.085  2.7347  0.4446 -1.3064
 7696TIP3   OH244578   2.269   1.384  12.596 -0.1087  0.1463 -0.3615
 7696TIP3    H144579   2.249   1.406  12.505 -1.3805  2.4380  0.4368
 7696TIP3    H244580   2.302   1.465  12.634  1.5747 -1.0957  0.9511
 7697TIP3   OH244581   4.996   0.176  11.063 -0.0850  0.0062 -0.9604
 7697TIP3    H144582   5.051   0.194  11.139 -0.2020  1.1246 -1.1296
 7697TIP3    H244583   5.018   0.086  11.038  1.2776  0.2701 -0.7212
 7698TIP3   OH244584   1.885   5.629  13.114 -0.1340 -0.6512 -0.1280
 7698TIP3    H144585   1.814   5.571  13.085 -1.3767  1.1881 -0.8361
 7698TIP3    H244586   1.963   5.573  13.112 -1.6470 -2.9210  1.4072
 7699TIP3   OH244587   2.372   0.323  11.071 -0.2529  0.6132 -0.5081
 7699TIP3    H144588   2.324   0.392  11.118  1.5047  0.2282  1.9556
 7699TIP3    H244589   2.307   0.253  11.059 -1.3366  1.6345 -0.7005
 7700TIP3   OH244590   3.727   0.227   2.288  0.0512 -0.1425 -0.4559
 7700TIP3    H144591   3.653   0.222   2.349  1.3119 -0.8497  1.0701
 7700TIP3    H244592   3.776   0.305   2.317  2.5650 -2.4101  1.7526
 7701TIP3   OH244593   0.512   3.960   3.215 -0.3811  0.0705  0.5973
 7701TIP3    H144594   0.444   3.914   3.265 -2.2675  0.4858 -1.5162
 7701TIP3    H244595   0.471   4.042   3.188  0.5073 -0.2092 -1.7551
 7702TIP3   OH244596   3.718   2.187  13.268  0.0681  0.2653  0.2076
 7702TIP3    H144597   3.806   2.222  13.281  0.6668 -0.5374 -1.5197
 7702TIP3    H244598   3.708   2.181  13.173 -1.0953 -1.5139  0.4038
 7703TIP3   OH244599   6.081   5.903   4.228  0.2167 -0.3698 -0.0160
 7703TIP3    H144600   6.084   5.999   4.228 -1.5705 -0.2899 -1.5775
 7703TIP3    H244601   6.023   5.881   4.301  1.6766 -0.3268  1.1778
 7704TIP3   OH244602   4.186   6.504  11.142 -0.2134  0.3779  0.5082
 7704TIP3    H144603   4.248   6.575  11.128  1.8341 -1.6523 -1.1844
 7704TIP3    H244604   4.108   6.546  11.177  1.3645  3.2766  0.6480
 7705TIP3   OH244605   5.941   6.212  12.090  0.2222  0.4694  0.2304
 7705TIP3    H144606   6.018   6.246  12.136  0.3304 -1.0965  1.2619
 7705TIP3    H244607   5.964   6.215  11.998  1.8331 -0.6843  0.5783
 7706TIP3   OH244608   2.625   2.033   3.830  0.3893 -0.1161  0.5949
 7706TIP3    H144609   2.551   2.017   3.888  0.8482 -1.1127  0.9094
 7706TIP3    H244610   2.659   2.119   3.857  0.2078 -0.2864  1.3764
 7707TIP3   OH244611   3.180   3.172   1.236  0.0642 -0.5013 -0.1291
 7707TIP3    H144612   3.266   3.131   1.231  0.6331  0.5534  0.6696
 7707TIP3    H244613   3.153   3.160   1.327 -0.1811  0.0307 -0.1245
 7708TIP3   OH244614   5.442   1.451   4.938  0.5447 -0.0965  0.3843
 7708TIP3    H144615   5.501   1.392   4.985  0.8773 -0.4383 -0.4438
 7708TIP3    H244616   5.500   1.518   4.901  0.1050  1.0956  1.8080
 7709TIP3   OH244617   1.149   5.074   1.474 -0.4020  0.3699  0.3795
 7709TIP3    H144618   1.138   5.135   1.547 -2.4047  0.0483  0.3579
 7709TIP3    H244619   1.114   4.991   1.506 -1.5908  0.3009 -1.0530
 7710TIP3   OH244620   1.196   3.512   6.015 -0.1563  0.4416 -0.4556
 7710TIP3    H144621   1.148   3.584   6.054  1.9740  1.7676 -0.2230
 7710TIP3    H244622   1.211   3.451   6.087  1.5594  1.6843  0.2408
 7711TIP3   OH244623   0.869   6.380  16.479  0.2064 -0.1012  0.1700
 7711TIP3    H144624   0.831   6.455  16.524 -1.2066 -1.3008  1.0627
 7711TIP3    H244625   0.919   6.417  16.407 -0.9795  1.6651  0.2283
 7712TIP3   OH244626   0.610   4.171   1.718 -0.0433  0.2410  0.2345
 7712TIP3    H144627   0.594   4.180   1.812 -0.4617 -0.0677  0.1968
 7712TIP3    H244628   0.540   4.223   1.677 -0.0251  0.1512  0.0894
 7713TIP3   OH244629   2.560   0.603   3.719 -0.3854 -0.4858  0.2983
 7713TIP3    H144630   2.597   0.591   3.807 -2.9316  0.9459  1.6046
 7713TIP3    H244631   2.634   0.588   3.660  1.2663 -1.9738  2.6448
 7714TIP3   OH244632   2.673   3.055  16.600 -0.4201 -0.2136  0.6454
 7714TIP3    H144633   2.657   3.131  16.657 -0.6919  1.3355 -1.4202
 7714TIP3    H244634   2.606   2.992  16.625 -0.3405  0.3233  2.2467
 7715TIP3   OH244635   1.114   1.856   5.728  0.0010 -0.1836  0.0060
 7715TIP3    H144636   1.044   1.814   5.779 -1.5459 -1.2923 -2.8832
 7715TIP3    H244637   1.194   1.817   5.762 -1.0697 -1.7862  0.8070
 7716TIP3   OH244638   1.439   5.486  13.773  0.6143  0.1413 -0.2121
 7716TIP3    H144639   1.396   5.427  13.712  3.9075 -0.9740 -1.5858
 7716TIP3    H244640   1.421   5.574  13.739 -0.7337 -0.2768 -0.5910
 7717TIP3   OH244641   0.446   5.058   0.613  0.5225 -0.4934  0.0476
 7717TIP3    H144642   0.472   5.003   0.539  0.3818 -1.5981  0.8009
 7717TIP3    H244643   0.352   5.073   0.599  0.7836  0.4491 -0.7254
 7718TIP3   OH244644   0.350   2.015  13.571 -0.0996 -0.1271  0.3251
 7718TIP3    H144645   0.303   2.097  13.556 -0.5551 -0.7203 -1.7481
 7718TIP3    H244646   0.433   2.027  13.524 -0.2149 -0.8797 -0.0721
 7719TIP3   OH244647   2.309   3.788  13.342 -0.1814  0.5814  0.8901
 7719TIP3    H144648   2.307   3.805  13.437 -1.1059  1.5737  0.6946
 7719TIP3    H244649   2.318   3.875  13.303 -2.4185  0.4178 -0.0382
 7720TIP3   OH244650   0.537   1.741   3.435 -0.3715  0.0641 -0.4453
 7720TIP3    H144651   0.625   1.778   3.446  0.2046 -1.5178  0.4493
 7720TIP3    H244652   0.553   1.653   3.399 -1.5136 -0.6866  0.8488
 7721TIP3   OH244653   5.388   0.669   5.726 -0.2641  0.1268 -0.6756
 7721TIP3    H144654   5.347   0.592   5.765 -1.6865  0.2969 -1.7688
 7721TIP3    H244655   5.481   0.657   5.740 -0.6472 -0.5767  1.3533
 7722TIP3   OH244656   5.808   4.569   5.486 -0.5129 -0.5285 -0.3804
 7722TIP3    H144657   5.859   4.623   5.426 -0.7481  0.0585 -0.0628
 7722TIP3    H244658   5.796   4.486   5.441 -1.6798  0.2920 -1.6319
 7723TIP3   OH244659   2.408   6.193   5.943 -0.0614  0.1425 -0.4306
 7723TIP3    H144660   2.376   6.136   6.013  0.0302 -0.1206 -0.6009
 7723TIP3    H244661   2.492   6.226   5.976 -0.0301  0.0386 -0.4059
 7724TIP3   OH244662   6.605   3.665   0.701  0.3252  0.0067 -0.0628
 7724TIP3    H144663   6.566   3.712   0.628  2.2298  1.5049 -0.1387
 7724TIP3    H244664   6.661   3.599   0.660  0.8582  0.3944  0.0377
 7725TIP3   OH244665   5.784   2.804   6.503  0.2078  0.0196  0.7473
 7725TIP3    H144666   5.711   2.820   6.563  0.0170  2.3380 -0.0321
 7725TIP3    H244667   5.749   2.822   6.416  1.4739  0.4188  0.2970
 7726TIP3   OH244668   0.766   1.416  14.030 -0.1728 -0.3670 -0.1910
 7726TIP3    H144669   0.743   1.439  13.940 -1.6181 -1.7429 -0.1925
 7726TIP3    H244670   0.862   1.418  14.031 -0.1698  1.3220 -1.2980
 7727TIP3   OH244671   3.170   4.100  14.198 -0.2036 -0.4561  0.5129
 7727TIP3    H144672   3.076   4.120  14.197 -0.2078 -0.4777  0.4580
 7727TIP3    H244673   3.182   4.046  14.276  0.0117  0.7318  1.3117
 7728TIP3   OH244674   4.001   4.397  11.987 -0.5668  0.2530 -0.0282
 7728TIP3    H144675   4.074   4.368  11.932 -0.7732 -0.5218  0.0971
 7728TIP3    H244676   4.035   4.475  12.032  0.1112  0.0275 -0.1316
 7729TIP3   OH244677   1.894   2.465   0.506 -0.0713  0.3474 -0.0507
 7729TIP3    H144678   1.816   2.520   0.506  0.6135  1.3503  0.9737
 7729TIP3    H244679   1.962   2.520   0.465  0.3652 -0.1038  0.0607
 7730TIP3   OH244680   5.956   2.424  11.267  1.1818 -0.1286  0.3452
 7730TIP3    H144681   6.034   2.437  11.213  0.8905  1.3163  0.2656
 7730TIP3    H244682   5.883   2.454  11.213  0.5664 -1.4122  0.4458
 7731TIP3   OH244683   0.363   0.096  12.601 -0.1138 -0.9199  0.0352
 7731TIP3    H144684   0.284   0.041  12.593 -0.8521  0.3330 -1.7792
 7731TIP3    H244685   0.428   0.050  12.548 -0.2280 -0.9200 -0.1077
 7732TIP3   OH244686   3.831   1.059  11.336 -0.0067  0.5353 -0.0742
 7732TIP3    H144687   3.762   1.043  11.400 -0.5928  1.6859 -0.3898
 7732TIP3    H244688   3.800   1.134  11.286  0.4740 -0.3169 -1.6790
 7733TIP3   OH244689   1.213   6.697   1.934 -0.1313  0.2576  0.3835
 7733TIP3    H144690   1.219   6.602   1.947  0.1862 -0.0235 -1.5812
 7733TIP3    H244691   1.259   6.735   2.009 -0.2937 -1.1355  1.2110
 7734TIP3   OH244692   3.585   4.884  15.508 -0.1007 -0.1181 -0.3922
 7734TIP3    H144693   3.517   4.851  15.567 -0.7175 -2.8672 -2.5316
 7734TIP3    H244694   3.665   4.839  15.536  0.2191  0.7715  0.1525
 7735TIP3   OH244695   0.977   2.835  11.572 -0.3054 -0.4091  0.2587
 7735TIP3    H144696   0.920   2.778  11.623 -0.0069  0.6258  1.7704
 7735TIP3    H244697   1.065   2.819  11.607 -0.2301  1.0129  0.7491
 7736TIP3   OH244698   5.274   2.504   4.760 -0.1136 -0.0726 -0.2322
 7736TIP3    H144699   5.216   2.528   4.688  1.0209  1.4830 -0.6400
 7736TIP3    H244700   5.278   2.582   4.815  0.6929 -0.5489  0.3986
 7737TIP3   OH244701   6.094   3.524   6.778  0.9051 -0.1834  0.2378
 7737TIP3    H144702   6.100   3.463   6.851 -1.1939  0.6008  1.1077
 7737TIP3    H244703   6.084   3.469   6.700 -0.8817 -0.9642  1.0033
 7738TIP3   OH244704   0.840   2.702  14.302  0.6102 -0.4119  0.0504
 7738TIP3    H144705   0.879   2.704  14.215  1.1173 -2.0275  0.2257
 7738TIP3    H244706   0.767   2.640  14.294  0.2131 -0.0172  0.5944
 7739TIP3   OH244707   4.806   5.771   2.421 -0.0178 -0.0280  0.3687
 7739TIP3    H144708   4.742   5.749   2.354 -1.8430 -0.3994  2.2067
 7739TIP3    H244709   4.755   5.783   2.501  1.9275  2.0560  1.3607
 7740TIP3   OH244710   0.327   6.370  11.355 -0.5675 -0.1029  0.9197
 7740TIP3    H144711   0.382   6.311  11.303 -1.7470  0.3748 -0.9051
 7740TIP3    H244712   0.390   6.424  11.404  0.5531 -1.1657  0.6755
 7741TIP3   OH244713   4.940   2.816   4.912  0.3265  0.2002  0.1806
 7741TIP3    H144714   5.002   2.875   4.869  1.1162 -0.5712  0.2197
 7741TIP3    H244715   4.974   2.806   5.001  0.1518 -0.2235  0.2037
 7742TIP3   OH244716   3.122   3.521  15.524 -0.0710 -0.2194 -0.1717
 7742TIP3    H144717   3.051   3.464  15.553 -0.0682 -0.6529 -1.0175
 7742TIP3    H244718   3.164   3.473  15.453  1.2838 -0.1217  0.5532
 7743TIP3   OH244719   3.525   0.996  15.223  0.0259  0.7400 -0.6251
 7743TIP3    H144720   3.469   0.963  15.153  1.6962 -0.6736 -1.3132
 7743TIP3    H244721   3.593   1.046  15.178  1.4821 -0.7129 -0.0900
 7744TIP3   OH244722   5.665   1.455  14.577  0.1863 -0.3482 -0.1766
 7744TIP3    H144723   5.664   1.478  14.484 -0.7012  0.5044  0.0394
 7744TIP3    H244724   5.573   1.444  14.601  0.4129 -0.6672  0.5846
 7745TIP3   OH244725   4.648   4.725  12.629 -0.0544 -0.0747 -0.8958
 7745TIP3    H144726   4.715   4.792  12.617  0.5352 -0.2831  0.9785
 7745TIP3    H244727   4.608   4.714  12.543  1.5366  0.8807 -1.7738
 7746TIP3   OH244728   4.952   0.324   2.351 -0.8345 -0.3993 -0.1201
 7746TIP3    H144729   4.971   0.371   2.432 -1.2010  0.8580 -0.7491
 7746TIP3    H244730   4.867   0.282   2.367 -0.9305 -0.1118  0.1339
 7747TIP3   OH244731   0.060   0.848   3.310 -0.0652 -0.1110  0.0092
 7747TIP3    H144732   0.082   0.762   3.274  1.5522  0.0459  0.5621
 7747TIP3    H244733  -0.014   0.831   3.368 -0.9321 -0.8175 -1.2774
 7748TIP3   OH244734   2.417   2.328  13.911  0.2247  0.6149  0.1420
 7748TIP3    H144735   2.413   2.355  13.819  0.1163  0.2495  0.0426
 7748TIP3    H244736   2.467   2.398  13.953 -0.9127  1.5063  0.0648
 7749TIP3   OH244737   5.028   1.645   2.396 -0.4103 -1.0350 -0.2552
 7749TIP3    H144738   5.115   1.606   2.400 -0.2044 -0.7097 -1.3295
 7749TIP3    H244739   5.010   1.674   2.486  0.9097 -0.4040 -0.1798
 7750TIP3   OH244740   0.226   2.876   1.207 -0.0603 -0.1400  0.1883
 7750TIP3    H144741   0.294   2.919   1.156  0.1903  0.2418  0.8344
 7750TIP3    H244742   0.247   2.783   1.201  0.0937 -0.0796 -0.2174
 7751TIP3   OH244743   0.331   6.751   3.654 -0.1387  0.2944  0.1146
 7751TIP3    H144744   0.249   6.799   3.638  0.0873  0.6145 -0.0730
 7751TIP3    H244745   0.321   6.716   3.742  0.5075  2.3042  0.9992
 7752TIP3   OH244746   1.872   1.705   3.378 -0.7501 -0.4553  0.0402
 7752TIP3    H144747   1.812   1.632   3.362  0.5001 -1.1620 -1.6519
 7752TIP3    H244748   1.908   1.688   3.465  0.4662 -2.5714 -0.8444
 7753TIP3   OH244749   4.673   5.958   1.120 -0.1923 -0.1050  0.4073
 7753TIP3    H144750   4.676   5.885   1.182 -0.0880  0.5444  1.1780
 7753TIP3    H244751   4.719   5.925   1.042  1.9875 -0.0502  1.6274
 7754TIP3   OH244752   0.226   5.580   2.122 -0.0356  0.2286  0.0302
 7754TIP3    H144753   0.292   5.629   2.171  0.2176 -1.2017  1.1316
 7754TIP3    H244754   0.159   5.560   2.187 -0.3262 -0.5508 -0.5137
 7755TIP3   OH244755   1.814   1.764   0.636 -0.4086  0.1831  0.1620
 7755TIP3    H144756   1.835   1.676   0.607 -0.1506 -0.3293  1.8578
 7755TIP3    H244757   1.733   1.786   0.590 -0.4589 -0.9192 -0.2777
 7756TIP3   OH244758   2.037   6.180   0.947  0.0688 -0.2732  0.2027
 7756TIP3    H144759   2.010   6.091   0.924 -0.6887 -0.2452  0.9484
 7756TIP3    H244760   1.960   6.217   0.990 -0.2955  1.3920 -1.8053
 7757TIP3   OH244761   5.582   0.256  16.253 -0.4636 -0.4150  0.1291
 7757TIP3    H144762   5.677   0.267  16.245 -0.6259  0.8886 -0.1650
 7757TIP3    H244763   5.570   0.214  16.338  0.4747 -2.2125 -0.5811
 7758TIP3   OH244764   4.223   1.772  12.125  0.4511 -0.1490  0.2032
 7758TIP3    H144765   4.307   1.816  12.137  0.7326 -0.7560  0.4943
 7758TIP3    H244766   4.169   1.804  12.198  0.9838 -1.0419  1.0065
 7759TIP3   OH244767   4.151   0.690   4.205 -0.4611  0.1499 -0.0724
 7759TIP3    H144768   4.164   0.667   4.297  2.5518 -1.6451 -0.8709
 7759TIP3    H244769   4.209   0.765   4.191 -1.5043  0.9202 -0.3402
 7760TIP3   OH244770   5.085   1.361   5.878 -0.0394 -0.1155 -0.8324
 7760TIP3    H144771   5.015   1.301   5.905  1.1113 -0.8505  0.5660
 7760TIP3    H244772   5.123   1.392   5.960  1.0845  0.5139 -1.5809
 7761TIP3   OH244773   5.357   0.841   4.803  0.0727  0.3325 -0.2460
 7761TIP3    H144774   5.361   0.754   4.843  0.2749  1.0277  1.3059
 7761TIP3    H244775   5.438   0.848   4.752 -0.3813 -0.7291 -1.1315
 7762TIP3   OH244776   0.265   5.856   4.601  0.1941 -0.0834  0.2185
 7762TIP3    H144777   0.264   5.812   4.686 -0.1742  1.0645  0.8077
 7762TIP3    H244778   0.349   5.830   4.562  1.0645  0.6428  1.5855
 7763TIP3   OH244779   4.621   3.483   3.927 -0.0927 -0.0604 -0.3297
 7763TIP3    H144780   4.621   3.533   3.845 -0.1744  0.2059 -0.1681
 7763TIP3    H244781   4.553   3.417   3.915 -1.0927  0.8639  0.0529
 7764TIP3   OH244782   2.481   1.070   3.643  0.4370  0.4098 -0.1278
 7764TIP3    H144783   2.437   1.047   3.562 -0.1940 -3.1575  1.1258
 7764TIP3    H244784   2.414   1.111   3.697 -0.4351 -1.5875  0.3514
 7765TIP3   OH244785   2.812   6.176   1.054  0.0449  0.3308  0.0080
 7765TIP3    H144786   2.781   6.243   0.992  0.1884 -1.0927 -1.6219
 7765TIP3    H244787   2.754   6.186   1.129 -2.4928 -0.2507 -1.7796
 7766TIP3   OH244788   0.946   4.453  12.394  0.7674  0.4671  0.1991
 7766TIP3    H144789   1.022   4.461  12.337 -0.4782  2.8419 -1.2058
 7766TIP3    H244790   0.979   4.476  12.482  2.0392 -0.2800 -0.0728
 7767TIP3   OH244791   0.975   2.092  14.795 -0.2048 -0.4023  0.0888
 7767TIP3    H144792   0.945   2.006  14.766 -0.3645  0.1174 -1.3227
 7767TIP3    H244793   0.907   2.122  14.855 -0.2961 -1.1335  0.3550
 7768TIP3   OH244794   5.772   4.829   0.033 -0.4803 -0.2231  0.0687
 7768TIP3    H144795   5.817   4.903  -0.009  2.0591 -1.8626 -0.1926
 7768TIP3    H244796   5.739   4.776  -0.039 -1.5404  0.1659  0.2489
 7769TIP3   OH244797   4.471   5.164  13.390 -0.2511  0.7057 -1.0082
 7769TIP3    H144798   4.402   5.138  13.450 -2.7375  0.4251 -3.8719
 7769TIP3    H244799   4.505   5.081  13.356 -0.0368  0.8993 -1.2727
 7770TIP3   OH244800   2.016   5.715  16.114 -0.1027  0.5883  0.0680
 7770TIP3    H144801   2.036   5.626  16.144 -1.1292  0.1895 -0.4013
 7770TIP3    H244802   1.936   5.739  16.162 -0.2987  0.9301 -0.4241
 7771TIP3   OH244803   3.598   5.400  12.551 -0.7135  0.2710  0.0127
 7771TIP3    H144804   3.685   5.441  12.548  0.2723 -1.8253 -1.4616
 7771TIP3    H244805   3.592   5.363  12.639 -0.0180  0.2540  0.0579
 7772TIP3   OH244806   3.481   6.549   5.180  0.0733  0.0231  0.2563
 7772TIP3    H144807   3.482   6.496   5.260  2.0667 -0.4645 -0.0603
 7772TIP3    H244808   3.465   6.485   5.109 -2.4822  0.5582  0.3003
 7773TIP3   OH244809   0.798   4.252  14.897 -0.3268  0.1144  0.5286
 7773TIP3    H144810   0.733   4.273  14.964 -1.7657 -1.3964 -0.3376
 7773TIP3    H244811   0.826   4.337  14.863 -0.9194  0.8278  1.7936
 7774TIP3   OH244812   3.901   2.932   2.908 -0.1709 -0.0640  0.5583
 7774TIP3    H144813   3.841   2.858   2.923  0.8835 -0.2471  4.7207
 7774TIP3    H244814   3.975   2.893   2.861 -0.4292 -1.3182  1.1508
 7775TIP3   OH244815   0.980   6.095  17.035 -0.1621 -0.0866 -0.3914
 7775TIP3    H144816   1.040   6.164  17.003 -0.6597  0.5967  0.1397
 7775TIP3    H244817   0.895   6.139  17.042 -0.4764 -0.7587 -0.0160
 7776TIP3   OH244818   6.621   1.364   6.629  0.0384  0.0398 -0.0519
 7776TIP3    H144819   6.688   1.418   6.589  0.2358  0.9627  1.4953
 7776TIP3    H244820   6.620   1.390   6.721 -1.0675 -1.3569  0.3579
 7777TIP3   OH244821   6.549   3.731  10.465 -0.0350  0.5011 -0.3080
 7777TIP3    H144822   6.460   3.697  10.474  0.0275  0.0012 -1.4727
 7777TIP3    H244823   6.585   3.728  10.553 -0.9299  0.0472  0.0510
 7778TIP3   OH244824   2.840   1.811   6.277 -0.1682 -0.3717 -0.1707
 7778TIP3    H144825   2.765   1.790   6.222  0.5447 -0.3734 -1.1668
 7778TIP3    H244826   2.803   1.832   6.362 -1.3544  0.3746 -0.8627
 7779TIP3   OH244827   6.706   3.354   2.052 -0.2054  0.5247  0.3718
 7779TIP3    H144828   6.709   3.341   2.147 -0.1954  0.0710  0.3132
 7779TIP3    H244829   6.613   3.364   2.032 -0.0249  3.1514  0.7458
 7780TIP3   OH244830   1.947   2.525  12.846 -0.3670 -0.1632 -0.0136
 7780TIP3    H144831   1.903   2.451  12.804 -0.9516 -0.0736  0.4444
 7780TIP3    H244832   1.894   2.544  12.923 -0.5893  1.1531 -0.4908
 7781TIP3   OH244833   5.522   2.979  13.662 -0.3159 -0.0985 -0.7147
 7781TIP3    H144834   5.510   2.936  13.577  0.1120 -1.8453  0.0734
 7781TIP3    H244835   5.439   3.025  13.677 -1.5359 -2.2102 -0.7614
 7782TIP3   OH244836   1.617   6.507  11.289  0.1074  0.0296 -0.3766
 7782TIP3    H144837   1.711   6.521  11.290  0.0380  0.5023 -0.2116
 7782TIP3    H244838   1.602   6.436  11.352  0.0748  1.8312  1.7159
 7783TIP3   OH244839   1.845   4.550  16.550  0.3872  0.1454  0.2577
 7783TIP3    H144840   1.755   4.519  16.547 -0.2592  1.6794  2.4805
 7783TIP3    H244841   1.896   4.481  16.507 -2.2409  0.9962 -4.5805
 7784TIP3   OH244842   5.155   4.227   5.749  0.2710 -0.4042  0.6116
 7784TIP3    H144843   5.181   4.254   5.836  0.0264  0.2117  0.5021
 7784TIP3    H244844   5.128   4.309   5.706 -1.3799 -0.9432  0.5790
 7785TIP3   OH244845   2.869   0.727   2.610  0.2416  0.1689  0.1805
 7785TIP3    H144846   2.825   0.813   2.610 -0.1254 -0.0196  0.3456
 7785TIP3    H244847   2.884   0.707   2.702  0.8357  0.3125  0.1168
 7786TIP3   OH244848   4.619   1.242   4.259  0.3964  0.6421 -0.3996
 7786TIP3    H144849   4.528   1.261   4.239  0.3594 -0.2541 -1.1413
 7786TIP3    H244850   4.637   1.160   4.213  0.9516 -0.3312  1.4927
 7787TIP3   OH244851   1.523   4.173   5.469  0.0441 -0.4329 -0.5038
 7787TIP3    H144852   1.582   4.098   5.470  0.7135  0.0892  0.3109
 7787TIP3    H244853   1.556   4.230   5.538  0.0522  0.9999 -1.6560
 7788TIP3   OH244854   3.340   5.088   2.572 -0.3134 -0.5262 -1.0371
 7788TIP3    H144855   3.259   5.081   2.623  0.7594 -2.6100  0.4647
 7788TIP3    H244856   3.341   5.010   2.517  1.1243 -1.0397 -0.3238
 7789TIP3   OH244857   1.276   0.876   5.112  0.1608  0.2596  0.3360
 7789TIP3    H144858   1.358   0.910   5.078  1.0590 -0.3119  1.8715
 7789TIP3    H244859   1.238   0.826   5.040 -0.1292  2.6669 -1.2364
 7790TIP3   OH244860   6.442   1.669  15.013 -0.0493 -0.1287 -0.8534
 7790TIP3    H144861   6.446   1.734  14.943 -2.7016  0.4963 -0.4520
 7790TIP3    H244862   6.532   1.664  15.046  0.8345  0.9838 -2.9931
 7791TIP3   OH244863   5.232   1.676   2.171 -0.7489 -0.4911  0.3100
 7791TIP3    H144864   5.270   1.659   2.258  0.9099  1.2756 -0.0182
 7791TIP3    H244865   5.160   1.737   2.188 -0.2534  0.0663  0.4280
 7792TIP3   OH244866   5.872   4.895   3.690  0.0526  0.6588  0.5738
 7792TIP3    H144867   5.798   4.895   3.630  0.7943  2.0121 -0.3567
 7792TIP3    H244868   5.833   4.902   3.777 -0.9400  0.5381  0.1416
 7793TIP3   OH244869   4.044   4.602  13.861 -0.1714  0.1260 -0.1036
 7793TIP3    H144870   4.051   4.649  13.944  0.7401  1.7362 -1.0509
 7793TIP3    H244871   4.081   4.662  13.796  1.6143 -2.1517 -1.2933
 7794TIP3   OH244872   0.900   6.209   0.269 -0.2794  0.5599 -0.0252
 7794TIP3    H144873   0.937   6.234   0.354  2.6999  2.2595 -1.7124
 7794TIP3    H244874   0.954   6.135   0.241 -0.3378  0.9106 -1.0640
 7795TIP3   OH244875   2.261   6.108   2.517 -0.5092 -0.1981 -0.2330
 7795TIP3    H144876   2.322   6.080   2.586 -0.0585  1.1957 -0.0475
 7795TIP3    H244877   2.317   6.148   2.451 -1.1247  0.1476 -0.5467
 7796TIP3   OH244878   2.888   4.388   1.442  0.3646  0.6025  0.0889
 7796TIP3    H144879   2.873   4.422   1.530  1.0382 -0.2547  0.5436
 7796TIP3    H244880   2.900   4.294   1.454  0.2820  0.4539 -0.9420
 7797TIP3   OH244881   1.114   6.790  10.964  0.4287 -0.3339 -0.0566
 7797TIP3    H144882   1.175   6.829  10.901 -0.4818  1.0686 -0.0852
 7797TIP3    H244883   1.125   6.842  11.043  1.2328 -1.8015  0.8143
 7798TIP3   OH244884   3.760   2.636  16.711 -0.5839 -0.0664 -0.3171
 7798TIP3    H144885   3.808   2.707  16.668  0.8302 -2.3927 -2.7969
 7798TIP3    H244886   3.697   2.607  16.645 -1.3774 -0.8845  0.7935
 7799TIP3   OH244887   4.962   4.245  11.015 -0.6723 -0.3300 -0.7840
 7799TIP3    H144888   4.923   4.328  11.043 -2.0145 -1.1286 -0.1990
 7799TIP3    H244889   5.052   4.267  10.993 -0.2167  0.7943  1.9574
 7800TIP3   OH244890   5.410   0.840   2.219  0.1698 -0.4465  0.7143
 7800TIP3    H144891   5.456   0.804   2.143  1.2771  2.8255 -0.2345
 7800TIP3    H244892   5.317   0.826   2.200  0.3564  1.4044 -1.8745
 7801TIP3   OH244893   0.692   2.028  13.023  0.2260 -0.5527  0.6847
 7801TIP3    H144894   0.777   2.066  13.045  1.1609 -2.6875  0.9224
 7801TIP3    H244895   0.657   2.085  12.955  2.3761 -0.2810 -0.2479
 7802TIP3   OH244896   1.541   4.104  14.605  0.1168 -0.0192 -0.0844
 7802TIP3    H144897   1.541   4.030  14.666  0.6824  0.0192 -0.0288
 7802TIP3    H244898   1.482   4.168  14.645 -0.3985 -0.4528 -0.1504
 7803TIP3   OH244899   4.961   5.605  15.827  0.2780  0.2113  0.1919
 7803TIP3    H144900   4.908   5.628  15.751 -0.2251  0.5115  0.6290
 7803TIP3    H244901   4.914   5.642  15.902  1.0479  0.3955  0.6008
 7804TIP3   OH244902   2.296   2.611  16.955 -0.6835  0.9313  0.6158
 7804TIP3    H144903   2.359   2.555  17.001 -0.8296  0.5223  0.3222
 7804TIP3    H244904   2.263   2.671  17.022  0.5002  1.5816  0.6367
 7805TIP3   OH244905   6.244   2.236   2.302 -0.0967 -0.4445 -0.3348
 7805TIP3    H144906   6.314   2.216   2.365 -0.9323 -1.9828  0.1584
 7805TIP3    H244907   6.289   2.252   2.220  0.7977 -2.6285 -0.3125
 7806TIP3   OH244908   0.543   6.791  16.022  0.1779  0.5614  0.3739
 7806TIP3    H144909   0.519   6.702  15.996 -0.3477  0.6714  0.4745
 7806TIP3    H244910   0.478   6.847  15.980 -0.4343  0.7703  1.5943
 7807TIP3   OH244911   6.710   5.414  13.658  0.3414 -0.5753  0.0491
 7807TIP3    H144912   6.668   5.399  13.742 -0.6626 -1.9260 -0.6786
 7807TIP3    H244913   6.642   5.452  13.603  0.7405 -0.5337 -0.4188
 7808TIP3   OH244914   2.048   4.327  13.944 -0.0652 -0.5643 -0.1158
 7808TIP3    H144915   1.968   4.371  13.917 -0.2917 -1.3605 -0.7463
 7808TIP3    H244916   2.022   4.273  14.018  0.0849 -0.1396  0.2543
 7809TIP3   OH244917   3.643   5.635  16.189 -0.0855  0.0856 -0.6272
 7809TIP3    H144918   3.724   5.638  16.240 -0.1556  1.5588 -0.5976
 7809TIP3    H244919   3.658   5.564  16.126  0.1092 -1.5899  1.2293
 7810TIP3   OH244920   3.815   0.920   2.769  0.1585 -0.6489 -0.3669
 7810TIP3    H144921   3.890   0.916   2.829  0.2601  1.1318 -0.3307
 7810TIP3    H244922   3.854   0.921   2.682  0.2077  0.5116 -0.3421
 7811TIP3   OH244923   5.093   5.435   5.275 -0.3839  0.0770  0.6165
 7811TIP3    H144924   5.131   5.389   5.350  1.4585  0.5523  0.0169
 7811TIP3    H244925   5.099   5.528   5.299 -1.1552  0.1556  0.5028
 7812TIP3   OH244926   0.763   0.749  14.474  0.1414 -0.2741 -0.2976
 7812TIP3    H144927   0.686   0.703  14.507 -0.6895  2.5914  2.0042
 7812TIP3    H244928   0.825   0.747  14.547  0.2326  1.7850 -0.2701
 7813TIP3   OH244929   3.248   5.307  13.811  0.3909  0.0384 -0.2495
 7813TIP3    H144930   3.248   5.398  13.782 -3.0616  0.2185  0.1208
 7813TIP3    H244931   3.295   5.308  13.894  3.8526  0.7585 -2.1331
 7814TIP3   OH244932   5.719   6.059   6.255 -0.0975 -0.1447  0.2540
 7814TIP3    H144933   5.791   6.103   6.210  0.8743 -0.5877  1.3601
 7814TIP3    H244934   5.667   6.129   6.293 -0.1530  0.1662 -0.3855
 7815TIP3   OH244935   4.663   1.570   2.203  0.4556  0.2829 -0.1885
 7815TIP3    H144936   4.603   1.497   2.187 -0.6782  0.8887  1.1378
 7815TIP3    H244937   4.633   1.639   2.144  0.7298  0.1151 -0.5263
 7816TIP3   OH244938   6.209   0.740   0.154 -0.8659 -0.4046 -0.0105
 7816TIP3    H144939   6.216   0.817   0.212  1.8893 -0.0016 -0.8128
 7816TIP3    H244940   6.220   0.776   0.066  0.4765 -1.6985 -0.3878
 7817TIP3   OH244941   0.154   1.192  15.067  0.1070 -0.0487 -0.1677
 7817TIP3    H144942   0.075   1.140  15.086 -0.4404  1.0573  0.6405
 7817TIP3    H244943   0.179   1.167  14.978 -0.5250 -1.2083 -0.0347
 7818TIP3   OH244944   1.108   1.471  13.452 -0.0120 -0.1393  0.1411
 7818TIP3    H144945   1.152   1.489  13.369  1.0184 -1.0280  0.4746
 7818TIP3    H244946   1.015   1.464  13.429  0.2235 -0.0312 -0.8755
 7819TIP3   OH244947   4.274   1.957   4.127  0.4238 -0.2478 -0.2379
 7819TIP3    H144948   4.186   1.952   4.163  1.4236  0.0513  2.3143
 7819TIP3    H244949   4.312   2.036   4.166  2.7295 -1.8109  0.8068
 7820TIP3   OH244950   4.615   3.319  11.346 -0.7148 -0.2559  0.2254
 7820TIP3    H144951   4.667   3.394  11.316  0.1976 -0.5843  0.9503
 7820TIP3    H244952   4.677   3.265  11.395 -2.1195  0.2653  2.6791
 7821TIP3   OH244953   2.637   1.792   5.357 -0.1050  0.3647 -0.5022
 7821TIP3    H144954   2.566   1.852   5.334  0.1407  0.4309 -1.0869
 7821TIP3    H244955   2.690   1.841   5.420  0.0356  0.7282 -0.8970
 7822TIP3   OH244956   4.014   3.462  16.652 -0.7082  0.6349  0.2753
 7822TIP3    H144957   3.985   3.460  16.561 -1.4441  0.9598  0.4996
 7822TIP3    H244958   3.995   3.551  16.682  1.9117  1.3377 -0.0169
 7823TIP3   OH244959   5.482   3.873   6.497 -0.1131  0.0683  0.1250
 7823TIP3    H144960   5.560   3.876   6.551 -0.2970 -1.0141  0.4584
 7823TIP3    H244961   5.504   3.925   6.420  0.3666  1.1068  0.9468
 7824TIP3   OH244962   1.182   2.323   4.036 -0.0994 -0.0313  0.0887
 7824TIP3    H144963   1.233   2.386   3.985  1.0507 -1.7014 -0.8582
 7824TIP3    H244964   1.113   2.295   3.977  0.3252 -0.8250 -0.0385
 7825TIP3   OH244965   4.230   1.632  14.842 -0.6604 -0.3607  0.2494
 7825TIP3    H144966   4.194   1.559  14.792 -1.3419  0.2694 -0.2018
 7825TIP3    H244967   4.316   1.648  14.805 -0.3933 -1.1289  0.5461
 7826TIP3   OH244968   4.446   3.277   1.905  0.2546  0.0449 -0.0325
 7826TIP3    H144969   4.517   3.330   1.941  0.6556  0.8507 -1.9783
 7826TIP3    H244970   4.367   3.329   1.922  0.2389 -0.3014  1.0463
 7827TIP3   OH244971   5.781   0.340   0.514 -0.3098  0.1257 -0.4879
 7827TIP3    H144972   5.793   0.433   0.534 -0.3259  0.1967 -0.8008
 7827TIP3    H244973   5.841   0.324   0.441  1.3712 -0.6443  1.0093
 7828TIP3   OH244974   5.517   2.681   4.245  0.6453 -0.4588  0.1148
 7828TIP3    H144975   5.600   2.676   4.199  0.2526  0.5810 -0.7282
 7828TIP3    H244976   5.537   2.729   4.326  0.8901 -0.3442 -0.0149
 7829TIP3   OH244977   5.324   5.991   2.359 -0.0308 -0.5104  0.1025
 7829TIP3    H144978   5.359   5.933   2.426 -1.1323 -0.9202  0.3230
 7829TIP3    H244979   5.248   6.032   2.400 -0.6992 -0.7466 -0.8862
 7830TIP3   OH244980   4.399   4.243   4.148 -0.4995  0.0144  0.1600
 7830TIP3    H144981   4.482   4.288   4.163 -0.5867  0.4282 -0.6014
 7830TIP3    H244982   4.357   4.293   4.078 -0.5149 -1.3377 -0.8202
 7831TIP3   OH244983   1.724   5.229   2.730  0.5086  0.1656  0.2226
 7831TIP3    H144984   1.725   5.309   2.782  0.3740  1.3991 -1.6195
 7831TIP3    H244985   1.811   5.191   2.742  0.5076  0.4887  1.2579
 7832TIP3   OH244986   2.069   2.523   2.853  0.4097  0.5170  0.0855
 7832TIP3    H144987   2.115   2.530   2.936  2.1956  1.0636 -0.9210
 7832TIP3    H244988   1.979   2.498   2.877  1.0934 -0.0734  2.1032
 7833TIP3   OH244989   0.543   3.142   6.064  0.3794  0.6666  0.0019
 7833TIP3    H144990   0.585   3.066   6.024  1.6931 -0.7388  3.8235
 7833TIP3    H244991   0.462   3.108   6.101  0.7027  1.2263  1.2438
 7834TIP3   OH244992   0.381   0.725  10.656  0.7905 -0.4187 -0.4812
 7834TIP3    H144993   0.413   0.815  10.655  0.3060 -0.2579 -2.1614
 7834TIP3    H244994   0.334   0.714  10.573 -1.3465 -1.4373  0.8008
 7835TIP3   OH244995   6.274   1.934   4.857 -0.1282 -0.2931  0.1708
 7835TIP3    H144996   6.182   1.933   4.830  0.0062  0.2376 -0.3110
 7835TIP3    H244997   6.303   2.023   4.840  0.6381 -0.6169 -0.2298
 7836TIP3   OH244998   2.177   0.874   2.830  0.0552 -1.1041  0.0726
 7836TIP3    H144999   2.167   0.929   2.752  2.2010 -0.6654  0.0768
 7836TIP3    H245000   2.087   0.859   2.860 -0.5996  4.0027  1.1731
 7837TIP3   OH245001   2.786   1.345  14.838 -0.2195  0.4780 -0.5015
 7837TIP3    H145002   2.811   1.416  14.897 -0.2905  0.4302 -0.4143
 7837TIP3    H245003   2.823   1.266  14.877 -0.2937  0.4419 -0.5038
 7838TIP3   OH245004   4.097   6.556   1.190  0.0459  0.1462 -0.2558
 7838TIP3    H145005   4.175   6.567   1.135  0.3852  1.3153  0.4284
 7838TIP3    H245006   4.130   6.564   1.279 -0.6938 -0.4641  0.0681
 7839TIP3   OH245007   1.130   5.729   1.565  0.1885 -0.4183  0.5738
 7839TIP3    H145008   1.084   5.653   1.600  0.7749 -0.3204  1.5653
 7839TIP3    H245009   1.066   5.770   1.506 -0.5061 -1.0739  0.8575
 7840TIP3   OH245010   3.776   0.570   2.164  0.6283  0.2855 -0.0857
 7840TIP3    H145011   3.826   0.564   2.082  1.7332  0.0706  0.6010
 7840TIP3    H245012   3.809   0.498   2.218 -0.3714  0.1950  0.4045
 7841TIP3   OH245013   5.061   3.843  11.894  0.1435  0.6403 -0.4089
 7841TIP3    H145014   5.045   3.896  11.972 -2.3615  1.3781 -1.4011
 7841TIP3    H245015   5.042   3.754  11.921  0.4266  0.7476  0.1500
 7842TIP3   OH245016   4.326   1.362  12.325 -0.1890  0.2302 -0.2281
 7842TIP3    H145017   4.372   1.280  12.339 -0.5682 -0.6260 -3.4365
 7842TIP3    H245018   4.238   1.347  12.360  0.5827  0.3184  1.8131
 7843TIP3   OH245019   5.322   5.587  16.596 -0.1622  0.4314 -0.3383
 7843TIP3    H145020   5.349   5.496  16.599 -1.0350  0.1956  0.7052
 7843TIP3    H245021   5.229   5.585  16.616 -0.1964  1.5522 -0.3447
 7844TIP3   OH245022   3.865   5.185  12.871 -0.6841  1.0218 -0.0056
 7844TIP3    H145023   3.906   5.267  12.843  2.3062 -0.2748  0.3559
 7844TIP3    H245024   3.895   5.174  12.962 -2.7546  0.5443  0.6487
 7845TIP3   OH245025   5.569   3.706  16.111 -0.3366 -0.1125  0.6570
 7845TIP3    H145026   5.644   3.670  16.158 -0.5853 -0.2026  0.9883
 7845TIP3    H245027   5.583   3.681  16.020 -0.4439 -0.9347  0.8655
 7846TIP3   OH245028   5.254   0.086   1.145 -0.2243  0.0494 -0.2749
 7846TIP3    H145029   5.181   0.143   1.122 -1.0278 -0.9856 -0.3501
 7846TIP3    H245030   5.216   0.021   1.205  0.4241 -0.9895 -0.9675
 7847TIP3   OH245031   5.722   6.211   4.327  0.0845  0.0108  0.7244
 7847TIP3    H145032   5.692   6.145   4.388  0.1426 -0.2272  0.4943
 7847TIP3    H245033   5.685   6.185   4.243 -1.9036  1.5872  1.0686
 7848TIP3   OH245034   5.409   2.375  15.416 -0.3047  1.1858  0.0538
 7848TIP3    H145035   5.348   2.434  15.372 -0.2033  0.0444 -1.6259
 7848TIP3    H245036   5.490   2.382  15.366 -0.7673 -1.5963 -1.1775
 7849TIP3   OH245037   0.100   3.221   0.836  0.4947 -0.4086  0.4480
 7849TIP3    H145038   0.072   3.309   0.860 -1.0644 -0.7539 -0.1007
 7849TIP3    H245039   0.168   3.235   0.770  0.5025  0.3904  0.6147
 7850TIP3   OH245040   6.034   3.315  14.227  0.3449 -0.1342  0.0481
 7850TIP3    H145041   5.966   3.313  14.296  0.8622 -2.6786  0.5514
 7850TIP3    H245042   5.985   3.323  14.146 -0.6591 -2.7610  0.3551
 7851TIP3   OH245043   5.502   0.673  13.899  0.3165 -0.0319  0.3196
 7851TIP3    H145044   5.427   0.729  13.923  1.5517  2.0128 -0.4787
 7851TIP3    H245045   5.471   0.625  13.823 -0.3857  0.3647  0.3411
 7852TIP3   OH245046   1.495   2.892   0.712 -0.2141 -0.0137 -0.2816
 7852TIP3    H145047   1.515   2.958   0.647 -0.1306  1.3549  1.1019
 7852TIP3    H245048   1.570   2.833   0.711  0.3325  0.6788 -0.5752
 7853TIP3   OH245049   6.431   4.716   4.962  0.0243  0.6090 -0.1892
 7853TIP3    H145050   6.434   4.736   4.868 -1.0962  2.5403  0.1609
 7853TIP3    H245051   6.486   4.783   5.002 -1.2686  1.1287  0.7361
 7854TIP3   OH245052   5.318   6.377   5.494 -0.7075 -0.3036 -0.1235
 7854TIP3    H145053   5.356   6.453   5.449  0.5768 -0.4286  0.7515
 7854TIP3    H245054   5.228   6.373   5.460 -0.2479  0.5447 -1.4980
 7855TIP3   OH245055   5.235   1.323  16.138  0.1648 -0.6271  0.2432
 7855TIP3    H145056   5.313   1.354  16.092  0.3336 -1.5603 -0.1272
 7855TIP3    H245057   5.173   1.396  16.132  0.8824 -0.0122  0.2354
 7856TIP3   OH245058   3.227   4.528   1.543 -0.2762 -0.0475  0.6428
 7856TIP3    H145059   3.181   4.580   1.609 -1.7729 -1.5781  0.8498
 7856TIP3    H245060   3.178   4.542   1.462 -1.1414 -1.6562  0.8550
 7857TIP3   OH245061   0.568   0.817   1.479  0.2860  0.1579 -0.0846
 7857TIP3    H145062   0.583   0.908   1.506 -2.2466  0.3341  0.9202
 7857TIP3    H245063   0.560   0.769   1.562 -0.2574 -0.6522 -0.6018
 7858TIP3   OH245064   5.753   1.486  13.035 -0.5344  0.5638 -0.6119
 7858TIP3    H145065   5.678   1.478  13.094 -0.5121  1.8072 -0.4076
 7858TIP3    H245066   5.829   1.490  13.092 -0.2070 -1.5279 -0.8437
 7859TIP3   OH245067   0.920   0.890   4.625  0.3906 -0.6406  0.5454
 7859TIP3    H145068   0.851   0.916   4.565  0.3600 -0.8747  0.4789
 7859TIP3    H245069   1.002   0.914   4.581  0.4230 -2.1007 -0.2115
 7860TIP3   OH245070   2.698   0.908  16.497 -0.1108 -0.5466 -0.6910
 7860TIP3    H145071   2.603   0.905  16.508 -0.0690  0.5837  0.0380
 7860TIP3    H245072   2.715   0.852  16.421 -1.5706  0.8333 -2.0855
 7861TIP3   OH245073   5.608   1.654  12.440  0.0555  0.2898 -0.2002
 7861TIP3    H145074   5.583   1.745  12.456  0.4114  0.1894  1.0462
 7861TIP3    H245075   5.704   1.655  12.444  0.1138  0.0782 -1.4600
 7862TIP3   OH245076   3.562   3.848   0.751  0.3399 -0.0121  0.1048
 7862TIP3    H145077   3.577   3.842   0.845 -0.1306 -2.2447  0.0469
 7862TIP3    H245078   3.467   3.854   0.743  0.4886  3.5936 -0.0971
 7863TIP3   OH245079   0.563   4.912  14.985  0.2581 -0.2973 -0.3169
 7863TIP3    H145080   0.611   4.841  15.026 -0.7203 -0.1817  1.0691
 7863TIP3    H245081   0.605   4.992  15.018 -1.0056 -0.1905  1.0938
 7864TIP3   OH245082   3.821   3.731   1.236  0.0127 -0.1982 -0.1134
 7864TIP3    H145083   3.765   3.655   1.257 -0.3313 -0.4089 -1.7420
 7864TIP3    H245084   3.889   3.695   1.180 -0.1303  0.6923 -0.8542
 7865TIP3   OH245085   6.475   1.849   4.656  0.0450  0.5593  0.3330
 7865TIP3    H145086   6.450   1.815   4.742 -1.7948  0.1077 -0.3538
 7865TIP3    H245087   6.444   1.940   4.657  2.1704  1.3109  1.0099
 7866TIP3   OH245088   3.748   3.820   2.296  0.5581  0.4236 -0.8164
 7866TIP3    H145089   3.685   3.872   2.346 -1.7345 -0.9616 -2.1831
 7866TIP3    H245090   3.765   3.743   2.351  1.3047  0.9318 -0.3230
 7867TIP3   OH245091   6.808   6.718   4.618 -0.3959  0.6519 -0.3151
 7867TIP3    H145092   6.781   6.810   4.614  1.3395  1.2786  1.1864
 7867TIP3    H245093   6.808   6.698   4.712  0.2225 -0.5650 -0.5678
 7868TIP3   OH245094   3.214   4.832  13.044  0.1259 -0.2030 -0.3550
 7868TIP3    H145095   3.294   4.884  13.037  0.5078 -0.8684 -1.0811
 7868TIP3    H245096   3.244   4.747  13.078 -0.2175 -0.5647 -0.9479
 7869TIP3   OH245097   5.637   6.023   1.026  0.2173 -0.9041  0.0099
 7869TIP3    H145098   5.717   6.069   1.002 -0.2294 -0.6982 -1.1117
 7869TIP3    H245099   5.582   6.090   1.067  0.6569 -1.0747  0.9010
 7870TIP3   OH245100   4.746   5.907   2.138  0.0173 -0.1411  0.5048
 7870TIP3    H145101   4.719   5.978   2.080 -1.1576 -0.4989  0.6055
 7870TIP3    H245102   4.670   5.849   2.143  0.2641 -0.3644  2.0080
 7871TIP3   OH245103   4.185   2.001   4.832  0.1390 -0.0397  0.0276
 7871TIP3    H145104   4.243   2.053   4.776  0.0534  1.1493  1.0189
 7871TIP3    H245105   4.103   2.050   4.832 -0.6156 -1.2939 -0.7204
 7872TIP3   OH245106   6.379   4.854  12.094 -0.1436  0.8381  0.9059
 7872TIP3    H145107   6.388   4.886  12.004 -1.0987 -0.0312  0.4882
 7872TIP3    H245108   6.403   4.761  12.089  0.7396  1.0201  1.7315
 7873TIP3   OH245109   3.073   6.757  14.566 -0.4196  0.3671 -0.5074
 7873TIP3    H145110   3.053   6.726  14.654 -1.6964  0.5561 -0.7176
 7873TIP3    H245111   3.159   6.719  14.546 -0.2847  0.0375  0.6762
 7874TIP3   OH245112   6.664   4.414  17.132  0.1148 -0.6639  0.7619
 7874TIP3    H145113   6.665   4.320  17.119 -0.8692 -0.4029 -1.4235
 7874TIP3    H245114   6.755   4.441  17.122  0.3636 -1.3511  1.1705
 7875TIP3   OH245115   2.947   4.357  12.916  0.3366 -0.1138  0.1646
 7875TIP3    H145116   2.868   4.373  12.864 -0.3608 -1.2568  0.8647
 7875TIP3    H245117   2.919   4.297  12.985  1.8904 -0.7521  0.2484
 7876TIP3   OH245118   1.138   4.315   2.816 -0.2513 -0.1051 -0.2691
 7876TIP3    H145119   1.050   4.280   2.834 -1.3200  2.1485 -0.9226
 7876TIP3    H245120   1.122   4.401   2.777  2.2900  0.7378  0.4546
 7877TIP3   OH245121   5.234   2.374   0.009 -0.0309 -0.2023 -0.7947
 7877TIP3    H145122   5.258   2.450   0.062 -0.6521 -1.7975  1.8599
 7877TIP3    H245123   5.316   2.325  -0.001  0.3365  0.6969 -2.3741
 7878TIP3   OH245124   4.717   3.821  14.916  0.1115  0.7408 -0.5116
 7878TIP3    H145125   4.807   3.838  14.890  0.0265  0.9395 -0.6803
 7878TIP3    H245126   4.689   3.747  14.862  0.8142 -0.6122  0.9477
 7879TIP3   OH245127   5.782   2.326  15.507 -0.1880 -0.3957 -0.2500
 7879TIP3    H145128   5.834   2.393  15.551  0.0731 -0.3967 -0.5515
 7879TIP3    H245129   5.746   2.371  15.430  0.2364 -0.6751 -0.6187
 7880TIP3   OH245130   2.204   6.530   1.492  0.1061 -0.8597  0.0689
 7880TIP3    H145131   2.146   6.601   1.466 -0.6214 -1.1228  0.9295
 7880TIP3    H245132   2.289   6.572   1.507  0.3397 -0.5858 -1.8971
 7881TIP3   OH245133   5.197   4.261  17.050 -0.5198  0.4201 -0.4808
 7881TIP3    H145134   5.172   4.170  17.036 -1.6702  1.0211 -2.3955
 7881TIP3    H245135   5.273   4.274  16.993  0.7219  0.1977  1.0828
 7882TIP3   OH245136   4.817   2.457  13.037 -0.0053  0.3239  0.2810
 7882TIP3    H145137   4.906   2.427  13.023 -0.4758 -0.4691 -1.1014
 7882TIP3    H245138   4.815   2.546  13.002  0.0962  0.1274 -0.2252
 7883TIP3   OH245139   6.131   6.586  12.282 -0.3292 -0.1018 -0.5692
 7883TIP3    H145140   6.048   6.623  12.252 -1.6793 -1.4865  1.2997
 7883TIP3    H245141   6.130   6.496  12.247 -0.6477 -0.8173  1.2095
 7884TIP3   OH245142   3.790   3.045  16.868 -0.5877 -0.0899 -0.0431
 7884TIP3    H145143   3.751   2.992  16.798 -2.1619 -1.8310  2.0604
 7884TIP3    H245144   3.784   2.989  16.945 -0.1363  2.3083  1.7700
 7885TIP3   OH245145   0.771   2.621  13.034  0.4363 -0.2366 -0.3081
 7885TIP3    H145146   0.844   2.572  12.996  0.6111 -0.4819  0.3319
 7885TIP3    H245147   0.714   2.641  12.959  0.8475 -0.5783 -0.7181
 7886TIP3   OH245148   2.587   4.657  10.734  0.4643  0.4088 -0.0497
 7886TIP3    H145149   2.664   4.674  10.680 -0.1964  2.3286 -0.4261
 7886TIP3    H245150   2.514   4.654  10.672  0.3044 -2.3347  0.1834
 7887TIP3   OH245151   1.191   0.599  16.167 -0.7014 -0.3424 -0.0914
 7887TIP3    H145152   1.101   0.625  16.148 -0.2043  0.3718 -1.5186
 7887TIP3    H245153   1.245   0.670  16.130  0.5033 -1.4409 -0.4697
 7888TIP3   OH245154   6.718   5.061   6.023 -0.4861  0.2796  0.1611
 7888TIP3    H145155   6.727   5.141   5.971  2.0591 -0.5292 -0.7130
 7888TIP3    H245156   6.750   5.086   6.110 -2.2175  0.9094  0.6337
 7889TIP3   OH245157   2.608   3.212  14.412  0.4459  0.4652 -0.2067
 7889TIP3    H145158   2.521   3.219  14.451 -0.7466 -0.5009 -2.5367
 7889TIP3    H245159   2.661   3.168  14.478 -1.6057 -1.5326  0.1824
 7890TIP3   OH245160   6.558   3.022  11.462  0.6727  0.5945  0.5232
 7890TIP3    H145161   6.512   3.103  11.441  0.5807  0.2504 -0.6752
 7890TIP3    H245162   6.599   2.996  11.379  2.1914  0.3646  1.3302
 7891TIP3   OH245163   0.618   6.625   2.236  0.0042  0.9528  0.4039
 7891TIP3    H145164   0.572   6.541   2.232  1.3289  0.2000  0.8099
 7891TIP3    H245165   0.569   6.682   2.177  0.1461 -0.6262 -1.2603
 7892TIP3   OH245166   5.262   6.482  13.818 -0.0712  0.6920 -0.5776
 7892TIP3    H145167   5.287   6.393  13.792  0.1594  0.6264 -0.1334
 7892TIP3    H245168   5.331   6.538  13.784 -0.0023  0.6537 -0.5015
 7893TIP3   OH245169   3.805   6.277  10.718 -0.3560  0.6625 -0.2406
 7893TIP3    H145170   3.836   6.204  10.772  1.3423  1.3120 -0.2847
 7893TIP3    H245171   3.761   6.235  10.644  1.2159 -0.3599 -0.6374
 7894TIP3   OH245172   5.410   1.192   3.806 -0.1301  0.2073  0.0238
 7894TIP3    H145173   5.495   1.230   3.786 -0.7135  1.7536  0.3624
 7894TIP3    H245174   5.371   1.253   3.869 -0.4023 -1.8503  1.9482
 7895TIP3   OH245175   4.367   5.619   1.118  0.3100  0.4325  0.2637
 7895TIP3    H145176   4.287   5.590   1.075  0.3435  2.1975 -1.0589
 7895TIP3    H245177   4.426   5.544   1.111 -1.5817 -1.3096  2.3049
 7896TIP3   OH245178   1.620   0.184   0.071 -0.0231  0.0580 -0.1253
 7896TIP3    H145179   1.527   0.160   0.062 -0.5388 -0.1183  4.4042
 7896TIP3    H245180   1.667   0.102   0.058 -0.7811 -0.5250  0.6686
 7897TIP3   OH245181   0.800   6.054   6.048 -0.1459 -0.1015 -0.5664
 7897TIP3    H145182   0.810   5.961   6.029  1.7183  0.1354 -0.9160
 7897TIP3    H245183   0.788   6.059   6.143 -1.1914 -0.7628 -0.6691
 7898TIP3   OH245184   5.756   6.504  14.812  0.0689  0.2021 -0.2903
 7898TIP3    H145185   5.706   6.562  14.755 -1.4145  0.6530  1.4161
 7898TIP3    H245186   5.796   6.440  14.753 -2.0233  0.2097 -1.7833
 7899TIP3   OH245187   5.637   2.490   0.487 -0.0586 -0.3760 -0.2367
 7899TIP3    H145188   5.587   2.428   0.434 -0.9029 -0.7792  1.0025
 7899TIP3    H245189   5.679   2.436   0.554 -0.5044  0.3324  0.6286
 7900TIP3   OH245190   6.569   6.605  13.025  0.3986  0.4672  0.5402
 7900TIP3    H145191   6.550   6.682  13.079  1.0036  0.7393  0.3738
 7900TIP3    H245192   6.608   6.543  13.085 -0.7241  0.0210  0.8188
 7901TIP3   OH245193   4.667   5.745   3.355 -0.3836  0.2479  0.2092
 7901TIP3    H145194   4.749   5.696   3.362 -0.6321 -0.0699  0.9283
 7901TIP3    H245195   4.669   5.806   3.428  1.5368  3.8005 -2.6749
 7902TIP3   OH245196   1.048   3.808  12.601 -0.5727  0.0484 -0.7883
 7902TIP3    H145197   1.094   3.724  12.601 -2.9129 -1.2699  0.2774
 7902TIP3    H245198   0.980   3.798  12.534 -2.3136  0.2488  0.9067
 7903TIP3   OH245199   5.511   0.865   4.400  0.1401 -0.5411 -0.1461
 7903TIP3    H145200   5.495   0.918   4.322 -0.7170 -4.6321 -2.9168
 7903TIP3    H245201   5.430   0.816   4.413 -1.5126  3.3335  6.2665
 7904TIP3   OH245202   0.645   2.960  13.762 -0.2316 -0.0329 -0.3865
 7904TIP3    H145203   0.562   2.946  13.808  0.3103  0.1574  0.6841
 7904TIP3    H245204   0.626   3.026  13.696 -0.8147  0.3617  0.1744
 7905TIP3   OH245205   1.438   1.416   4.367 -0.1103 -0.2916 -0.4798
 7905TIP3    H145206   1.351   1.402   4.330  0.1187 -2.8588 -0.1570
 7905TIP3    H245207   1.497   1.369   4.307  0.9764  0.7568 -0.2616
 7906TIP3   OH245208   1.470   6.391   6.151  0.1824  0.2128  0.1513
 7906TIP3    H145209   1.549   6.338   6.153  0.0854 -0.0137 -1.8052
 7906TIP3    H245210   1.446   6.396   6.059 -0.6109  2.4718  0.4540
 7907TIP3   OH245211   0.314   0.946  15.078  0.3009 -0.4404  0.5956
 7907TIP3    H145212   0.259   0.897  15.016 -0.3264 -1.9869  2.3261
 7907TIP3    H245213   0.366   1.004  15.023 -0.2380 -1.7888 -1.3886
 7908TIP3   OH245214   0.014   5.558  12.900 -0.7346 -0.1854 -0.1311
 7908TIP3    H145215   0.016   5.524  12.811  1.1095 -0.1282 -0.1394
 7908TIP3    H245216   0.013   5.481  12.956  1.6688 -0.3129 -0.1803
 7909TIP3   OH245217   0.805   1.735   4.652  0.0588 -0.3344 -0.3915
 7909TIP3    H145218   0.759   1.800   4.706  0.0510  0.1619 -1.0011
 7909TIP3    H245219   0.799   1.769   4.563 -0.9335 -1.7399 -0.8712
 7910TIP3   OH245220   5.692   5.776  14.308  0.0517 -0.2332  0.5896
 7910TIP3    H145221   5.736   5.691  14.301 -0.5736 -0.6198  1.3261
 7910TIP3    H245222   5.622   5.762  14.371 -1.3204  0.3089 -0.7871
 7911TIP3   OH245223   6.559   4.767  14.801  0.0916  0.0695  0.2678
 7911TIP3    H145224   6.643   4.723  14.812 -0.2491 -0.1190  2.3668
 7911TIP3    H245225   6.578   4.841  14.744  1.7877  0.2942  1.0849
 7912TIP3   OH245226   6.507   6.748   2.675 -0.0552 -0.1489 -0.1095
 7912TIP3    H145227   6.506   6.667   2.727 -0.7071  0.7744  1.3544
 7912TIP3    H245228   6.521   6.818   2.739 -0.6758  1.0028 -1.1968
 7913TIP3   OH245229   2.259   3.468   1.311  0.0759 -0.3059  0.2870
 7913TIP3    H145230   2.185   3.433   1.361 -0.2037 -0.7170 -0.4101
 7913TIP3    H245231   2.235   3.453   1.219  0.0610  1.5035 -0.0203
 7914TIP3   OH245232   6.369   3.420  13.992 -0.1564 -0.7766  0.2629
 7914TIP3    H145233   6.295   3.420  13.932  0.0193 -2.4227  0.0129
 7914TIP3    H245234   6.420   3.496  13.968 -0.8558 -0.6098 -0.7145
 7915TIP3   OH245235   5.307   1.992   1.746  0.3036  0.1859 -0.2751
 7915TIP3    H145236   5.301   1.916   1.689 -0.6070  1.0457 -1.3565
 7915TIP3    H245237   5.261   2.061   1.699 -2.4648  0.3449  2.4777
 7916TIP3   OH245238   4.319   3.195  14.908 -0.7001 -0.4464  0.0749
 7916TIP3    H145239   4.338   3.257  14.979 -0.7944  3.3781 -3.1279
 7916TIP3    H245240   4.224   3.192  14.904 -0.7238  1.8009 -1.8797
 7917TIP3   OH245241   3.864   5.521   1.490  0.4709  0.1920  0.0857
 7917TIP3    H145242   3.891   5.460   1.421  0.1961  0.6411 -0.4191
 7917TIP3    H245243   3.839   5.601   1.443 -1.8378 -0.2400  0.5306
 7918TIP3   OH245244   4.258   0.028   2.172 -0.1876 -0.1051  0.3291
 7918TIP3    H145245   4.302   0.082   2.238  0.5753  0.6964 -0.8090
 7918TIP3    H245246   4.323   0.019   2.103 -1.6956  0.8028 -1.2363
 7919TIP3   OH245247   3.079   0.826   0.311 -0.1845 -0.0467 -0.5483
 7919TIP3    H145248   3.123   0.829   0.226  2.0945 -2.4204  0.4773
 7919TIP3    H245249   3.122   0.893   0.363  1.3255 -1.4195  0.0114
 7920TIP3   OH245250   5.440   5.762  13.186 -0.1367  0.1557 -0.1915
 7920TIP3    H145251   5.477   5.813  13.114  0.6981  0.5646  0.4985
 7920TIP3    H245252   5.469   5.673  13.171  0.2873  0.2942 -0.2158
 7921TIP3   OH245253   6.070   1.397   2.300 -0.1235  0.0566  0.1297
 7921TIP3    H145254   5.976   1.407   2.288  0.1544  1.2339 -1.3218
 7921TIP3    H245255   6.080   1.331   2.369 -2.0086  0.6190  0.9555
 7922TIP3   OH245256   5.661   5.144  16.328  0.1693 -0.2144  0.1733
 7922TIP3    H145257   5.616   5.062  16.305 -0.0750  0.2083 -0.8709
 7922TIP3    H245258   5.616   5.174  16.407 -1.5453  0.3061 -0.9632
 7923TIP3   OH245259   1.411   2.221  12.212 -0.6152  0.3268 -0.3488
 7923TIP3    H145260   1.462   2.152  12.255 -1.0647 -0.3330 -0.8472
 7923TIP3    H245261   1.338   2.174  12.171 -1.3255  1.1934 -0.0905
 7924TIP3   OH245262   6.254   5.890  14.306  0.1027 -0.7044  0.1066
 7924TIP3    H145263   6.288   5.826  14.369 -1.9664 -1.2465  0.7074
 7924TIP3    H245264   6.295   5.866  14.223  0.8249 -1.6219  0.7237
 7925TIP3   OH245265   4.872   5.613  16.141  0.0526  0.1318  0.3759
 7925TIP3    H145266   4.855   5.632  16.233  1.2123 -1.5164  0.9612
 7925TIP3    H245267   4.957   5.568  16.141 -1.1523 -2.2488 -1.2074
 7926TIP3   OH245268   4.732   4.690  14.436 -0.2098  0.2536  0.3192
 7926TIP3    H145269   4.659   4.655  14.384  0.8504 -1.4570 -0.0609
 7926TIP3    H245270   4.708   4.672  14.527  0.0811 -1.0138  0.1551
 7927TIP3   OH245271   5.544   0.027  15.869  0.0076  0.4072  0.1936
 7927TIP3    H145272   5.571  -0.065  15.870 -0.2471  0.3112 -0.8036
 7927TIP3    H245273   5.455   0.025  15.832  0.4010  1.1406 -0.8142
 7928TIP3   OH245274   1.426   0.768  13.286  0.6834 -0.2696  1.0220
 7928TIP3    H145275   1.404   0.774  13.193 -2.2304 -0.2290  1.6813
 7928TIP3    H245276   1.520   0.789  13.289  1.1893 -1.6956 -2.0500
 7929TIP3   OH245277   0.017   5.769  14.328  0.3571 -0.3894  0.5376
 7929TIP3    H145278   0.018   5.826  14.406 -2.1973  0.7701 -0.2167
 7929TIP3    H245279  -0.060   5.714  14.340  0.0668 -0.3434 -1.0561
 7930TIP3   OH245280   4.355   6.556  13.063 -0.4609 -0.2177  0.2098
 7930TIP3    H145281   4.433   6.516  13.025 -0.1297  0.0321  0.6339
 7930TIP3    H245282   4.362   6.649  13.040 -1.3301 -0.4134 -0.9489
 7931TIP3   OH245283   5.614   0.714  17.120 -0.2812  0.1002 -0.2762
 7931TIP3    H145284   5.617   0.684  17.029 -0.2597  1.3344 -0.6951
 7931TIP3    H245285   5.522   0.737  17.135  0.2301  2.7869 -0.9732
 7932TIP3   OH245286   4.154   2.223  16.681 -0.6179  0.5116  0.2998
 7932TIP3    H145287   4.070   2.246  16.640  0.0440  1.5917 -0.4829
 7932TIP3    H245288   4.208   2.192  16.608 -0.5299 -0.7346  0.8982
 7933TIP3   OH245289   6.328   2.038   4.180 -0.2274 -0.0990  0.3785
 7933TIP3    H145290   6.345   2.061   4.271  1.8693 -0.0397 -0.0165
 7933TIP3    H245291   6.335   2.121   4.133  0.9253 -0.4967 -0.1497
 7934TIP3   OH245292   4.054   1.704   2.398  0.0228 -0.3301 -0.8060
 7934TIP3    H145293   4.093   1.773   2.344 -0.2492  0.4837  0.0385
 7934TIP3    H245294   4.081   1.622   2.355  1.1338  0.2681 -1.2611
 7935TIP3   OH245295   0.855   0.378   5.478  0.4230 -0.4855 -0.1615
 7935TIP3    H145296   0.773   0.428   5.483  0.4215 -0.0803 -3.2665
 7935TIP3    H245297   0.830   0.294   5.441  0.9969 -1.5298  1.7152
 7936TIP3   OH245298   6.810   2.359  14.352  0.0958  0.1383 -0.6714
 7936TIP3    H145299   6.733   2.407  14.322  0.3156  0.0060 -1.4492
 7936TIP3    H245300   6.781   2.314  14.431 -0.3593  0.8478 -0.4281
 7937TIP3   OH245301   4.119   6.171   2.913  0.4795  0.0592 -0.1471
 7937TIP3    H145302   4.068   6.093   2.933  1.9833 -1.2600 -1.2980
 7937TIP3    H245303   4.074   6.212   2.840 -0.2925  0.2534  0.4344
 7938TIP3   OH245304   0.697   1.807   4.384  0.2238  0.5026  0.0456
 7938TIP3    H145305   0.631   1.741   4.406  1.1579 -0.0071  1.3877
 7938TIP3    H245306   0.685   1.821   4.290 -1.3949 -0.0166  0.1406
 7939TIP3   OH245307   5.097   5.990  14.784 -0.1027  0.0750  0.2681
 7939TIP3    H145308   5.120   6.072  14.827  1.2524 -0.4008  0.5046
 7939TIP3    H245309   5.002   5.985  14.790 -0.2154  1.7138  0.0657
 7940TIP3   OH245310   5.047   4.083  13.521 -0.1435 -0.1950 -0.0134
 7940TIP3    H145311   5.114   4.107  13.585 -1.7289  1.4918  1.0570
 7940TIP3    H245312   5.068   3.993  13.497  0.9638 -0.5833  2.2797
 7941TIP3   OH245313   1.200   2.834   4.155  0.1347 -0.3626  0.0555
 7941TIP3    H145314   1.199   2.903   4.222 -0.9858 -1.3638  1.0940
 7941TIP3    H245315   1.292   2.824   4.132  0.4070  0.7864  0.6376
 7942TIP3   OH245316   3.474   6.225   5.085 -0.0417  0.0423 -0.4753
 7942TIP3    H145317   3.415   6.292   5.049  0.5751  0.5388 -0.5690
 7942TIP3    H245318   3.477   6.243   5.179  0.9861  0.8306 -0.6549
 7943TIP3   OH245319   4.661   4.433   4.475 -0.1303  0.4309 -0.1697
 7943TIP3    H145320   4.721   4.365   4.507  1.2813  0.7165 -2.1093
 7943TIP3    H245321   4.630   4.476   4.554 -0.2640 -1.8076  1.0505
 7944TIP3   OH245322   0.045   0.816  15.511 -0.0051 -0.2014  0.5102
 7944TIP3    H145323   0.123   0.860  15.478 -1.2023  1.4127 -0.2358
 7944TIP3    H245324   0.029   0.857  15.596  0.0478 -0.6247  0.7224
 7945TIP3   OH245325   1.863   5.056   5.482 -0.7223  0.5515  0.0294
 7945TIP3    H145326   1.781   5.079   5.527 -0.7472  1.6228 -0.5580
 7945TIP3    H245327   1.926   5.121   5.512  0.5375 -1.5763  2.2185
 7946TIP3   OH245328   6.674   2.010  12.258 -0.2098  0.1753  0.1820
 7946TIP3    H145329   6.619   1.942  12.296  1.3464 -0.1830  1.8603
 7946TIP3    H245330   6.739   1.962  12.206 -0.4522  0.5005 -0.4250
 7947TIP3   OH245331   1.726   2.588   2.493  0.2406 -0.2211 -0.0032
 7947TIP3    H145332   1.754   2.652   2.428  1.5378 -1.8076 -1.0371
 7947TIP3    H245333   1.664   2.532   2.446  2.2596 -2.2410 -0.3100
 7948TIP3   OH245334   5.649   4.663  14.944 -0.3395  0.2101 -0.3468
 7948TIP3    H145335   5.578   4.728  14.941  0.0765  0.6397 -0.9377
 7948TIP3    H245336   5.621   4.601  15.011 -1.4633  0.1616 -0.8377
 7949TIP3   OH245337   2.853   0.811  12.501 -0.4361 -0.1780  0.3318
 7949TIP3    H145338   2.914   0.806  12.427 -0.9459 -1.3202 -0.0289
 7949TIP3    H245339   2.909   0.816  12.578  0.1032  1.1912 -0.1333
 7950TIP3   OH245340   2.833   2.029   5.033  0.4077  0.1168  0.4399
 7950TIP3    H145341   2.751   2.028   5.083  0.6546  1.2225  0.8902
 7950TIP3    H245342   2.892   2.084   5.085  1.0729  0.2676 -0.4548
 7951TIP3   OH245343   3.784   4.440  10.663  0.3061 -0.0473 -0.0790
 7951TIP3    H145344   3.868   4.415  10.624 -0.6953 -1.5092 -1.3102
 7951TIP3    H245345   3.762   4.522  10.621 -0.6051 -1.4426 -2.3976
 7952TIP3   OH245346   6.427   4.321   2.580  0.1422  0.3692  0.3334
 7952TIP3    H145347   6.360   4.258   2.552  0.8569 -0.0629 -0.4359
 7952TIP3    H245348   6.491   4.269   2.628 -0.5330  0.9419  1.8895
 7953TIP3   OH245349   6.470   2.622  14.090 -0.2166  0.6281  0.2853
 7953TIP3    H145350   6.526   2.641  14.015  1.5233 -1.0882  1.1000
 7953TIP3    H245351   6.381   2.640  14.060  0.3919 -0.6508 -2.3829
 7954TIP3   OH245352   0.044   6.289  17.105 -0.1889  0.2932 -0.1452
 7954TIP3    H145353   0.060   6.198  17.081  0.5417  0.6027 -0.8514
 7954TIP3    H245354  -0.050   6.293  17.122 -0.2520 -0.5575 -0.2848
 7955TIP3   OH245355   6.533   3.337  15.456 -0.2392  0.0747  0.0201
 7955TIP3    H145356   6.515   3.431  15.462  1.3095  0.3086  1.3817
 7955TIP3    H245357   6.471   3.296  15.516  0.4278  0.4101  0.9337
 7956TIP3   OH245358   2.097   5.166  14.426  0.1108  0.4322 -0.3333
 7956TIP3    H145359   2.075   5.241  14.371  0.0356 -0.1854 -1.1524
 7956TIP3    H245360   2.172   5.194  14.477 -1.0749  1.7353  0.7362
 7957TIP3   OH245361   2.805   1.598  14.975 -0.1853 -0.3198  0.0574
 7957TIP3    H145362   2.722   1.639  14.952  0.3736  0.4653 -0.6003
 7957TIP3    H245363   2.824   1.630  15.063  0.0005  0.4395 -0.2560
 7958TIP3   OH245364   0.865   3.381   4.250  0.3083  0.3776  0.4768
 7958TIP3    H145365   0.912   3.321   4.192 -1.0689 -1.0078  0.7597
 7958TIP3    H245366   0.842   3.328   4.326 -0.8435  1.2911  0.7763
 7959TIP3   OH245367   6.764   3.975   0.535  0.5143 -0.0311  0.0096
 7959TIP3    H145368   6.772   4.038   0.606  2.4893  3.7202 -3.3183
 7959TIP3    H245369   6.674   3.984   0.505  0.5516  0.6857  0.0869
 7960TIP3   OH245370   2.875   1.130  16.466 -0.2127 -0.1253 -0.0599
 7960TIP3    H145371   2.901   1.175  16.386 -0.7793 -0.4687 -0.4438
 7960TIP3    H245372   2.840   1.046  16.436 -0.6574 -0.1562  0.5267
 7961TIP3   OH245373   4.693   5.054  16.568 -0.6222 -0.0059 -0.0118
 7961TIP3    H145374   4.730   4.975  16.606  0.2561  0.8082  0.8432
 7961TIP3    H245375   4.700   5.041  16.474 -1.2916 -1.3227  0.1142
 7962TIP3   OH245376   5.583   0.543  15.488 -0.1012 -1.0124  0.4478
 7962TIP3    H145377   5.526   0.608  15.447 -0.8286 -1.9853 -0.1233
 7962TIP3    H245378   5.551   0.459  15.453 -0.1215 -1.7878  2.2997
 7963TIP3   OH245379   4.468   5.357   1.175 -0.6371  0.4055  0.1296
 7963TIP3    H145380   4.491   5.311   1.095 -0.2428  0.2910  0.3074
 7963TIP3    H245381   4.542   5.341   1.234 -0.9729  0.3961  0.5524
 7964TIP3   OH245382   6.342   0.935   4.172 -0.1033  0.6708 -0.0150
 7964TIP3    H145383   6.379   0.926   4.084 -0.5869 -1.9850 -0.0035
 7964TIP3    H245384   6.396   1.001   4.215  1.1613  0.8068 -1.7789
 7965TIP3   OH245385   5.683   1.828  15.884 -0.4749  0.1036 -0.2682
 7965TIP3    H145386   5.722   1.783  15.809 -1.5589 -1.4173  0.0656
 7965TIP3    H245387   5.680   1.762  15.953  1.5293  1.7913  1.4984
 7966TIP3   OH245388   1.940   1.539  15.922 -1.1170  0.1564 -0.2916
 7966TIP3    H145389   1.890   1.491  15.988 -0.9116  0.2175 -0.0907
 7966TIP3    H245390   1.874   1.590  15.875 -1.7402 -2.6401 -2.5386
 7967TIP3   OH245391   2.982   0.670  14.204 -0.5163 -0.1584 -0.4430
 7967TIP3    H145392   2.988   0.686  14.299  0.1056  2.6364 -0.9167
 7967TIP3    H245393   3.050   0.604  14.187 -1.7293 -1.9278  1.2767
 7968TIP3   OH245394   1.896   0.040  10.474  0.2825  0.5410  0.1119
 7968TIP3    H145395   1.964   0.106  10.466 -1.1089  1.9713 -0.2936
 7968TIP3    H245396   1.921  -0.028  10.411  1.1274  1.2296 -0.3084
 7969TIP3   OH245397   6.618   1.238  15.997 -0.0563  0.5326 -0.5548
 7969TIP3    H145398   6.602   1.310  15.936 -1.0758  0.2098 -0.6811
 7969TIP3    H245399   6.668   1.174  15.946 -0.9993  0.2160 -1.0886
 7970TIP3   OH245400   5.242   4.691   3.047 -0.3831  0.3102  0.8517
 7970TIP3    H145401   5.209   4.628   3.111  0.9402  0.8632  2.1188
 7970TIP3    H245402   5.179   4.763   3.050 -2.0053 -1.0171 -0.7436
 7971TIP3   OH245403   3.348   1.050   5.018  0.0271 -0.5034 -0.3341
 7971TIP3    H145404   3.396   1.047   5.100  0.9169  0.1521 -0.8205
 7971TIP3    H245405   3.274   0.990   5.031  1.6662 -2.5015 -0.0371
 7972TIP3   OH245406   5.344   0.867   5.241  0.2209 -0.3211  0.6252
 7972TIP3    H145407   5.300   0.787   5.215 -0.1249 -0.0701  0.4385
 7972TIP3    H245408   5.277   0.920   5.283 -0.3424  1.1665 -1.9796
 7973TIP3   OH245409   4.012   3.908  11.028 -0.6059 -0.1777  0.2715
 7973TIP3    H145410   3.929   3.947  11.003  0.0875  0.3442 -1.3378
 7973TIP3    H245411   4.047   3.872  10.946 -0.0868 -1.9807  1.2622
 7974TIP3   OH245412   0.514   2.300   1.903  0.0942  0.5331  0.6749
 7974TIP3    H145413   0.574   2.320   1.975  0.1822  1.4402  0.3598
 7974TIP3    H245414   0.483   2.386   1.873 -0.6105  0.1194  0.1994
 7975TIP3   OH245415   6.374   1.127   1.090  0.1096  0.2367  0.8502
 7975TIP3    H145416   6.436   1.057   1.070  0.0639  0.1497  1.0163
 7975TIP3    H245417   6.329   1.098   1.169  2.0658  1.7180  2.5779
 7976TIP3   OH245418   2.122   4.894  14.454 -0.1561  0.4545 -0.6845
 7976TIP3    H145419   2.092   4.985  14.457  1.0294  0.8157  0.7907
 7976TIP3    H245420   2.212   4.900  14.421  1.2674  0.2112  2.8954
 7977TIP3   OH245421   5.154   1.463  15.091 -0.0454  0.3746 -0.1281
 7977TIP3    H145422   5.166   1.369  15.075  1.0151  0.6752 -1.1656
 7977TIP3    H245423   5.241   1.493  15.119 -1.1226  0.4562  3.3235
 7978TIP3   OH245424   3.569   3.029  14.942 -0.3236  0.2422 -0.4390
 7978TIP3    H145425   3.547   2.975  15.019  0.2409 -0.4149 -0.7268
 7978TIP3    H245426   3.562   3.119  14.973 -0.1947 -0.0162  0.3578
 7979TIP3   OH245427   4.474   0.467   3.221  0.3650  0.6904 -0.4427
 7979TIP3    H145428   4.400   0.526   3.205 -0.2619  0.3060  0.9409
 7979TIP3    H245429   4.490   0.473   3.316 -2.3184 -4.3539  0.5288
 7980TIP3   OH245430   5.398   5.106   6.489  0.0155  0.0243  0.4781
 7980TIP3    H145431   5.448   5.121   6.570  0.2621  0.0146  0.3281
 7980TIP3    H245432   5.417   5.182   6.435 -1.5738  0.9052  1.1399
 7981TIP3   OH245433   3.610   5.064  13.390  0.4321 -0.6115  0.4683
 7981TIP3    H145434   3.673   4.992  13.390  0.3413 -0.7295 -1.3015
 7981TIP3    H245435   3.661   5.140  13.362  0.5130  0.0107  2.2752
 7982TIP3   OH245436   6.749   5.555   0.294 -0.0557  0.8829  0.4882
 7982TIP3    H145437   6.732   5.631   0.240  0.8227 -0.4301 -1.7080
 7982TIP3    H245438   6.671   5.500   0.284  0.3192  0.4103  0.1589
 7983TIP3   OH245439   1.868   4.513   1.934  0.3163  0.5244 -0.2166
 7983TIP3    H145440   1.861   4.521   1.839 -0.0428  0.1760 -0.2181
 7983TIP3    H245441   1.778   4.509   1.965  0.4475 -1.3203 -0.0273
 7984TIP3   OH245442   3.496   3.108   6.143 -0.6504  0.0338 -0.2858
 7984TIP3    H145443   3.555   3.054   6.091 -0.5846 -1.9915  1.8384
 7984TIP3    H245444   3.457   3.048   6.206 -0.8240  2.3882  1.9400
 7985TIP3   OH245445   4.180   2.467   0.866  0.1641  0.4927 -0.7798
 7985TIP3    H145446   4.231   2.398   0.910 -0.8428  0.0532 -0.2932
 7985TIP3    H245447   4.179   2.540   0.928 -1.8148 -0.3661  0.2170
 7986TIP3   OH245448   5.035   2.748   5.447 -0.2701 -0.8329  0.5195
 7986TIP3    H145449   4.978   2.805   5.499 -0.5937 -1.4865  0.8821
 7986TIP3    H245450   5.097   2.712   5.510  2.6409  2.3645 -0.3412
 7987TIP3   OH245451   3.827   4.482  13.703 -0.9537  0.0221  0.4054
 7987TIP3    H145452   3.881   4.536  13.761  1.1396 -1.2873 -0.2845
 7987TIP3    H245453   3.832   4.394  13.741 -1.0499 -0.4825 -0.7358
 7988TIP3   OH245454   5.879   1.873  15.398  0.4314 -0.4558  0.3143
 7988TIP3    H145455   5.870   1.949  15.455  0.7093 -0.7213  0.7141
 7988TIP3    H245456   5.972   1.850  15.403  0.4775 -0.4196 -0.3237
 7989TIP3   OH245457   3.127   1.176   3.584 -0.2431  0.1015 -0.2972
 7989TIP3    H145458   3.145   1.158   3.491  0.6898  0.3504 -0.1638
 7989TIP3    H245459   3.213   1.172   3.626 -0.7673 -0.8918  0.7086
 7990TIP3   OH245460   6.218   3.234   1.937 -0.5315  0.2315  0.3522
 7990TIP3    H145461   6.205   3.291   2.013 -3.0260  1.7316 -1.1303
 7990TIP3    H245462   6.130   3.217   1.904  0.4342 -1.2439 -1.6025
 7991TIP3   OH245463   3.595   2.787   4.358 -0.1401  0.4104  0.6437
 7991TIP3    H145464   3.653   2.749   4.424 -0.0769  1.2667  1.0939
 7991TIP3    H245465   3.631   2.759   4.274  0.3506  0.1206  0.9538
 7992TIP3   OH245466   1.200   0.442   1.234 -0.0312 -0.4037  0.1377
 7992TIP3    H145467   1.246   0.361   1.258 -0.5013 -0.3645  1.1935
 7992TIP3    H245468   1.245   0.472   1.155  0.3902 -1.4946 -0.0512
 7993TIP3   OH245469   3.546   3.441   4.934 -0.1202  0.5676  0.1826
 7993TIP3    H145470   3.558   3.416   5.026  0.4616  0.0480 -0.0312
 7993TIP3    H245471   3.588   3.371   4.884 -1.3403  0.3084 -0.5189
 7994TIP3   OH245472   5.660   5.899  14.646  0.1221  0.1593  0.6892
 7994TIP3    H145473   5.619   5.966  14.591 -0.6108  1.2168  2.4635
 7994TIP3    H245474   5.593   5.832  14.657  0.6635 -0.6072 -0.6317
 7995TIP3   OH245475   4.728   5.307   1.339  0.0227  0.1768  0.5184
 7995TIP3    H145476   4.813   5.334   1.304 -0.9157  1.8725 -0.5400
 7995TIP3    H245477   4.717   5.360   1.417  0.2601 -0.5839  1.0715
 7996TIP3   OH245478   0.250   0.421  14.545  0.1289 -0.0261 -0.9159
 7996TIP3    H145479   0.272   0.484  14.476 -0.0702 -1.1557 -2.0352
 7996TIP3    H245480   0.284   0.337  14.512  0.0521 -0.5732  0.3736
 7997TIP3   OH245481   6.276   5.320   2.218 -0.5314  0.2729 -0.4774
 7997TIP3    H145482   6.322   5.356   2.142 -0.6234 -0.3256 -0.8157
 7997TIP3    H245483   6.341   5.323   2.288  0.4822 -1.7899 -1.2694
 7998TIP3   OH245484   4.926   3.051  14.027  0.0764  0.1493  0.5341
 7998TIP3    H145485   4.927   2.982  13.960  2.5197  0.6917 -0.0364
 7998TIP3    H245486   4.867   3.018  14.095  0.3209 -2.0012 -0.2653
 7999TIP3   OH245487   5.015   4.373  16.171 -0.2099  0.9222  0.2301
 7999TIP3    H145488   5.005   4.469  16.173  0.4422  1.0030 -0.0085
 7999TIP3    H245489   5.006   4.350  16.079 -0.1498  0.7789  0.2602
 8000TIP3   OH245490   0.481   1.646  12.654  0.1958  0.0640  0.1418
 8000TIP3    H145491   0.503   1.565  12.609 -0.2977  0.5211 -0.9645
 8000TIP3    H245492   0.560   1.671  12.701 -0.1375 -1.8817  1.7952
 8001TIP3   OH245493   3.124   4.337  14.761 -0.8122  0.3526 -0.8550
 8001TIP3    H145494   3.065   4.284  14.707 -1.0453 -0.1666 -0.1042
 8001TIP3    H245495   3.163   4.274  14.822  0.1822  0.7655 -1.0456
 8002TIP3   OH245496   4.751   0.533   3.391  0.2063 -0.0443  0.1314
 8002TIP3    H145497   4.761   0.514   3.485 -0.9648 -0.0214  0.2710
 8002TIP3    H245498   4.761   0.448   3.348 -1.4301 -0.4346  0.4690
 8003TIP3   OH245499   0.715   4.112   0.986 -0.6471 -0.0128  0.6014
 8003TIP3    H145500   0.810   4.104   0.996  0.0068  3.5757 -1.7453
 8003TIP3    H245501   0.689   4.179   1.049 -1.1578  0.9683 -0.6248
 8004TIP3   OH245502   4.540   4.597  15.399 -0.2916  0.5460  0.4187
 8004TIP3    H145503   4.610   4.542  15.436 -1.4709 -1.8508 -0.7801
 8004TIP3    H245504   4.459   4.559  15.433 -1.1061  2.0874  0.2368
 8005TIP3   OH245505   6.419   4.257   5.873  0.8726 -0.1940  0.0440
 8005TIP3    H145506   6.414   4.324   5.941 -1.9951 -3.3258  3.0558
 8005TIP3    H245507   6.463   4.183   5.915 -0.5070 -2.0182 -1.6360
 8006TIP3   OH245508   4.753   3.553   3.062  0.0697  0.1281 -0.2098
 8006TIP3    H145509   4.758   3.458   3.070  0.9303  0.2250  0.4985
 8006TIP3    H245510   4.783   3.572   2.973 -2.0919 -0.4055 -1.0753
 8007TIP3   OH245511   0.754   0.833  16.670 -0.4556 -0.6195  0.5133
 8007TIP3    H145512   0.805   0.908  16.702 -1.1011 -0.1063  0.3578
 8007TIP3    H245513   0.766   0.835  16.575 -1.8267  0.3048  0.3404
 8008TIP3   OH245514   1.655   2.532  10.800  0.2586  0.6828  0.3417
 8008TIP3    H145515   1.609   2.535  10.884 -0.0218 -2.2023  0.3418
 8008TIP3    H245516   1.736   2.582  10.815  0.8245 -0.8894  2.7427
 8009TIP3   OH245517   5.485   2.238   4.949 -0.5497 -0.2853  0.0764
 8009TIP3    H145518   5.401   2.239   4.995  0.3300  1.1899  1.7005
 8009TIP3    H245519   5.525   2.322   4.971  1.5649 -1.1726 -0.3273
 8010TIP3   OH245520   5.959   3.190  12.178  0.2237 -0.3574  0.0079
 8010TIP3    H145521   5.929   3.223  12.263 -0.4837 -1.9390  0.3919
 8010TIP3    H245522   5.995   3.104  12.197 -0.2377 -0.8701 -1.3362
 8011TIP3   OH245523   3.382   4.519   4.177  0.4550  0.1534  0.1459
 8011TIP3    H145524   3.320   4.453   4.144  1.8052 -1.0539 -0.0152
 8011TIP3    H245525   3.401   4.490   4.267  1.6736 -0.1375 -0.2032
 8012TIP3   OH245526   6.157   3.604   2.549  0.1840 -0.2220 -0.2503
 8012TIP3    H145527   6.211   3.553   2.609 -0.5224 -0.3249  0.3099
 8012TIP3    H245528   6.207   3.609   2.468  1.7298  0.9827  0.7556
 8013TIP3   OH245529   4.151   5.754   5.952  0.6321 -0.3970  0.1054
 8013TIP3    H145530   4.132   5.846   5.972 -1.8559 -0.3477 -2.2199
 8013TIP3    H245531   4.104   5.705   6.020  1.1310 -0.0083  0.7463
 8014TIP3   OH245532   5.307   6.523  13.148  0.1989 -0.5566 -0.1695
 8014TIP3    H145533   5.256   6.604  13.144  1.1997  0.1536  1.0764
 8014TIP3    H245534   5.344   6.514  13.060  1.4836  1.2940  0.1478
 8015TIP3   OH245535   3.598   4.066   5.987 -0.0712  0.3079 -0.0296
 8015TIP3    H145536   3.537   4.002   6.023 -0.9727  1.1978  0.0620
 8015TIP3    H245537   3.682   4.047   6.029 -0.0172 -1.6146 -0.9500
 8016TIP3   OH245538   6.490   6.068  10.895 -0.6319  0.1624 -0.5380
 8016TIP3    H145539   6.555   6.000  10.914 -1.3956 -0.9938 -1.9810
 8016TIP3    H245540   6.478   6.113  10.979  1.3560 -0.1810 -0.0249
 8017TIP3   OH245541   2.903   3.667  11.374 -0.5364 -0.8366  0.0048
 8017TIP3    H145542   2.844   3.638  11.305 -0.2105 -1.9723  0.1908
 8017TIP3    H245543   2.972   3.601  11.376  0.7423  0.4686 -0.2059
 8018TIP3   OH245544   5.708   1.633   1.470  0.0153  0.0422 -0.4767
 8018TIP3    H145545   5.655   1.664   1.545  1.4576  0.8832  0.2171
 8018TIP3    H245546   5.659   1.558   1.436 -1.8940  1.1099 -0.1628
 8019TIP3   OH245547   5.293   3.636  15.317  0.8835 -0.0602  0.4369
 8019TIP3    H145548   5.198   3.625  15.318  0.8045  0.6612  1.4401
 8019TIP3    H245549   5.308   3.709  15.257  0.6353  1.2829  1.9915
 8020TIP3   OH245550   2.533   3.643   0.419 -0.0760 -0.2087  0.0498
 8020TIP3    H145551   2.516   3.686   0.504 -0.6450 -0.7151  0.1956
 8020TIP3    H245552   2.484   3.561   0.424  2.0725 -1.5019  0.2851
 8021TIP3   OH245553   0.523   0.488  16.172  0.2576  0.1966  0.4779
 8021TIP3    H145554   0.557   0.534  16.249 -0.6955 -0.1731  1.1230
 8021TIP3    H245555   0.444   0.536  16.149  1.8118  1.8186 -1.7679
 8022TIP3   OH245556   4.425   2.679   1.935  0.5593 -0.0294  0.3248
 8022TIP3    H145557   4.341   2.717   1.910  0.5876  0.3132  0.7495
 8022TIP3    H245558   4.433   2.600   1.880  0.0671  0.0587  0.1254
 8023TIP3   OH245559   1.426   3.165   1.758 -0.0315  0.5453  0.6311
 8023TIP3    H145560   1.520   3.180   1.769 -0.0776  0.5539  1.0417
 8023TIP3    H245561   1.421   3.080   1.713  0.1880  0.9479 -0.1638
 8024TIP3   OH245562   0.313   5.926   3.319 -0.0737  0.1391 -0.6238
 8024TIP3    H145563   0.220   5.934   3.298 -0.5232 -1.3212  0.6998
 8024TIP3    H245564   0.328   5.991   3.388  0.1195  1.0703 -1.5433
 8025TIP3   OH245565   2.125   2.962  11.335 -0.0749  0.0703  0.5405
 8025TIP3    H145566   2.036   2.960  11.369 -0.6363  0.7020 -0.9162
 8025TIP3    H245567   2.128   3.037  11.277  1.7873  0.8451  1.5966
 8026TIP3   OH245568   2.520   4.374  14.723  0.0353  0.0985 -0.0825
 8026TIP3    H145569   2.512   4.374  14.819 -0.8475 -0.2733 -0.1561
 8026TIP3    H245570   2.569   4.295  14.703  0.2509  0.1928  0.0638
 8027TIP3   OH245571   6.422   6.454   4.056  0.1483  0.2987 -0.1469
 8027TIP3    H145572   6.383   6.373   4.022 -1.4142  0.5274  1.0364
 8027TIP3    H245573   6.512   6.430   4.078  0.2907 -0.6012 -1.6419
 8028TIP3   OH245574   3.312   0.088  14.466 -0.0148  0.0031  0.0402
 8028TIP3    H145575   3.333   0.113  14.376 -0.9513  0.4079 -0.0716
 8028TIP3    H245576   3.324  -0.007  14.468  1.1475  0.1393 -0.1975
 8029TIP3   OH245577   4.898   0.632  16.181 -0.1098  0.0252  0.4356
 8029TIP3    H145578   4.977   0.683  16.202  0.5333 -1.1592  0.9429
 8029TIP3    H245579   4.835   0.697  16.150  1.0310  1.0048  0.1256
 8030TIP3   OH245580   6.694   1.977  14.063  0.6831 -0.3031  0.2854
 8030TIP3    H145581   6.690   1.902  14.004 -0.0864  0.3841 -0.5558
 8030TIP3    H245582   6.646   1.948  14.141  1.0235 -0.9380  0.2602
 8031TIP3   OH245583   4.385   1.764  17.049 -0.3674 -0.1145 -0.2442
 8031TIP3    H145584   4.313   1.826  17.055  0.3367  0.6535  0.2628
 8031TIP3    H245585   4.342   1.678  17.055 -1.1981  0.3348  0.4662
 8032TIP3   OH245586   4.291   2.212  12.387 -0.0324  0.6192  0.0873
 8032TIP3    H145587   4.277   2.245  12.298 -1.6865 -1.3930 -0.4199
 8032TIP3    H245588   4.236   2.268  12.441 -2.3068 -0.8105 -0.6914
 8033TIP3   OH245589   2.390   0.519  15.723  0.3249 -0.4194 -0.1348
 8033TIP3    H145590   2.383   0.614  15.716  0.6340 -0.3735  0.1724
 8033TIP3    H245591   2.393   0.501  15.817 -0.6358 -0.8058 -0.1761
 8034TIP3   OH245592   5.116   1.831  13.174 -0.3235 -1.0276 -0.2791
 8034TIP3    H145593   5.114   1.806  13.266 -1.4808  0.0461  0.0003
 8034TIP3    H245594   5.153   1.919  13.174 -3.2690  0.2801 -0.4991
 8035TIP3   OH245595   5.101   6.011   5.067 -0.1994 -0.3809 -0.1991
 8035TIP3    H145596   5.144   5.948   5.008  2.2465  1.2724 -0.2769
 8035TIP3    H245597   5.158   6.088   5.064 -1.8184  0.9243  1.8077
 8036TIP3   OH245598   2.858   1.621   5.221 -0.6255  0.3467  0.6279
 8036TIP3    H145599   2.911   1.595   5.296 -1.9145 -2.5978  0.6172
 8036TIP3    H245600   2.801   1.690   5.254  0.8880  1.1898  1.5212
 8037TIP3   OH245601   3.582   5.214  16.263 -0.0387 -0.2478  0.3827
 8037TIP3    H145602   3.655   5.268  16.293 -0.3086 -0.6327  1.8028
 8037TIP3    H245603   3.608   5.125  16.284 -1.0165 -0.3686  1.1599
 8038TIP3   OH245604   0.436   5.444   6.098  0.2769 -0.0780  0.1936
 8038TIP3    H145605   0.348   5.417   6.125 -0.5097  0.4831 -1.7497
 8038TIP3    H245606   0.469   5.494   6.173 -0.5698 -1.3083  1.4276
 8039TIP3   OH245607   2.292   0.536   3.149  0.4988  0.1634 -0.2190
 8039TIP3    H145608   2.322   0.461   3.200 -2.7109  0.1380  1.8350
 8039TIP3    H245609   2.197   0.523   3.141  0.4008  2.1571 -2.9703
 8040TIP3   OH245610   5.590   4.359   1.439  0.2647 -0.1284  0.3660
 8040TIP3    H145611   5.554   4.426   1.380  1.1526 -1.0020 -1.2056
 8040TIP3    H245612   5.610   4.407   1.520  1.0109  1.5480 -0.7644
 8041TIP3   OH245613   2.766   3.691  11.917  0.5855 -0.3340 -0.4412
 8041TIP3    H145614   2.761   3.638  11.997  1.0771 -0.4318 -0.4754
 8041TIP3    H245615   2.840   3.655  11.868 -0.8923 -1.5319 -1.8512
 8042TIP3   OH245616   2.831   5.709  16.575  0.3887  0.1695 -0.5067
 8042TIP3    H145617   2.907   5.759  16.547 -0.2109  1.0897 -0.5006
 8042TIP3    H245618   2.757   5.747  16.527  0.3326 -2.5783 -2.7088
 8043TIP3   OH245619   2.246   5.730   1.859 -0.5888 -0.1974  0.3308
 8043TIP3    H145620   2.338   5.718   1.834  0.0280  2.0162  1.3782
 8043TIP3    H245621   2.245   5.813   1.906 -3.3976  0.6399 -1.0717
 8044TIP3   OH245622   2.205   0.976   3.601 -0.1025  0.3188 -0.3590
 8044TIP3    H145623   2.230   0.914   3.670 -0.5084 -0.5475 -0.9822
 8044TIP3    H245624   2.212   1.062   3.643  1.1666 -0.0942  0.3013
 8045TIP3   OH245625   2.268   1.105  13.629  0.2593 -0.1640 -0.0737
 8045TIP3    H145626   2.194   1.165  13.626 -0.4867 -0.9241  2.0741
 8045TIP3    H245627   2.257   1.048  13.553 -0.3863  0.8221 -0.7269
 8046TIP3   OH245628   6.801   6.381   0.897 -0.1280  0.0752  0.0271
 8046TIP3    H145629   6.823   6.314   0.831 -0.5414  0.4094 -0.4546
 8046TIP3    H245630   6.885   6.417   0.923  0.0440 -0.1087 -0.2694
 8047TIP3   OH245631   3.234   2.730  10.921 -0.4518 -0.4382 -0.5645
 8047TIP3    H145632   3.298   2.732  10.850  0.7924  1.3055  0.5373
 8047TIP3    H245633   3.194   2.644  10.915  3.1125 -2.2203 -0.3633
 8048TIP3   OH245634   2.863   3.343   3.591  0.1560 -0.0982 -0.1341
 8048TIP3    H145635   2.913   3.332   3.510 -0.8165  3.0861 -1.2202
 8048TIP3    H245636   2.790   3.281   3.582 -0.1359  0.4703 -1.8582
 8049TIP3   OH245637   4.860   4.625  10.652 -1.0837  0.5366  0.1182
 8049TIP3    H145638   4.832   4.534  10.661  0.6991 -0.2370 -1.7465
 8049TIP3    H245639   4.873   4.637  10.558  1.8253  1.7143  0.5977
 8050TIP3   OH245640   4.203   6.434   4.959 -0.0343 -0.1715 -0.2496
 8050TIP3    H145641   4.242   6.392   5.036 -1.4276  2.1892  1.8512
 8050TIP3    H245642   4.207   6.528   4.979 -0.8695  0.4617 -2.8788
 8051TIP3   OH245643   0.742   0.055   1.567 -0.9260  0.1063 -0.1764
 8051TIP3    H145644   0.786   0.132   1.604 -0.3047 -0.1682 -0.3353
 8051TIP3    H245645   0.653   0.085   1.547 -0.9204  0.5698  0.4828
 8052TIP3   OH245646   4.110   2.909  12.473 -0.0247  0.2267 -0.4918
 8052TIP3    H145647   4.084   2.860  12.395  0.8205 -0.2467 -0.4830
 8052TIP3    H245648   4.148   2.990  12.439  0.4098 -0.0107 -0.5841
 8053TIP3   OH245649   3.337   2.453  10.820  0.2139  0.0244  0.4853
 8053TIP3    H145650   3.296   2.536  10.799  1.1724  0.1299 -1.0734
 8053TIP3    H245651   3.279   2.387  10.783 -0.0178  0.0370  0.8223
 8054TIP3   OH245652   0.766   3.645  12.717  0.3622 -0.1354  0.4103
 8054TIP3    H145653   0.795   3.702  12.646  1.3618  1.3812  1.9812
 8054TIP3    H245654   0.846   3.601  12.746 -0.1064 -1.0382  0.3536
 8055TIP3   OH245655   0.081   5.339   0.411 -0.0086  0.0801  0.2724
 8055TIP3    H145656   0.072   5.419   0.360 -1.5028 -0.1724  0.1232
 8055TIP3    H245657   0.005   5.286   0.386  3.5126 -3.5827 -3.5046
 8056TIP3   OH245658   0.110   1.183  12.433 -0.6388 -0.1623  0.0511
 8056TIP3    H145659   0.056   1.168  12.356 -1.1942  0.8322  0.2379
 8056TIP3    H245660   0.111   1.279  12.443 -2.0906 -0.3544  2.3393
 8057TIP3   OH245661   5.870   6.167  15.354  0.0442 -0.3843 -0.4231
 8057TIP3    H145662   5.829   6.113  15.422  1.6518 -1.1830 -0.0778
 8057TIP3    H245663   5.796   6.207  15.308 -1.1699 -2.2618 -0.1812
 8058TIP3   OH245664   3.988   3.970   4.866 -0.0524  0.1071 -0.8169
 8058TIP3    H145665   3.921   3.914   4.826  0.8807 -2.2519  0.8364
 8058TIP3    H245666   4.071   3.925   4.849  0.7009  0.8613  0.7175
 8059TIP3   OH245667   3.850   5.951  17.141  0.6815  0.4209  0.1922
 8059TIP3    H145668   3.921   5.888  17.153 -0.0826 -0.1990  1.6522
 8059TIP3    H245669   3.880   6.030  17.185  0.2367 -0.0481  1.3850
 8060TIP3   OH245670   4.365   2.181   5.262 -0.3015  0.1738  0.1505
 8060TIP3    H145671   4.350   2.276   5.256  1.2849  0.3643 -1.4273
 8060TIP3    H245672   4.436   2.165   5.200  1.1332 -1.6759  2.1769
 8061TIP3   OH245673   5.373   5.760  11.101  0.3445  0.0724 -0.1946
 8061TIP3    H145674   5.288   5.759  11.056  0.1971  0.7000  0.0669
 8061TIP3    H245675   5.351   5.770  11.193  0.7175  0.5010 -0.1547
 8062TIP3   OH245676   4.943   6.230  17.236 -0.1406 -0.2520  0.0115
 8062TIP3    H145677   4.885   6.183  17.176 -1.4232 -1.1701  1.9011
 8062TIP3    H245678   4.993   6.289  17.180 -1.3202 -1.0439 -1.9433
 8063TIP3   OH245679   3.861   4.373  14.522 -0.2140  0.7488 -0.6390
 8063TIP3    H145680   3.873   4.422  14.441 -1.2031  1.9622 -0.0636
 8063TIP3    H245681   3.825   4.289  14.494  3.5646 -0.6077 -1.8360
 8064TIP3   OH245682   5.947   4.324  12.523  0.6053 -0.0221 -0.5428
 8064TIP3    H145683   6.000   4.394  12.487  1.1461  0.6678  1.5057
 8064TIP3    H245684   6.003   4.247  12.519  0.3688 -0.1380 -1.8691
 8065TIP3   OH245685   0.142   1.434  12.531  0.0033 -0.0777 -0.6581
 8065TIP3    H145686   0.196   1.435  12.610  0.3224  1.0456 -0.8768
 8065TIP3    H245687   0.080   1.505  12.544 -0.2402 -0.1905 -1.2145
 8066TIP3   OH245688   3.876   2.254  16.691  0.1358 -0.7756  0.2880
 8066TIP3    H145689   3.859   2.201  16.769  0.7591  0.9648  1.6507
 8066TIP3    H245690   3.804   2.233  16.631 -0.5113 -1.9245  1.4489
 8067TIP3   OH245691   2.414   3.160  16.020 -0.2507 -0.9329  0.4885
 8067TIP3    H145692   2.324   3.145  15.989 -0.5173  0.3715  0.6278
 8067TIP3    H245693   2.450   3.072  16.031 -0.9269 -1.4566 -1.2802
 8068TIP3   OH245694   3.496   2.288  13.395  0.2110 -0.0812  0.3281
 8068TIP3    H145695   3.565   2.254  13.338 -0.9986 -1.9817 -0.0492
 8068TIP3    H245696   3.507   2.383  13.393  2.0495 -0.3083 -0.6875
 8069TIP3   OH245697   6.430   6.618   2.139  0.1600  0.2578  0.4422
 8069TIP3    H145698   6.363   6.686   2.142 -0.3653 -0.2783  0.7043
 8069TIP3    H245699   6.424   6.574   2.223 -0.2461 -0.8404 -0.1559
 8070TIP3   OH245700   4.941   3.127  12.374  0.6133  0.0887  0.3331
 8070TIP3    H145701   4.951   3.037  12.404  0.9152 -0.2587 -0.7799
 8070TIP3    H245702   4.861   3.158  12.417 -0.5578 -1.3412 -0.7775
 8071TIP3   OH245703   3.492   3.221   5.432  0.2623 -0.3101 -0.3536
 8071TIP3    H145704   3.455   3.137   5.405  0.2260 -0.2849 -0.3825
 8071TIP3    H245705   3.433   3.252   5.500  2.4536 -2.1773  2.4882
 8072TIP3   OH245706   3.380   0.038  11.949 -0.8471 -0.7694  0.0857
 8072TIP3    H145707   3.349   0.103  11.885 -0.3593  0.1953  0.8144
 8072TIP3    H245708   3.301   0.011  11.995 -0.7582  1.1713  1.4685
 8073TIP3   OH245709   5.617   4.042  16.540  0.0256  0.1158 -0.3753
 8073TIP3    H145710   5.587   4.067  16.452 -1.1356 -1.9177 -0.6020
 8073TIP3    H245711   5.709   4.019  16.529 -0.0190  0.2235 -0.9912
 8074TIP3   OH245712   6.450   2.858  15.432 -0.4883 -0.3412  0.3647
 8074TIP3    H145713   6.512   2.839  15.503 -0.2304  0.4630  0.3619
 8074TIP3    H245714   6.465   2.788  15.368 -1.6216 -1.8122  1.6778
 8075TIP3   OH245715   3.591   2.841   0.160 -0.1827  0.0798 -0.3831
 8075TIP3    H145716   3.506   2.801   0.177  0.1921  0.7224  3.3355
 8075TIP3    H245717   3.653   2.769   0.164 -0.3063 -0.0703 -1.0639
 8076TIP3   OH245718   2.037   5.592   5.637  0.1586  0.0212  0.2310
 8076TIP3    H145719   2.092   5.667   5.658  0.4391  0.0451 -0.5611
 8076TIP3    H245720   1.994   5.570   5.719  0.1778  0.9608  0.5003
 8077TIP3   OH245721   1.229   3.719  16.303 -0.2816  0.1499 -0.0070
 8077TIP3    H145722   1.150   3.748  16.348 -0.1628 -0.4787  0.6050
 8077TIP3    H245723   1.271   3.801  16.274 -1.0122  0.4971 -0.1157
 8078TIP3   OH245724   4.507   5.030  13.852  0.2882 -0.3061 -0.0024
 8078TIP3    H145725   4.482   4.944  13.887  0.8797 -0.3939  0.2167
 8078TIP3    H245726   4.565   5.067  13.918 -1.7284  1.2440  0.9530
 8079TIP3   OH245727   3.509   0.792   1.589  1.0599  0.3765 -0.1145
 8079TIP3    H145728   3.549   0.705   1.591 -0.8713 -0.5797 -1.4563
 8079TIP3    H245729   3.467   0.801   1.674  1.2763 -0.0043  0.0353
 8080TIP3   OH245730   1.518   5.471  13.357 -0.2725  0.1845 -0.0078
 8080TIP3    H145731   1.490   5.485  13.448 -0.3088 -0.3939  0.0716
 8080TIP3    H245732   1.526   5.376  13.349  0.8429  0.2980 -0.2838
 8081TIP3   OH245733   0.076   6.054   0.987  0.2460  0.3111 -0.7082
 8081TIP3    H145734   0.027   6.069   0.906  0.0224 -0.2844 -0.6812
 8081TIP3    H245735   0.161   6.020   0.958 -0.0347 -0.4265 -0.6670
 8082TIP3   OH245736   0.681   6.105   3.402 -0.8807 -0.1213  0.5296
 8082TIP3    H145737   0.728   6.116   3.320 -2.3172 -1.9756 -0.5825
 8082TIP3    H245738   0.647   6.192   3.423  2.5941  1.1749  1.1396
 8083TIP3   OH245739   5.682   0.295   3.967  0.4464  0.0750  0.1867
 8083TIP3    H145740   5.764   0.256   3.936  0.7667  0.8523  0.0619
 8083TIP3    H245741   5.635   0.319   3.887  1.0908  1.6997  0.2822
 8084TIP3   OH245742   3.322   4.992  16.095  0.0082 -0.4045  0.3825
 8084TIP3    H145743   3.296   4.929  16.162  0.6976 -1.1169 -0.0186
 8084TIP3    H245744   3.291   4.955  16.013  0.4126 -0.2307  0.1469
 8085TIP3   OH245745   1.316   0.902  12.365  0.0277 -0.2452  0.0734
 8085TIP3    H145746   1.352   0.844  12.298  0.7537  0.4986 -0.1924
 8085TIP3    H245747   1.227   0.921  12.336  0.0052 -0.7137 -0.1665
 8086TIP3   OH245748   1.796   6.482   0.953 -0.6301  0.3457 -0.0429
 8086TIP3    H145749   1.865   6.451   0.894  0.9828  0.2542  1.8357
 8086TIP3    H245750   1.829   6.564   0.988 -1.7983  0.6626  0.3550
 8087TIP3   OH245751   5.733   2.557  12.630  0.0077  0.1398  0.1435
 8087TIP3    H145752   5.814   2.507  12.642 -0.5080 -1.2218 -1.7472
 8087TIP3    H245753   5.762   2.642  12.596  0.7220  0.1469  0.7615
 8088TIP3   OH245754   1.920   5.440  14.486  0.0523  0.7757 -0.2113
 8088TIP3    H145755   1.973   5.455  14.408  1.4199  0.2346  0.5890
 8088TIP3    H245756   1.870   5.521  14.497  0.1604  1.0056 -1.4085
 8089TIP3   OH245757   1.165   2.933   0.007 -0.3894 -0.6430  0.1356
 8089TIP3    H145758   1.235   2.993  -0.020 -0.3767 -1.3753 -1.4783
 8089TIP3    H245759   1.087   2.965  -0.039 -0.3790 -1.8721 -0.7470
 8090TIP3   OH245760   1.580   2.174  11.512  0.7478  0.3859 -0.0229
 8090TIP3    H145761   1.659   2.121  11.525  0.0431 -1.2053 -2.0043
 8090TIP3    H245762   1.516   2.138  11.573  0.1252 -1.4081 -1.6856
 8091TIP3   OH245763   0.425   0.330  12.741  0.0930  0.2164 -0.1395
 8091TIP3    H145764   0.347   0.385  12.748  0.9359  1.4368 -0.1679
 8091TIP3    H245765   0.394   0.248  12.702 -1.4041  0.1943  1.0576
 8092TIP3   OH245766   5.986   5.952   0.118 -0.4057  0.0085 -0.2979
 8092TIP3    H145767   6.046   5.886   0.151  0.3718  0.3643 -0.9829
 8092TIP3    H245768   5.906   5.941   0.170  0.0830 -0.7825  0.2820
 8093TIP3   OH245769   0.716   1.988  12.489 -0.3347  0.0681  0.5636
 8093TIP3    H145770   0.685   1.974  12.399  0.2150  3.0411 -0.1441
 8093TIP3    H245771   0.773   1.913  12.506 -1.1015 -0.9741 -1.2487
 8094TIP3   OH245772   5.530   1.715   1.660  0.5186 -0.3336 -0.2360
 8094TIP3    H145773   5.497   1.772   1.590  0.9305 -1.0611 -1.0374
 8094TIP3    H245774   5.451   1.676   1.698  0.2938  0.0270 -0.3265
 8095TIP3   OH245775   4.028   3.110  13.768  0.1518 -0.3183  0.2087
 8095TIP3    H145776   3.965   3.038  13.774 -0.9973  0.5786 -0.5814
 8095TIP3    H245777   4.106   3.079  13.812 -0.4638 -1.9051  0.1994
 8096TIP3   OH245778   1.854   6.008   3.843 -0.0033 -0.5849 -0.6441
 8096TIP3    H145779   1.812   6.077   3.894 -1.2234 -2.5975  1.1646
 8096TIP3    H245780   1.945   6.007   3.873 -0.2652 -0.5207  0.1505
 8097TIP3   OH245781   1.657   6.066  16.096  1.0461  0.2864  0.2550
 8097TIP3    H145782   1.731   6.087  16.038  0.8992 -0.5015 -0.2342
 8097TIP3    H245783   1.691   5.997  16.153  0.9120  0.4271  0.5020
 8098TIP3   OH245784   1.972   1.579   5.354 -0.5943 -0.6651 -0.1972
 8098TIP3    H145785   1.894   1.533   5.322 -1.3925  0.6778 -0.2517
 8098TIP3    H245786   1.952   1.672   5.340  0.3258 -0.2184  1.3486
 8099TIP3   OH245787   3.090   3.953  11.184 -0.6487 -0.1009  0.6355
 8099TIP3    H145788   3.007   3.989  11.154 -0.1971  1.5278  1.2931
 8099TIP3    H245789   3.066   3.880  11.241 -1.6815  1.2004  1.9134
 8100TIP3   OH245790   4.547   2.521   0.253  0.0720 -0.2839  0.1457
 8100TIP3    H145791   4.528   2.427   0.264 -1.9079  0.3148  2.3047
 8100TIP3    H245792   4.515   2.542   0.166 -1.3903 -1.1796  0.4512
 8101TIP3   OH245793   0.491   5.791   0.689  0.1300 -0.3095  0.0304
 8101TIP3    H145794   0.475   5.731   0.616  0.9467  0.4890 -0.8220
 8101TIP3    H245795   0.538   5.865   0.650 -1.0835  1.0203  1.0107
 8102TIP3   OH245796   5.836   3.681   4.741 -0.2625  0.2936 -0.2570
 8102TIP3    H145797   5.776   3.625   4.791  0.0514  0.8690  0.7682
 8102TIP3    H245798   5.798   3.769   4.748  2.2366  1.2150  2.8903
 8103TIP3   OH245799   2.921   2.015  17.235 -0.4089 -0.2686 -0.0955
 8103TIP3    H145800   2.883   2.067  17.165  2.1790  2.6705  0.5697
 8103TIP3    H245801   2.899   2.062  17.316 -2.0318 -2.7800  0.9983
 8104TIP3   OH245802   1.158   0.902   4.464 -0.1610  0.4935  0.4421
 8104TIP3    H145803   1.231   0.959   4.439  0.5060 -0.6071 -0.1911
 8104TIP3    H245804   1.122   0.871   4.381 -0.8711  0.4398  0.7708
 8105TIP3   OH245805   2.862   0.897   2.904 -0.5301 -0.0163 -0.3408
 8105TIP3    H145806   2.945   0.938   2.880 -1.0271  1.3319  0.1477
 8105TIP3    H245807   2.867   0.887   2.999 -1.0354  0.3657 -0.2669
 8106TIP3   OH245808   4.216   4.984  13.863  0.0582  0.2078 -0.2070
 8106TIP3    H145809   4.231   5.041  13.787 -0.8133  0.9836  0.1974
 8106TIP3    H245810   4.258   4.902  13.839 -3.2022 -0.7544 -3.0445
 8107TIP3   OH245811   3.373   5.934   2.595  0.0749 -0.2155  0.0197
 8107TIP3    H145812   3.448   5.957   2.649  0.0495 -1.1374  0.4643
 8107TIP3    H245813   3.313   5.889   2.655 -0.5846  0.0217 -0.4532
 8108TIP3   OH245814   3.642   2.900  14.151  0.3245  0.0160 -0.0139
 8108TIP3    H145815   3.726   2.869  14.117  0.0453 -0.6675 -0.0754
 8108TIP3    H245816   3.657   2.907  14.246  0.8270  1.0829 -0.1584
 8109TIP3   OH245817   3.574   2.924   1.941 -0.7304  0.2243 -0.0231
 8109TIP3    H145818   3.634   2.953   2.008 -1.7352 -1.8477  1.8286
 8109TIP3    H245819   3.623   2.860   1.889 -0.4787  0.5914 -0.2374
 8110TIP3   OH245820   0.830   3.923  13.267 -0.0627  1.0400 -0.3326
 8110TIP3    H145821   0.852   3.940  13.175  0.7206 -1.4300 -0.6218
 8110TIP3    H245822   0.914   3.917  13.312 -0.4503  3.3080  0.8064
 8111TIP3   OH245823   2.274   3.951  15.086  0.4550  0.4790 -0.8718
 8111TIP3    H145824   2.219   3.897  15.029  0.4794  0.0154 -0.4642
 8111TIP3    H245825   2.341   3.890  15.118 -0.6362  0.2651  1.1235
 8112TIP3   OH245826   6.793   5.062  11.034 -0.6434 -0.0817  0.2970
 8112TIP3    H145827   6.838   5.142  11.006 -0.8654 -0.0121  0.1360
 8112TIP3    H245828   6.701   5.077  11.011 -1.1358  0.6855  2.6418
 8113TIP3   OH245829   4.186   3.972   6.192 -0.0542  0.1436 -0.1237
 8113TIP3    H145830   4.280   3.954   6.192 -0.1005 -0.1282 -1.1121
 8113TIP3    H245831   4.166   3.994   6.283  0.8222 -0.5279  0.2354
 8114TIP3   OH245832   1.459   6.259  15.483  0.3171  0.2062 -0.1746
 8114TIP3    H145833   1.545   6.223  15.460 -0.7177 -1.5512 -1.4678
 8114TIP3    H245834   1.415   6.188  15.529 -0.4397  1.0996  0.4818
 8115TIP3   OH245835   3.223   3.637  15.175  0.0538 -0.1809 -0.2543
 8115TIP3    H145836   3.276   3.702  15.222  0.0254  0.3911 -1.0170
 8115TIP3    H245837   3.157   3.610  15.239 -0.6064  1.3499 -0.2910
 8116TIP3   OH245838   1.663   0.057  13.808  0.2879  0.2764  0.0758
 8116TIP3    H145839   1.580   0.027  13.772 -0.6595  0.2269  2.2088
 8116TIP3    H245840   1.692  -0.015  13.864  0.1219  1.5970  1.9072
 8117TIP3   OH245841   3.132   5.055  12.537 -0.1552  0.9814 -0.1109
 8117TIP3    H145842   3.154   5.042  12.630 -3.4238  0.6571  0.6657
 8117TIP3    H245843   3.129   5.150  12.527 -0.6936  1.0218  0.3673
 8118TIP3   OH245844   5.504   5.262   5.750  0.0508  0.0218 -0.2464
 8118TIP3    H145845   5.517   5.171   5.723 -1.0178 -0.5111  0.9439
 8118TIP3    H245846   5.566   5.275   5.822  1.6138  0.8665 -1.7354
 8119TIP3   OH245847   3.473   1.426  13.203  0.3823  0.5024  0.0716
 8119TIP3    H145848   3.407   1.389  13.144  0.1465  0.7816  0.1624
 8119TIP3    H245849   3.557   1.398  13.165  0.2022 -0.6675  0.4865
 8120TIP3   OH245850   0.501   1.490   2.359 -0.2895  0.2985  0.1444
 8120TIP3    H145851   0.553   1.420   2.397  0.0890  0.2785 -0.3887
 8120TIP3    H245852   0.539   1.502   2.271 -0.2909  1.2177  0.2619
 8121TIP3   OH245853   3.584   0.973  13.869 -0.2982 -0.8404 -0.0069
 8121TIP3    H145854   3.545   0.902  13.920 -2.7536  0.9446  0.7099
 8121TIP3    H245855   3.608   1.039  13.934  3.0358 -1.4616 -0.5471
 8122TIP3   OH245856   0.919   1.470  11.365  0.5799 -0.4668 -0.1480
 8122TIP3    H145857   0.966   1.394  11.328 -0.2292 -0.5600 -1.0024
 8122TIP3    H245858   0.834   1.468  11.323  0.3781  0.6540  0.1923
 8123TIP3   OH245859   6.130   4.773  16.044  0.3402 -0.4266  0.0866
 8123TIP3    H145860   6.145   4.863  16.071  0.6432 -0.3495 -0.3402
 8123TIP3    H245861   6.114   4.777  15.950  1.7236 -0.9544 -0.1867
 8124TIP3   OH245862   4.996   3.072  10.271  0.7308 -0.1322  0.4302
 8124TIP3    H145863   4.980   3.118  10.353 -0.7878  0.8156 -0.3654
 8124TIP3    H245864   5.036   2.989  10.297 -0.8682 -0.3788  2.2162
 8125TIP3   OH245865   1.159   5.017  16.535  0.2959 -0.5272 -0.0679
 8125TIP3    H145866   1.226   4.958  16.500  0.5061 -0.2108 -0.1961
 8125TIP3    H245867   1.127   5.066  16.459  0.5448 -0.0512  0.1335
 8126TIP3   OH245868   2.625   0.357   2.965  0.1173 -0.2760  0.3372
 8126TIP3    H145869   2.579   0.373   2.882 -0.6328 -0.5787  0.6925
 8126TIP3    H245870   2.593   0.426   3.023  2.2288  1.2484 -0.2325
 8127TIP3   OH245871   4.392   2.901  12.201 -0.2353 -0.2234 -0.3594
 8127TIP3    H145872   4.299   2.925  12.190 -0.1435  0.8301  1.0726
 8127TIP3    H245873   4.390   2.815  12.244 -0.5420 -0.2917 -0.5093
 8128TIP3   OH245874   6.603   2.277   0.775 -0.5437 -0.0142  0.3562
 8128TIP3    H145875   6.548   2.222   0.830 -0.1102  0.7423  1.5566
 8128TIP3    H245876   6.662   2.320   0.836 -0.1353  0.9232 -0.6937
 8129TIP3   OH245877   5.524   4.366   5.546 -0.5379  0.2404 -0.5564
 8129TIP3    H145878   5.615   4.348   5.522  0.1783  1.2309  1.3184
 8129TIP3    H245879   5.502   4.297   5.609 -1.0988 -0.0304 -1.0527
 8130TIP3   OH245880   1.206   3.101   2.075  0.3736  0.5325  0.1465
 8130TIP3    H145881   1.239   3.084   1.986 -0.1571  1.6494 -0.2669
 8130TIP3    H245882   1.270   3.058   2.132  1.2893  0.7044 -0.7294
 8131TIP3   OH245883   0.506   1.313  11.351 -0.2439 -0.0407  0.3014
 8131TIP3    H145884   0.530   1.299  11.443  2.1939 -0.1747 -0.3389
 8131TIP3    H245885   0.501   1.224  11.314  1.2359  0.1202 -0.2978
 8132TIP3   OH245886   5.885   4.458  11.808 -0.0851  0.2252 -0.2660
 8132TIP3    H145887   5.941   4.466  11.885  1.5915 -0.6696 -1.3413
 8132TIP3    H245888   5.826   4.385  11.828  0.1723  0.1661  0.2736
 8133TIP3   OH245889   6.030   2.237   1.162  0.0080 -0.1797 -0.2577
 8133TIP3    H145890   6.003   2.189   1.240 -1.9002 -2.1378 -2.0516
 8133TIP3    H245891   5.963   2.304   1.150  0.5143  0.3736  0.0107
 8134TIP3   OH245892   5.622   5.535  12.636  0.0310  0.0116 -1.0806
 8134TIP3    H145893   5.609   5.612  12.580  0.1370 -0.7099 -2.1218
 8134TIP3    H245894   5.693   5.560  12.695  0.9481  0.2644 -2.2701
 8135TIP3   OH245895   3.913   6.125  16.266  0.1988  0.4648 -0.1734
 8135TIP3    H145896   3.962   6.197  16.306 -0.2800  0.4442  0.4527
 8135TIP3    H245897   3.927   6.137  16.172  1.5757  0.3368  0.0028
 8136TIP3   OH245898   4.962   5.147  16.027  0.5658 -0.6205 -0.1830
 8136TIP3    H145899   4.875   5.144  15.987  1.0338  0.0459 -1.2459
 8136TIP3    H245900   5.000   5.230  15.998  1.1383 -0.3841  1.1778
 8137TIP3   OH245901   3.514   0.383  11.479 -0.0501 -0.2210 -0.1063
 8137TIP3    H145902   3.460   0.372  11.401 -0.5465  1.8545 -0.0861
 8137TIP3    H245903   3.601   0.354  11.452 -0.3374 -0.0354 -1.2634
 8138TIP3   OH245904   4.325   6.693   1.556  0.4794 -0.0638  0.2182
 8138TIP3    H145905   4.412   6.730   1.574  0.2631  0.6307 -0.1691
 8138TIP3    H245906   4.303   6.725   1.469 -0.1502 -0.2848  0.2973
 8139TIP3   OH245907   5.389   4.445   2.924  0.6063 -0.3633  0.1057
 8139TIP3    H145908   5.449   4.466   2.852 -0.4011  1.2892 -0.2712
 8139TIP3    H245909   5.304   4.477   2.895 -0.3595 -2.1606  0.9021
 8140TIP3   OH245910   1.660   1.103  12.375 -0.8000 -0.2039 -0.3046
 8140TIP3    H145911   1.741   1.103  12.426 -0.8021  1.8015 -0.2496
 8140TIP3    H245912   1.591   1.085  12.440 -0.5326 -0.4996 -0.1024
 8141TIP3   OH245913   4.111   2.868  15.629 -0.2801  0.5751 -0.1152
 8141TIP3    H145914   4.153   2.936  15.681 -0.1662  1.7018 -1.6587
 8141TIP3    H245915   4.028   2.906  15.601  1.4798  1.6141 -4.2469
 8142TIP3   OH245916   2.462   6.802  12.167 -0.3479 -0.3766  0.1457
 8142TIP3    H145917   2.393   6.806  12.233 -1.4115  0.5042 -0.9987
 8142TIP3    H245918   2.451   6.882  12.116  1.1947 -0.4794 -0.3824
 8143TIP3   OH245919   4.199   5.994  15.418 -0.2005 -0.2242 -0.0346
 8143TIP3    H145920   4.252   6.049  15.359  1.5775 -2.0941 -0.2245
 8143TIP3    H245921   4.131   6.053  15.450 -0.0047  1.3572 -2.4076
 8144TIP3   OH245922   2.527   3.469   1.736 -0.0667 -0.6103 -0.3333
 8144TIP3    H145923   2.595   3.407   1.762 -0.4342 -0.5427  0.8136
 8144TIP3    H245924   2.552   3.497   1.648  2.0329  0.2941  0.5168
 8145TIP3   OH245925   0.587   3.904   0.130  0.0028 -0.5328 -0.4814
 8145TIP3    H145926   0.643   3.969   0.171 -1.8033  0.6012  0.2395
 8145TIP3    H245927   0.598   3.919   0.036 -0.0741  0.5271 -0.3261
 8146TIP3   OH245928   3.381   4.402  10.171 -1.2471 -0.0059  0.7403
 8146TIP3    H145929   3.459   4.456  10.164  0.0614 -1.9625 -0.6407
 8146TIP3    H245930   3.386   4.362  10.258 -0.9233  0.2097  0.8175
 8147TIP3   OH245931   2.658   1.078   2.726 -0.3377 -0.0053  0.1050
 8147TIP3    H145932   2.739   1.086   2.675 -0.6825 -0.0888 -0.4597
 8147TIP3    H245933   2.667   1.144   2.795  1.5976 -2.1272  1.9437
 8148TIP3   OH245934   4.975   3.546   0.053  0.0340 -0.5260  0.7842
 8148TIP3    H145935   4.904   3.484   0.070 -2.8089  2.2418 -0.4938
 8148TIP3    H245936   4.987   3.592   0.136 -1.8000  1.0078  0.2591
 8149TIP3   OH245937   6.724   2.579  12.712 -0.2404 -0.0019  0.3053
 8149TIP3    H145938   6.636   2.608  12.736 -0.3605  2.1548 -2.5643
 8149TIP3    H245939   6.781   2.615  12.780 -1.4304 -0.6172  1.6497
 8150TIP3   OH245940   3.200   6.574  15.471  0.5173  0.0715 -0.7256
 8150TIP3    H145941   3.213   6.653  15.523  0.2481 -0.0458 -0.4736
 8150TIP3    H245942   3.170   6.509  15.534  0.6838 -0.2166 -0.9385
 8151TIP3   OH245943   2.003   6.814   2.187  0.5157  0.7385 -0.3908
 8151TIP3    H145944   1.932   6.766   2.145 -1.0931  2.2313  0.5623
 8151TIP3    H245945   2.069   6.826   2.118 -0.5965  0.2178 -1.5566
 8152TIP3   OH245946   3.879   3.430  11.553  0.5914 -0.4914  0.0129
 8152TIP3    H145947   3.921   3.399  11.633  1.5515  2.9458  0.9021
 8152TIP3    H245948   3.905   3.522  11.546 -2.2528  0.1982 -2.4305
 8153TIP3   OH245949   1.295   2.477  13.339 -0.1303 -0.2542 -0.6664
 8153TIP3    H145950   1.389   2.477  13.320 -0.6243  2.2019 -3.3274
 8153TIP3    H245951   1.280   2.559  13.386 -0.6826 -1.5027  1.4145
 8154TIP3   OH245952   4.413   5.546   3.475 -0.3288 -0.0156 -0.0315
 8154TIP3    H145953   4.451   5.534   3.388  0.2525 -0.8459  0.3361
 8154TIP3    H245954   4.485   5.529   3.535 -0.6419  0.8661  0.6143
 8155TIP3   OH245955   2.274   5.220   1.196 -0.4331 -0.2048  0.0414
 8155TIP3    H145956   2.303   5.305   1.163 -0.5885 -0.9828 -2.2168
 8155TIP3    H245957   2.214   5.240   1.267 -1.4290  1.5989 -1.2908
 8156TIP3   OH245958   0.887   5.319   1.166  0.4586  0.1882 -0.2817
 8156TIP3    H145959   0.868   5.249   1.103 -0.6155  0.7129 -0.5510
 8156TIP3    H245960   0.943   5.277   1.232  1.7665 -0.3234 -1.6754
 8157TIP3   OH245961   2.382   6.006  13.637 -0.2225  0.2551  0.2375
 8157TIP3    H145962   2.428   6.017  13.554 -0.6807  0.9619  0.0657
 8157TIP3    H245963   2.362   6.096  13.666 -0.0645  0.0175  1.1120
 8158TIP3   OH245964   4.553   1.679   1.394 -0.4102 -0.3221 -0.4994
 8158TIP3    H145965   4.475   1.653   1.442  0.2040  2.1359  1.9934
 8158TIP3    H245966   4.531   1.765   1.358  0.3275 -0.6592 -1.7889
 8159TIP3   OH245967   3.437   2.603  13.458  0.5103  0.2594  0.0919
 8159TIP3    H145968   3.384   2.625  13.382  1.3795 -0.0149 -0.5968
 8159TIP3    H245969   3.384   2.631  13.533 -0.7923 -0.3947 -0.5607
 8160TIP3   OH245970   5.437   4.723  14.359 -0.6955  0.0974 -0.6243
 8160TIP3    H145971   5.488   4.797  14.392 -1.9688  1.1892 -1.0337
 8160TIP3    H245972   5.346   4.751  14.368 -1.1637 -0.8627 -2.1212
 8161TIP3   OH245973   4.808   1.476   5.478 -0.5005 -0.4925 -0.2743
 8161TIP3    H145974   4.795   1.429   5.560 -0.2812  1.1131  0.7005
 8161TIP3    H245975   4.876   1.540   5.497 -1.2823  0.6921 -1.3694
 8162TIP3   OH245976   6.193   1.689  11.631 -0.4030 -0.0270  0.3853
 8162TIP3    H145977   6.156   1.600  11.636 -1.9757  0.4753 -1.5125
 8162TIP3    H245978   6.251   1.686  11.554  0.3885  0.2980  0.9661
 8163TIP3   OH245979   0.247   1.447   3.069  0.1832  0.7700  0.3225
 8163TIP3    H145980   0.303   1.507   3.119 -0.5847  1.7467  0.0317
 8163TIP3    H245981   0.260   1.473   2.978 -1.6216  1.7770  0.3382
 8164TIP3   OH245982   5.935   3.836  14.533 -0.3980  0.0372 -0.1179
 8164TIP3    H145983   5.968   3.882  14.456 -1.7524 -1.5344 -1.6676
 8164TIP3    H245984   6.013   3.822  14.587  0.2834  2.7689 -0.3085
 8165TIP3   OH245985   5.976   4.231  14.102  0.4189 -0.5309  0.0806
 8165TIP3    H145986   5.981   4.142  14.137  1.3741 -1.1082 -1.4466
 8165TIP3    H245987   5.904   4.228  14.039  0.3638 -0.1866  0.1286
 8166TIP3   OH245988   2.936   6.223   2.280  0.4178 -0.5552 -0.1079
 8166TIP3    H145989   3.010   6.267   2.322  1.5640 -0.8538 -1.7791
 8166TIP3    H245990   2.893   6.176   2.351  1.3652  0.2474  1.0247
 8167TIP3   OH245991   6.285   6.593   1.339  0.4635  0.1033 -0.0392
 8167TIP3    H145992   6.256   6.641   1.417 -1.3127  0.5258 -0.9470
 8167TIP3    H245993   6.308   6.506   1.372 -0.4980  0.2040  0.9355
 8168TIP3   OH245994   4.251   0.856   2.363  0.6699 -0.2668  0.6730
 8168TIP3    H145995   4.238   0.812   2.447 -1.2973 -1.9980 -0.5144
 8168TIP3    H245996   4.280   0.787   2.303  0.5630  0.6502 -0.4576
 8169TIP3   OH245997   1.564   4.902   1.712 -0.3919 -0.1751 -0.0947
 8169TIP3    H145998   1.501   4.875   1.778 -0.9312  1.5269  0.0928
 8169TIP3    H245999   1.640   4.932   1.762 -0.7521  0.9945 -0.2278
 8170TIP3   OH246000   1.620   5.459  11.091  0.4757 -0.2275  0.0386
 8170TIP3    H146001   1.537   5.437  11.049 -0.1283  0.5042  0.8086
 8170TIP3    H246002   1.679   5.482  11.019 -0.2007 -0.0724 -0.4692
 8171TIP3   OH246003   6.223   5.968   5.918  0.4625 -0.2390 -0.1561
 8171TIP3    H146004   6.227   6.033   5.988 -0.3217 -0.2509 -0.0995
 8171TIP3    H246005   6.271   6.007   5.845  2.3221 -0.7035  0.7745
 8172TIP3   OH246006   3.202   3.721  10.293 -0.2301 -0.4944 -1.3184
 8172TIP3    H146007   3.211   3.816  10.285 -1.1684 -0.4865 -2.3476
 8172TIP3    H246008   3.279   3.694  10.343 -0.6750  0.9676  0.1792
 8173TIP3   OH246009   3.090   1.664   5.639  0.6961  0.3152 -0.3973
 8173TIP3    H146010   3.072   1.750   5.678  0.1735  0.6375 -1.3407
 8173TIP3    H246011   3.117   1.610   5.714 -2.8709  0.1959  0.9215
 8174TIP3   OH246012   2.909   2.424   2.650  0.3663  0.2942 -0.1476
 8174TIP3    H146013   3.003   2.441   2.651  0.1304  1.6595  0.6916
 8174TIP3    H246014   2.901   2.330   2.664  1.6342 -0.0394 -1.5299
 8175TIP3   OH246015   3.887   3.181  11.979 -0.1819 -0.3663 -0.2001
 8175TIP3    H146016   3.937   3.257  11.949 -0.1726 -0.4684 -0.4465
 8175TIP3    H246017   3.847   3.209  12.061  1.3196 -0.7009  0.6722
 8176TIP3   OH246018   0.227   0.808   4.634  0.0087 -0.2453  0.2147
 8176TIP3    H146019   0.318   0.790   4.656  0.4351 -1.1199 -2.2043
 8176TIP3    H246020   0.229   0.892   4.588 -0.3782 -0.3635 -0.0245
 8177TIP3   OH246021   5.007   2.762   0.339 -0.6675  0.1337  0.2356
 8177TIP3    H146022   4.969   2.850   0.334 -1.7748 -0.3298  0.3925
 8177TIP3    H246023   5.028   2.739   0.249 -2.5209 -0.3672 -0.0756
 8178TIP3   OH246024   4.363   4.452  14.696  0.0567 -0.3189 -0.0103
 8178TIP3    H146025   4.373   4.547  14.686 -1.4535 -0.1991 -0.5034
 8178TIP3    H246026   4.268   4.437  14.690  0.1632 -1.6953  1.5139
 8179TIP3   OH246027   3.269   4.806  12.251  0.2878 -0.5095  0.2851
 8179TIP3    H146028   3.222   4.889  12.242  1.6140  0.1871 -0.3817
 8179TIP3    H246029   3.309   4.792  12.165  1.5371 -0.9341  0.9187
 8180TIP3   OH246030   3.681   5.405  15.711 -0.5831 -0.7266 -0.0317
 8180TIP3    H146031   3.756   5.432  15.658 -1.7493  2.4633 -0.1450
 8180TIP3    H246032   3.623   5.362  15.648 -0.4564  0.0274 -0.6717
 8181TIP3   OH246033   0.233   1.128   5.970  0.0398 -0.4144 -0.6242
 8181TIP3    H146034   0.183   1.169   5.899 -1.3253 -2.5119 -0.9427
 8181TIP3    H246035   0.320   1.167   5.964 -0.6089  0.8792 -2.2054
 8182TIP3   OH246036   3.081   2.407   0.184 -0.1101 -0.0330 -1.2212
 8182TIP3    H146037   3.159   2.444   0.225 -0.2953  0.9089 -1.7343
 8182TIP3    H246038   3.024   2.481   0.168 -2.3318 -0.9828  1.7108
 8183TIP3   OH246039   3.490   2.932  13.942  0.7296  0.1193  0.2503
 8183TIP3    H146040   3.525   2.891  14.020 -0.8316  1.9372  1.9599
 8183TIP3    H246041   3.510   3.025  13.952 -0.3131  0.5061 -1.0659
 8184TIP3   OH246042   5.266   3.921  17.264  0.0000  0.2185  0.1481
 8184TIP3    H146043   5.177   3.949  17.281 -0.1752 -1.3663  1.9579
 8184TIP3    H246044   5.257   3.838  17.217  0.4905 -0.8115  1.8308
 8185TIP3   OH246045   5.846   6.441  12.578 -0.2117  0.9594  0.6531
 8185TIP3    H146046   5.778   6.479  12.523 -0.4740 -1.3931 -0.6790
 8185TIP3    H246047   5.916   6.418  12.517  1.4579  2.5295  1.8913
 8186TIP3   OH246048   2.404   3.898  13.956 -0.0672 -0.0916  0.7084
 8186TIP3    H146049   2.470   3.847  13.910 -0.5768 -0.8198  0.7736
 8186TIP3    H246050   2.321   3.870  13.918 -0.4034  0.1694  1.2400
 8187TIP3   OH246051   6.692   2.756   0.043 -0.2199 -0.1973 -0.3892
 8187TIP3    H146052   6.728   2.705  -0.029 -0.3372  0.0075 -0.5939
 8187TIP3    H246053   6.597   2.753   0.030 -0.2473 -0.2274 -0.1973
 8188TIP3   OH246054   0.388   4.812   4.754 -0.2016 -0.0501  0.2270
 8188TIP3    H146055   0.450   4.848   4.817 -1.4078  2.2148  0.1597
 8188TIP3    H246056   0.318   4.774   4.807 -0.7528  1.0093  0.2499
 8189TIP3   OH246057   3.267   1.247   2.605  0.2638  0.1600  0.2394
 8189TIP3    H146058   3.361   1.228   2.614  0.0225 -1.4829 -0.5048
 8189TIP3    H246059   3.234   1.248   2.695  0.6324 -1.3209  0.4086
 8190TIP3   OH246060   3.940   5.591   6.529  0.5172 -0.6141  0.3111
 8190TIP3    H146061   3.945   5.565   6.437  0.1740  2.3123 -0.5932
 8190TIP3    H246062   4.027   5.626   6.549  0.1501  0.0989  0.6706
 8191TIP3   OH246063   1.672   6.369   0.549 -0.3668 -0.3542 -0.1710
 8191TIP3    H146064   1.720   6.428   0.607 -0.9861 -1.1284  1.1424
 8191TIP3    H246065   1.581   6.397   0.557 -0.6647 -1.5157  0.4835
 8192TIP3   OH246066   3.058   2.338  16.787  0.6271  0.8249 -0.5083
 8192TIP3    H146067   3.021   2.273  16.846 -1.0092  1.1477 -1.1551
 8192TIP3    H246068   3.128   2.379  16.838  0.8919 -0.6072  0.3155
 8193TIP3   OH246069   6.776   5.757   0.838  0.7474 -0.4628  0.0781
 8193TIP3    H146070   6.767   5.714   0.753 -1.2277  2.1363 -1.0861
 8193TIP3    H246071   6.870   5.757   0.855  1.3271  0.3967 -2.8671
 8194TIP3   OH246072   0.871   1.834   1.487  0.0593 -0.0775  0.3621
 8194TIP3    H146073   0.808   1.776   1.444 -0.7190  0.8842  0.2037
 8194TIP3    H246074   0.852   1.827   1.580 -1.9716  2.1228  0.1658
 8195TIP3   OH246075   5.517   2.784   2.038 -0.2390  0.5529  0.2469
 8195TIP3    H146076   5.591   2.736   2.076 -0.7093 -3.1899 -3.2570
 8195TIP3    H246077   5.557   2.844   1.976  0.0333  0.5523  0.4197
 8196TIP3   OH246078   2.065   0.881  10.708  0.0243  0.3537 -0.3359
 8196TIP3    H146079   2.011   0.929  10.770 -0.0963  0.7681 -0.7593
 8196TIP3    H246080   2.007   0.863  10.634 -0.3517 -1.7323  0.4363
 8197TIP3   OH246081   6.698   3.615  17.118  0.0709 -0.0588 -0.3857
 8197TIP3    H146082   6.782   3.634  17.160  0.1367 -0.1725 -0.4687
 8197TIP3    H246083   6.652   3.700  17.116  0.2219  0.0214 -0.4311
 8198TIP3   OH246084   3.274   1.822  10.506 -0.1885 -0.0615 -0.0531
 8198TIP3    H146085   3.251   1.901  10.555 -0.0831  0.0117 -0.1227
 8198TIP3    H246086   3.355   1.845  10.460  0.0389 -0.3283  0.2138
 8199TIP3   OH246087   0.803   6.410   2.388 -0.5053 -0.5125  0.7940
 8199TIP3    H146088   0.787   6.437   2.298 -1.3898 -0.4566  0.9609
 8199TIP3    H246089   0.875   6.347   2.382 -1.1110 -1.1505 -0.0595
 8200TIP3   OH246090   1.875   0.957  13.667  0.5653  0.1134  0.3649
 8200TIP3    H146091   1.893   0.883  13.609  0.1304  0.2320  0.0722
 8200TIP3    H246092   1.807   1.007  13.621 -0.7882 -0.5410  1.6461
 8201TIP3   OH246093   6.499   0.784  11.033  0.3773 -0.4284 -0.4856
 8201TIP3    H146094   6.569   0.763  11.095 -1.0122 -1.5737  0.7151
 8201TIP3    H246095   6.519   0.731  10.956  2.2502  1.1887 -1.1588
 8202TIP3   OH246096   1.409   3.626  10.646 -0.7630  0.1372 -0.0448
 8202TIP3    H146097   1.444   3.689  10.709  0.3482 -0.8620  0.3374
 8202TIP3    H246098   1.346   3.677  10.595  0.0138  1.5356  0.3565
 8203TIP3   OH246099   2.428   1.590  10.957 -0.2926  0.0712  0.1674
 8203TIP3    H146100   2.359   1.536  10.996 -0.9073  1.4881  1.0597
 8203TIP3    H246101   2.390   1.622  10.876  0.3068 -1.3316 -0.6939
 8204TIP3   OH246102   0.814   0.781  10.248  0.1812  0.3508 -0.2476
 8204TIP3    H146103   0.864   0.863  10.254  0.2297  0.3664 -0.8833
 8204TIP3    H246104   0.730   0.806  10.211  0.6287 -0.0656 -1.5670
 8205TIP3   OH246105   0.432   2.054  16.037  0.2685  0.5065  0.2563
 8205TIP3    H146106   0.436   2.148  16.054 -1.9690  0.7933 -0.6042
 8205TIP3    H246107   0.343   2.028  16.063 -0.4263 -0.6064 -2.9477
 8206TIP3   OH246108   1.562   5.769  14.087 -0.0507  0.2649  0.0427
 8206TIP3    H146109   1.603   5.715  14.019 -0.7657 -0.3405  0.0922
 8206TIP3    H246110   1.489   5.812  14.044 -0.9187 -0.6446  0.5853
 8207TIP3   OH246111   0.486   0.793  16.774  0.0704  0.0452  0.2190
 8207TIP3    H146112   0.431   0.838  16.710  1.1798 -0.7855 -1.3497
 8207TIP3    H246113   0.575   0.804  16.741  0.6850 -0.1558  1.7837
 8208TIP3   OH246114   3.380   0.638  16.513  0.3768 -0.8920  0.2254
 8208TIP3    H146115   3.368   0.732  16.524 -0.3322 -0.5355 -3.2052
 8208TIP3    H246116   3.468   0.620  16.546 -0.8645  0.2710  4.4928
 8209TIP3   OH246117   0.625   6.691  11.643 -0.6303 -0.0987 -0.4171
 8209TIP3    H146118   0.660   6.754  11.580 -0.0958  0.7763  0.7309
 8209TIP3    H246119   0.569   6.743  11.700  0.2062 -0.5561  0.8450
 8210TIP3   OH246120   0.759   4.805  15.432 -0.0937  0.5690 -0.0258
 8210TIP3    H146121   0.734   4.805  15.524 -0.0562 -0.8764 -0.0095
 8210TIP3    H246122   0.792   4.717  15.415 -0.6656  0.6189 -1.5706
 8211TIP3   OH246123   4.977   3.548   2.072  0.2152  0.8792  0.1187
 8211TIP3    H146124   5.017   3.630   2.100  1.1694  0.4335  0.0901
 8211TIP3    H246125   4.986   3.490   2.147  0.3329  0.5301 -0.1635
 8212TIP3   OH246126   0.579   2.017   3.223  0.0180 -0.1973 -0.6111
 8212TIP3    H146127   0.601   1.986   3.135  0.0893  0.3221 -0.7769
 8212TIP3    H246128   0.658   2.002   3.275 -0.4486 -1.7274 -0.3025
 8213TIP3   OH246129   0.200   5.449  14.702  0.2124 -0.0276 -0.2716
 8213TIP3    H146130   0.117   5.456  14.655  0.8048  0.6590 -1.2236
 8213TIP3    H246131   0.233   5.362  14.679 -0.7264 -0.7305  0.9413
 8214TIP3   OH246132   6.449   5.111   0.371  0.2661  0.7824  0.2077
 8214TIP3    H146133   6.531   5.073   0.338 -0.1055  1.1069 -1.1481
 8214TIP3    H246134   6.384   5.043   0.356 -0.2305  1.5786 -1.3616
 8215TIP3   OH246135   3.816   6.040   3.167  0.3585  0.2279  0.5860
 8215TIP3    H146136   3.889   6.007   3.116 -0.1077  1.1592 -0.7084
 8215TIP3    H246137   3.818   5.989   3.248  1.1436 -1.2252 -0.3311
 8216TIP3   OH246138   0.058   0.852   2.991  0.1843  0.5793 -0.0349
 8216TIP3    H146139   0.121   0.866   3.061  0.5700  0.3258 -0.3263
 8216TIP3    H246140   0.107   0.804   2.924 -0.3586  0.2460 -0.1982
 8217TIP3   OH246141   2.862   2.085   4.125  0.2231 -0.5740  0.4311
 8217TIP3    H146142   2.923   2.158   4.123  0.9998 -1.2263  0.1261
 8217TIP3    H246143   2.908   2.014   4.080 -1.1775 -0.7341 -0.8199
 8218TIP3   OH246144   6.029   0.750  14.046 -0.1211  0.3897  0.1900
 8218TIP3    H146145   5.956   0.700  14.009 -0.9167  2.9271 -1.7696
 8218TIP3    H246146   5.988   0.815  14.103  0.7336  0.5652  0.6160
 8219TIP3   OH246147   6.546   2.229   3.037  0.3683  0.4402  0.3273
 8219TIP3    H146148   6.513   2.139   3.038 -0.3256  0.6899  0.1187
 8219TIP3    H246149   6.522   2.265   3.122  0.2510  0.5671  0.2411
 8220TIP3   OH246150   5.161   0.098   1.954 -0.0843  0.0612 -0.4863
 8220TIP3    H146151   5.192   0.185   1.930 -0.6991  0.3179 -0.3419
 8220TIP3    H246152   5.159   0.098   2.049  2.8151 -1.1184 -0.3551
 8221TIP3   OH246153   1.286   2.747  12.398  0.2008 -0.6412 -0.0136
 8221TIP3    H146154   1.208   2.727  12.346 -1.5734  0.7756  2.0510
 8221TIP3    H246155   1.293   2.675  12.460  1.3333 -1.4405 -1.0344
 8222TIP3   OH246156   4.231   4.735   3.111 -0.2366 -0.5245 -0.0514
 8222TIP3    H146157   4.145   4.720   3.071 -0.4675 -0.0211  0.2493
 8222TIP3    H246158   4.264   4.815   3.069  0.4127 -1.1378 -0.7086
 8223TIP3   OH246159   4.396   0.413  15.592  0.2898  0.2815  0.2487
 8223TIP3    H146160   4.390   0.327  15.635 -2.4593  0.8791  1.1977
 8223TIP3    H246161   4.414   0.393  15.500  1.8372 -1.2100  0.8479
 8224TIP3   OH246162   3.566   3.223   0.212 -0.0076 -0.0197  0.2132
 8224TIP3    H146163   3.478   3.195   0.189  0.6842 -1.3976 -0.7916
 8224TIP3    H246164   3.565   3.318   0.199 -1.5218  0.0738  0.8663
 8225TIP3   OH246165   0.373   0.942  14.276 -0.4350  0.3779 -0.5599
 8225TIP3    H146166   0.323   0.886  14.216  0.0841 -2.1295  1.2866
 8225TIP3    H246167   0.461   0.946  14.237 -0.6203  0.3632 -0.9831
 8226TIP3   OH246168   2.515   3.725   2.660  0.0476 -0.3099 -0.3971
 8226TIP3    H146169   2.483   3.666   2.593  0.2285 -0.2818 -0.5092
 8226TIP3    H246170   2.496   3.813   2.626 -0.3182 -0.3039 -0.1826
 8227TIP3   OH246171   3.337   1.185   5.580 -0.3010  0.5567  0.0670
 8227TIP3    H146172   3.292   1.228   5.652  0.4351  1.3557  0.0505
 8227TIP3    H246173   3.290   1.102   5.568  2.1878 -1.6277  4.3033
 8228TIP3   OH246174   6.800   1.327   2.008  0.2329  0.1860 -0.0579
 8228TIP3    H146175   6.762   1.412   1.989 -0.1581 -0.0454 -0.3059
 8228TIP3    H246176   6.768   1.306   2.096  1.3634  0.8722  0.5309
 8229TIP3   OH246177   6.718   5.337  17.094  0.1804 -0.5004  0.0702
 8229TIP3    H146178   6.627   5.358  17.072  0.3597 -0.8580 -1.0545
 8229TIP3    H246179   6.724   5.242  17.083  0.0698 -0.8229  2.5308
 8230TIP3   OH246180   5.817   6.543   3.224 -0.1412 -0.4246 -0.0134
 8230TIP3    H146181   5.760   6.476   3.262 -0.7119  0.7656  1.2492
 8230TIP3    H246182   5.780   6.626   3.254  0.5748  0.4603 -1.5518
 8231TIP3   OH246183   6.376   2.247  16.907  0.2099 -0.2684  0.0534
 8231TIP3    H146184   6.310   2.218  16.970  1.2615 -0.2343  1.1971
 8231TIP3    H246185   6.459   2.215  16.943  1.0249  1.3206 -0.3764
 8232TIP3   OH246186   2.920   0.046  12.787 -0.1650  0.1861  0.0857
 8232TIP3    H146187   2.933   0.139  12.806  1.2891  0.1264 -0.5292
 8232TIP3    H246188   2.979   0.001  12.848 -1.0228 -0.3495  0.5274
 8233TIP3   OH246189   3.573   5.383  10.987 -0.1086  0.0192  0.0337
 8233TIP3    H146190   3.521   5.463  10.973  1.2498  0.8273 -0.5859
 8233TIP3    H246191   3.622   5.373  10.905 -0.0016 -1.2551  0.2565
 8234TIP3   OH246192   4.259   2.520   3.002 -0.2419 -0.2028 -0.5980
 8234TIP3    H146193   4.170   2.507   2.969 -0.4733 -0.5555  0.1439
 8234TIP3    H246194   4.295   2.431   3.009  0.0084 -0.0914 -0.4760
 8235TIP3   OH246195   3.164   2.667  16.915  0.1410 -0.1149  0.0590
 8235TIP3    H146196   3.201   2.600  16.857  0.9066  0.0332  0.3673
 8235TIP3    H246197   3.132   2.619  16.991 -0.9988 -0.3269 -0.5474
 8236TIP3   OH246198   0.492   4.230  13.880  0.2900 -0.5451  0.1441
 8236TIP3    H146199   0.459   4.298  13.821  0.6520 -0.3782  0.1345
 8236TIP3    H246200   0.416   4.176  13.899 -0.3863  0.8893  1.5710
 8237TIP3   OH246201   6.583   4.226  15.654 -0.0492  0.3835 -0.1593
 8237TIP3    H146202   6.514   4.279  15.615  0.9174  0.6710 -1.4833
 8237TIP3    H246203   6.651   4.288  15.679  0.9858 -0.1762 -1.5088
 8238TIP3   OH246204   1.331   1.180  15.422  0.0981  0.2871  0.2506
 8238TIP3    H146205   1.360   1.183  15.331  1.5670  1.6742  0.7546
 8238TIP3    H246206   1.410   1.159  15.472 -1.0237 -2.2094  1.0777
 8239TIP3   OH246207   6.043   1.947   4.706  0.0794 -0.0693 -0.0808
 8239TIP3    H146208   5.980   1.918   4.773  0.6547  0.1784  0.5773
 8239TIP3    H246209   6.047   1.875   4.644 -1.6844  0.3547 -0.7281
 8240TIP3   OH246210   3.128   2.299  15.093  0.5264  0.5029 -0.0118
 8240TIP3    H146211   3.144   2.243  15.017 -0.4605 -0.1691  0.2721
 8240TIP3    H246212   3.197   2.277  15.155 -0.5765 -1.3289  0.6114
 8241TIP3   OH246213   6.212   4.799   3.074 -0.6426  0.5040 -0.1737
 8241TIP3    H146214   6.150   4.785   3.002 -0.3261  0.9816 -0.5396
 8241TIP3    H246215   6.220   4.713   3.116 -0.8695  0.2408 -0.6689
 8242TIP3   OH246216   6.344   5.196   1.300  0.2992  0.9736  0.1812
 8242TIP3    H146217   6.386   5.111   1.308 -0.2867  0.8278  1.9255
 8242TIP3    H246218   6.416   5.259   1.305  0.6908  0.5962 -0.6901
 8243TIP3   OH246219   0.279   1.613   2.850 -0.3082  0.1470  0.2282
 8243TIP3    H146220   0.353   1.664   2.817 -0.7781  0.7229  0.0435
 8243TIP3    H246221   0.263   1.648   2.938 -0.6915  0.3863  0.0652
 8244TIP3   OH246222   5.401   3.650  10.366 -0.2073  0.5198 -0.6892
 8244TIP3    H146223   5.400   3.731  10.416 -4.2511  1.0754 -1.5256
 8244TIP3    H246224   5.410   3.581  10.431  0.0443  1.4716  0.2967
 8245TIP3   OH246225   1.513   4.901  11.052 -0.1003 -0.3855 -0.1209
 8245TIP3    H146226   1.439   4.959  11.033 -1.2536 -1.8152 -0.0869
 8245TIP3    H246227   1.481   4.814  11.030  0.9647 -1.2444  1.6246
 8246TIP3   OH246228   0.771   5.572   1.184 -0.1036 -0.1812 -0.2510
 8246TIP3    H146229   0.815   5.608   1.107 -2.9919 -0.7871 -2.3014
 8246TIP3    H246230   0.760   5.479   1.165 -2.1345 -0.0669  0.2070
 8247TIP3   OH246231   5.838   1.364   3.393 -0.1017  0.2913 -0.5883
 8247TIP3    H146232   5.913   1.374   3.335  2.3518 -2.1222  1.9497
 8247TIP3    H246233   5.790   1.289   3.358  0.6065 -0.3044 -0.2925
 8248TIP3   OH246234   5.641   3.659   5.183  0.2847  0.1919 -0.0673
 8248TIP3    H146235   5.677   3.688   5.267  0.0398  0.2393  0.0209
 8248TIP3    H246236   5.561   3.711   5.172 -0.3272 -0.6773  0.2410
 8249TIP3   OH246237   4.891   0.759  16.625 -0.3094 -0.2496  0.3333
 8249TIP3    H146238   4.910   0.849  16.597 -0.1513 -0.5215 -0.4510
 8249TIP3    H246239   4.925   0.754  16.714 -1.0643  0.7210  0.6913
 8250TIP3   OH246240   5.637   3.624   6.269  0.3927  1.0154 -0.1830
 8250TIP3    H146241   5.626   3.529   6.274 -1.3735  1.2645  1.1636
 8250TIP3    H246242   5.719   3.637   6.221  0.8943 -1.1898  0.0625
 8251TIP3   OH246243   3.402   2.683  12.866  0.1602  0.3294 -0.3706
 8251TIP3    H146244   3.466   2.626  12.825 -1.2132 -0.8844 -0.8793
 8251TIP3    H246245   3.445   2.768  12.871  3.3296 -1.3529  3.0637
 8252TIP3   OH246246   5.975   2.462  12.813 -0.1465  0.2345 -0.5521
 8252TIP3    H146247   6.057   2.506  12.838  0.0413 -0.5121  0.1662
 8252TIP3    H246248   5.913   2.490  12.880 -0.1796 -0.1209 -0.4370
 8253TIP3   OH246249   5.517   2.205  11.977 -0.2239 -0.2474 -0.5409
 8253TIP3    H146250   5.554   2.119  11.996  0.2581 -0.1072 -0.8131
 8253TIP3    H246251   5.424   2.198  11.999 -0.2411 -0.9223 -0.8297
 8254TIP3   OH246252   5.314   1.616  12.077  0.3880  0.5667  0.0059
 8254TIP3    H146253   5.279   1.544  12.130  1.9009 -0.7157 -0.6870
 8254TIP3    H246254   5.407   1.621  12.102  0.8919  0.5570 -1.8368
 8255TIP3   OH246255   5.419   6.178  13.159  0.1082  0.2013 -0.2306
 8255TIP3    H146256   5.511   6.188  13.185  0.5189 -0.4811 -1.3895
 8255TIP3    H246257   5.373   6.248  13.206  1.5207  1.8428 -1.2358
 8256TIP3   OH246258   5.107   4.493  14.120  0.2175  0.2860  0.2716
 8256TIP3    H146259   5.166   4.560  14.155 -0.1794  0.3810  0.7721
 8256TIP3    H246260   5.095   4.432  14.193 -1.9233  1.3530  0.8468
 8257TIP3   OH246261   4.695   4.790  13.914  0.3418 -0.1741 -0.1504
 8257TIP3    H146262   4.603   4.787  13.940  0.8216 -0.5798  1.5667
 8257TIP3    H246263   4.740   4.734  13.977  1.7334 -0.2005 -1.1397
 8258TIP3   OH246264   2.467   2.479  17.092  0.5323  0.2660  0.3852
 8258TIP3    H146265   2.480   2.397  17.044  0.0236 -0.4768  1.5023
 8258TIP3    H246266   2.551   2.523  17.086  0.5607  0.0384 -0.9358
 8259TIP3   OH246267   5.684   1.012   6.167 -0.2668  0.5244 -0.1466
 8259TIP3    H146268   5.623   1.071   6.123  0.7492  2.0350  0.4117
 8259TIP3    H246269   5.665   1.024   6.260  0.7982  0.9107  0.0220
 8260TIP3   OH246270   0.844   0.992   4.856 -0.1810  0.0289 -0.4933
 8260TIP3    H146271   0.837   0.909   4.902 -1.4865 -0.4291 -1.4817
 8260TIP3    H246272   0.880   0.969   4.770 -0.0798  0.5466 -0.5926
 8261TIP3   OH246273   3.601   2.559  11.990  0.0769 -0.3290  0.5285
 8261TIP3    H146274   3.564   2.503  12.058  0.4183 -0.1848  0.8384
 8261TIP3    H246275   3.525   2.598  11.947 -0.1677 -1.3592  0.0244
 8262TIP3   OH246276   3.326   1.821  11.827  0.0660 -0.6930 -0.6003
 8262TIP3    H146277   3.414   1.854  11.844 -0.5920  0.9531 -0.2507
 8262TIP3    H246278   3.336   1.762  11.752  1.7567 -2.0209  0.6563
 8263TIP3   OH246279   3.554   3.300   6.600  0.1414  0.2168 -0.3089
 8263TIP3    H146280   3.552   3.313   6.505 -2.6411 -1.4110 -0.5456
 8263TIP3    H246281   3.522   3.383   6.636  1.9205  1.1016 -0.7356
 8264TIP3   OH246282   4.959   2.285  16.271  0.0773 -1.1113 -0.2248
 8264TIP3    H146283   4.864   2.297  16.273  0.1610 -0.6952  1.4090
 8264TIP3    H246284   4.972   2.210  16.212 -1.3629 -2.0745  0.6292
 8265TIP3   OH246285   3.404   5.013  11.871  0.0642  0.4903 -0.1412
 8265TIP3    H146286   3.500   5.009  11.880  0.0207 -0.8221 -0.2166
 8265TIP3    H246287   3.390   5.029  11.778  0.1788 -1.8727 -0.6073
 8266TIP3   OH246288   2.629   2.840   0.907 -0.5554  0.1444 -0.2283
 8266TIP3    H146289   2.618   2.907   0.974  0.9124  0.8569 -0.6766
 8266TIP3    H246290   2.595   2.879   0.827  2.2787  1.2421 -0.9726
 8267TIP3   OH246291   3.177   6.771   6.101 -0.5591  0.2068 -0.1835
 8267TIP3    H146292   3.200   6.679   6.088 -1.7268  0.0135 -0.9099
 8267TIP3    H246293   3.112   6.769   6.171 -0.2589  0.5206  0.1022
 8268TIP3   OH246294   4.508   3.009   3.566 -0.1755 -0.6000 -0.3057
 8268TIP3    H146295   4.576   3.023   3.500 -0.1453  0.9466  0.0266
 8268TIP3    H246296   4.476   3.097   3.586  0.8410 -0.8573  2.7892
 8269TIP3   OH246297   4.565   6.118   4.373 -0.0709 -0.3824 -0.5525
 8269TIP3    H146298   4.604   6.182   4.314  0.7211 -0.2000  0.1668
 8269TIP3    H246299   4.474   6.148   4.383  0.0580  0.1355 -0.8936
 8270TIP3   OH246300   0.994   1.595   2.783 -0.1674  0.0085  0.0172
 8270TIP3    H146301   0.986   1.668   2.721 -2.5705 -2.3539 -2.5728
 8270TIP3    H246302   0.907   1.557   2.787  0.6014 -1.5904  2.8012
 8271TIP3   OH246303   0.342   6.328  11.808  0.3703 -0.2575 -0.3155
 8271TIP3    H146304   0.262   6.360  11.768  0.4105  0.1605 -0.0638
 8271TIP3    H246305   0.329   6.340  11.902  0.0685 -1.7089 -0.1572
 8272TIP3   OH246306   0.636   0.677  11.041  0.9656 -0.5968 -0.2502
 8272TIP3    H146307   0.613   0.734  10.968  0.1200 -1.2402 -0.4937
 8272TIP3    H246308   0.729   0.692  11.056  1.0974 -0.3396 -1.3518
 8273TIP3   OH246309   0.533   2.152  16.316 -0.2044  0.1277  0.0366
 8273TIP3    H146310   0.537   2.184  16.226 -1.9229 -0.7480 -0.3794
 8273TIP3    H246311   0.541   2.231  16.370  0.0399  0.7480 -0.8910
 8274TIP3   OH246312   2.123   5.311  12.090  0.0239 -0.1337 -0.5175
 8274TIP3    H146313   2.137   5.218  12.108  0.4247 -0.3192 -1.7527
 8274TIP3    H246314   2.028   5.321  12.086 -0.0231 -0.4466 -0.1382
 8275TIP3   OH246315   6.637   5.811  16.078 -0.9692 -0.0408  0.3870
 8275TIP3    H146316   6.635   5.763  15.995 -2.2939 -0.8186  0.8618
 8275TIP3    H246317   6.599   5.751  16.142 -0.0749  0.6056  1.5406
 8276TIP3   OH246318   3.269   0.787   0.841 -0.3801 -0.0158  0.2160
 8276TIP3    H146319   3.361   0.773   0.865 -0.8025 -2.3190  0.5347
 8276TIP3    H246320   3.240   0.858   0.899  0.9916  0.2462  0.5961
 8277TIP3   OH246321   1.889   2.950  11.487 -0.7063  0.8371  0.2815
 8277TIP3    H146322   1.925   2.870  11.525  0.3516  0.2908 -1.7496
 8277TIP3    H246323   1.841   2.992  11.558 -0.1293 -0.9190  1.7378
 8278TIP3   OH246324   3.711   5.432   4.602 -0.6883  0.0716  0.7167
 8278TIP3    H146325   3.680   5.510   4.556 -0.2030 -0.2615 -0.1758
 8278TIP3    H246326   3.801   5.421   4.573 -0.4128 -0.2153  1.6531
 8279TIP3   OH246327   0.108   2.117   3.232  0.1002  0.5664 -0.0459
 8279TIP3    H146328   0.198   2.087   3.247 -0.4021 -0.8050  0.2390
 8279TIP3    H246329   0.055   2.064   3.291 -0.5511  3.7145  2.3522
 8280TIP3   OH246330   0.880   5.958   5.488  0.4503  0.0858  0.3613
 8280TIP3    H146331   0.849   6.042   5.523  0.4776  0.8378 -1.3642
 8280TIP3    H246332   0.973   5.955   5.512  0.8943  1.3967 -1.0961
 8281TIP3   OH246333   3.473   0.124  17.122 -0.1458  0.3237 -0.0590
 8281TIP3    H146334   3.484   0.038  17.163  1.7654  1.2443  1.4263
 8281TIP3    H246335   3.468   0.186  17.195 -0.7110  1.5626 -1.1296
 8282TIP3   OH246336   6.215   3.384   6.585 -0.7869 -0.3515  0.2757
 8282TIP3    H146337   6.223   3.296   6.548  0.1932 -0.8614  1.6456
 8282TIP3    H246338   6.237   3.442   6.513  2.0422 -1.3517  0.2797
 8283TIP3   OH246339   6.539   3.135  12.155 -0.3379 -0.4266 -0.1472
 8283TIP3    H146340   6.558   3.054  12.108 -3.2147 -1.1603 -0.1166
 8283TIP3    H246341   6.506   3.106  12.240  0.6350  0.8437  0.6968
 8284TIP3   OH246342   1.953   0.175   0.725  0.1678 -0.0283  0.4482
 8284TIP3    H146343   2.043   0.145   0.732  0.2224 -0.0417 -0.2610
 8284TIP3    H246344   1.950   0.225   0.644 -0.2967  0.5635  0.8239
 8285TIP3   OH246345   5.362   5.303  16.138  0.0443  0.3960 -0.1233
 8285TIP3    H146346   5.320   5.235  16.191 -0.6127 -1.3579 -2.8120
 8285TIP3    H246347   5.297   5.372  16.130 -0.0397  0.4442  0.8774
 8286TIP3   OH246348   4.276   5.044  14.529 -0.0968  0.1846  0.0378
 8286TIP3    H146349   4.218   5.040  14.604 -1.2333  0.9723 -0.7847
 8286TIP3    H246350   4.222   5.078  14.458  1.3487  0.8954 -0.7544
 8287TIP3   OH246351   0.599   2.517  17.067  0.2025  0.8639  0.0456
 8287TIP3    H146352   0.624   2.435  17.109 -0.4826  0.6595  0.0647
 8287TIP3    H246353   0.508   2.530  17.093 -0.1470  0.8769 -1.1449
 8288TIP3   OH246354   1.565   4.571  11.449  0.6090  0.3410  0.2922
 8288TIP3    H146355   1.500   4.636  11.423 -1.0815 -1.0424  1.0126
 8288TIP3    H246356   1.601   4.604  11.532  0.5727  0.9235  0.0747
 8289TIP3   OH246357   6.050   4.840   1.395 -0.6905 -0.1178  0.0791
 8289TIP3    H146358   6.029   4.786   1.318  0.4250  0.1448 -0.4111
 8289TIP3    H246359   6.005   4.796   1.467 -1.4163 -0.5954 -0.6470
 8290TIP3   OH246360   4.114   5.698  14.325  0.0579  0.2708  0.1735
 8290TIP3    H146361   4.050   5.730  14.262  0.4542  1.1922  0.2316
 8290TIP3    H246362   4.073   5.621  14.364 -0.6445  0.3415 -0.4201
 8291TIP3   OH246363   3.778   6.332   1.124  0.7472 -0.4998 -0.3920
 8291TIP3    H146364   3.738   6.251   1.156 -1.0161  0.0098 -1.2324
 8291TIP3    H246365   3.842   6.355   1.191 -0.6558 -1.1479  1.2252
 8292TIP3   OH246366   2.609   6.114  14.174 -0.0424 -0.2005  0.0404
 8292TIP3    H146367   2.620   6.192  14.228  0.2596 -0.5662  0.5123
 8292TIP3    H246368   2.515   6.099  14.171 -0.0136 -0.6261  1.1063
 8293TIP3   OH246369   1.222   4.098   3.372  0.5923  0.3241 -0.1866
 8293TIP3    H146370   1.171   4.165   3.327  1.5377  0.1789 -1.4981
 8293TIP3    H246371   1.307   4.140   3.388  1.3219 -0.6976 -1.3616
 8294TIP3   OH246372   2.600   0.306   4.162 -0.3179  0.3564 -0.5840
 8294TIP3    H146373   2.507   0.325   4.162 -0.3059  0.4106 -1.3052
 8294TIP3    H246374   2.609   0.227   4.110  0.0100  0.1961 -0.2895
 8295TIP3   OH246375   4.443   0.065   5.838 -0.2773 -0.2723  0.0036
 8295TIP3    H146376   4.456   0.150   5.880  0.3290 -0.7521  0.8172
 8295TIP3    H246377   4.372   0.025   5.888 -0.1859 -0.4694 -0.0238
 8296TIP3   OH246378   3.698   3.025   6.341  0.3962  0.1593 -0.5777
 8296TIP3    H146379   3.603   3.027   6.356  1.0089  1.9539  3.9729
 8296TIP3    H246380   3.717   2.933   6.323 -2.0630 -0.4487 -0.2960
 8297TIP3   OH246381   1.858   2.209  15.183 -0.0529  0.1672  0.8001
 8297TIP3    H146382   1.903   2.283  15.142 -2.4232  0.1059 -2.1212
 8297TIP3    H246383   1.915   2.134  15.166  0.6175  0.7290  0.5439
 8298TIP3   OH246384   6.567   4.507   3.776  0.1978  0.3692  0.9243
 8298TIP3    H146385   6.477   4.525   3.752 -0.7309 -3.1873  1.4480
 8298TIP3    H246386   6.580   4.552   3.859 -0.9679  1.1232  0.7044
 8299TIP3   OH246387   3.988   0.253   0.251  0.0134  0.1956 -0.5462
 8299TIP3    H146388   3.986   0.329   0.193 -0.9315  0.7368  0.1734
 8299TIP3    H246389   4.062   0.269   0.309  0.3621  0.1274 -0.9706
 8300TIP3   OH246390   3.085   4.616   0.481  0.2938  0.2383  0.1316
 8300TIP3    H146391   3.157   4.581   0.428 -0.0749 -2.3346  1.2123
 8300TIP3    H246392   3.009   4.564   0.455 -0.4492  0.7132  1.3169
 8301TIP3   OH246393   4.514   1.094   1.275  0.1192 -0.7284  0.2270
 8301TIP3    H146394   4.458   1.116   1.349 -1.6768  0.1517 -1.3381
 8301TIP3    H246395   4.484   1.150   1.204  1.3018 -2.0586 -1.3981
 8302TIP3   OH246396   5.115   3.252  11.438  0.6333 -0.2972  0.5654
 8302TIP3    H146397   5.095   3.287  11.524 -0.5923  1.5723 -0.4569
 8302TIP3    H246398   5.115   3.157  11.450 -1.4504 -0.1157  2.2145
 8303TIP3   OH246399   0.286   4.457   4.908  0.1982  0.3069 -0.5592
 8303TIP3    H146400   0.242   4.493   4.831 -0.5992  1.6427  0.4931
 8303TIP3    H246401   0.305   4.366   4.885 -0.1205  0.6640 -2.2839
 8304TIP3   OH246402   3.292   1.214   3.986  0.1525  0.1410  0.1683
 8304TIP3    H146403   3.245   1.279   3.933  1.6631  2.7534  1.8997
 8304TIP3    H246404   3.234   1.138   3.988 -1.6945  1.4159 -1.9180
 8305TIP3   OH246405   0.421   1.179   0.595  0.4694  0.1585 -0.2608
 8305TIP3    H146406   0.477   1.200   0.520 -1.0039  0.6243 -1.2351
 8305TIP3    H246407   0.415   1.083   0.594 -1.7320  0.2700 -2.3793
 8306TIP3   OH246408   3.232   0.380  15.334 -0.3465  0.6104  0.4560
 8306TIP3    H146409   3.223   0.285  15.324  0.3227  0.7124 -1.2565
 8306TIP3    H246410   3.263   0.391  15.424  1.5304 -0.9417  0.0383
 8307TIP3   OH246411   5.102   2.053  14.542  0.6957  0.0899  0.3559
 8307TIP3    H146412   5.045   1.987  14.504  0.0085  0.9535 -0.1310
 8307TIP3    H246413   5.191   2.025  14.517  0.7098 -2.4715  3.0005
 8308TIP3   OH246414   3.387   2.266  15.184 -0.3558  0.1473 -0.3349
 8308TIP3    H146415   3.456   2.249  15.120 -1.4726  1.0461 -1.8151
 8308TIP3    H246416   3.367   2.359  15.174 -2.0961 -0.2102 -0.2500
 8309TIP3   OH246417   0.896   0.742  12.235 -0.3955 -0.6477 -0.0433
 8309TIP3    H146418   0.854   0.770  12.154  0.2698  0.0885 -0.1459
 8309TIP3    H246419   0.989   0.734  12.212  0.0948  1.3642  1.0821
 8310TIP3   OH246420   2.293   1.158  12.866 -0.9339  0.3771  0.3791
 8310TIP3    H146421   2.369   1.172  12.924 -1.4702 -0.3855  1.2761
 8310TIP3    H246422   2.227   1.118  12.923 -1.3084 -0.8059 -0.8667
 8311TIP3   OH246423   4.157   1.349  16.724  0.2270  0.0603  0.3589
 8311TIP3    H146424   4.071   1.306  16.724  0.9970 -1.5038  0.8396
 8311TIP3    H246425   4.207   1.305  16.656  0.6945  0.9000  0.1478
 8312TIP3   OH246426   2.154   0.151   0.049 -0.2096 -0.8791 -0.3544
 8312TIP3    H146427   2.244   0.129   0.026  1.4392  0.8398  3.8320
 8312TIP3    H246428   2.113   0.068   0.071  1.3639 -1.3685  0.7871
 8313TIP3   OH246429   1.917   2.763  15.702  0.4868 -0.2118 -0.4879
 8313TIP3    H146430   1.859   2.740  15.628 -0.4081 -0.8891  0.4024
 8313TIP3    H246431   1.928   2.680  15.749  1.3776  0.1370 -0.0854
 8314TIP3   OH246432   2.049   6.213   3.930  0.1545 -0.1358  0.5810
 8314TIP3    H146433   2.090   6.251   4.008 -0.8422 -0.6783  1.3883
 8314TIP3    H246434   2.117   6.158   3.891  0.3226 -0.7708  1.7279
 8315TIP3   OH246435   6.146   3.923   3.457 -0.3048  0.4845 -0.4852
 8315TIP3    H146436   6.134   3.929   3.552 -1.2862  1.3424 -0.6533
 8315TIP3    H246437   6.088   3.990   3.421  1.1069  1.1253 -1.6290
 8316TIP3   OH246438   5.957   1.307   0.284 -0.2333  0.3197 -0.1443
 8316TIP3    H146439   6.005   1.389   0.287 -0.3671  0.4827 -1.9630
 8316TIP3    H246440   6.000   1.256   0.214 -1.4217 -0.3304 -0.4211
 8317TIP3   OH246441   5.344   3.646  14.644  0.3086  0.2003  0.3597
 8317TIP3    H146442   5.315   3.698  14.719 -0.1948 -0.2327  0.4751
 8317TIP3    H246443   5.409   3.700  14.600 -0.8054  1.2844  0.0092
 8318TIP3   OH246444   4.886   0.634  11.777 -0.1159 -0.1535 -0.8631
 8318TIP3    H146445   4.960   0.610  11.721 -0.3762  0.8034 -1.6388
 8318TIP3    H246446   4.926   0.675  11.853  0.1059  2.3349 -2.2634
 8319TIP3   OH246447   5.923   3.265   1.941  0.1890 -0.3887 -0.1441
 8319TIP3    H146448   5.927   3.189   1.998 -1.3746  0.5648  1.2981
 8319TIP3    H246449   5.946   3.339   1.998 -0.5701  0.4781 -0.9374
 8320TIP3   OH246450   5.008   0.886   2.254 -0.0456  0.1238  0.4690
 8320TIP3    H146451   5.049   0.801   2.242 -1.0308 -0.3188  0.2160
 8320TIP3    H246452   4.915   0.871   2.235 -0.4478  0.9594  1.7438
 8321TIP3   OH246453   6.235   1.939  16.106 -0.2424 -0.6595 -0.2330
 8321TIP3    H146454   6.215   1.917  16.198  3.1108 -0.9511  0.4923
 8321TIP3    H246455   6.193   2.024  16.092  0.9946  0.4223  2.2692
 8322TIP3   OH246456   5.366   0.214   5.712  0.2842 -0.5528 -0.5734
 8322TIP3    H146457   5.389   0.154   5.783 -1.4306  0.2223  0.6595
 8322TIP3    H246458   5.312   0.162   5.653 -1.1250 -0.2580  0.4481
 8323TIP3   OH246459   2.969   5.956   5.652 -0.2898 -0.8224  0.1673
 8323TIP3    H146460   2.998   5.899   5.724  2.1649 -0.7451 -0.7223
 8323TIP3    H246461   2.976   5.902   5.574  0.0595  0.0723 -0.4230
 8324TIP3   OH246462   6.047   0.146   2.085  0.3383 -0.3117  0.0097
 8324TIP3    H146463   6.050   0.197   2.166 -1.0415  0.3144 -0.3030
 8324TIP3    H246464   5.970   0.090   2.095  0.5829 -0.7542 -0.5707
 8325TIP3   OH246465   3.266   1.747   4.469  0.1706 -0.7356  0.0707
 8325TIP3    H146466   3.335   1.803   4.503  0.3615 -0.6065 -0.5205
 8325TIP3    H246467   3.312   1.672   4.432  0.0810 -0.0904 -1.3889
 8326TIP3   OH246468   3.318   0.818   0.566 -0.2881 -0.3116 -0.3129
 8326TIP3    H146469   3.296   0.823   0.659 -1.7642 -0.8678 -0.6150
 8326TIP3    H246470   3.350   0.906   0.545  0.5870 -0.3391  0.8300
 8327TIP3   OH246471   0.413   6.126  16.020 -0.2306  0.4908  0.0566
 8327TIP3    H146472   0.402   6.062  15.951  0.1638  1.6505 -1.1095
 8327TIP3    H246473   0.360   6.201  15.993  1.8873  1.9271 -0.2836
 8328TIP3   OH246474   0.733   5.936   5.258  0.5852  0.2056  0.4707
 8328TIP3    H146475   0.723   6.023   5.220 -1.4934  0.4897  1.6104
 8328TIP3    H246476   0.792   5.948   5.333  0.6069  0.5617  0.3932
 8329TIP3   OH246477   1.053   4.141   2.066  0.7476  0.1622 -0.0439
 8329TIP3    H146478   1.113   4.113   1.997  0.3799 -1.5339  0.2907
 8329TIP3    H246479   0.998   4.207   2.025  0.9748 -0.3397 -1.1746
 8330TIP3   OH246480   3.053   0.926  14.470  0.7972  0.1406 -0.2271
 8330TIP3    H146481   3.082   0.943  14.380  1.6321  0.3297  0.0785
 8330TIP3    H246482   3.014   1.008  14.498 -0.1836 -0.1530 -0.6827
 8331TIP3   OH246483   6.540   3.934   1.375  0.9767  0.4165 -0.4604
 8331TIP3    H146484   6.522   4.008   1.433  1.4128 -1.1010  1.6746
 8331TIP3    H246485   6.453   3.901   1.351  0.7961  0.8862 -0.4581
 8332TIP3   OH246486   3.839   2.445   3.694  0.4818  0.2245 -0.1005
 8332TIP3    H146487   3.897   2.520   3.706 -2.2201  2.4518 -0.5377
 8332TIP3    H246488   3.854   2.390   3.771  3.2546  0.6372 -0.2979
 8333TIP3   OH246489   5.537   3.671  15.066 -0.0223 -0.1590 -0.1453
 8333TIP3    H146490   5.533   3.729  14.991  0.1425 -0.4119 -0.3516
 8333TIP3    H246491   5.500   3.588  15.035 -1.2516  0.1474  0.4524
 8334TIP3   OH246492   6.277   0.113  12.949 -0.4806  0.2782  0.4240
 8334TIP3    H146493   6.358   0.159  12.925 -1.7704  1.7713 -1.1494
 8334TIP3    H246494   6.262   0.053  12.876 -1.1838  0.5219  0.3702
 8335TIP3   OH246495   6.385   0.403   2.120  0.6621  0.4394 -0.0645
 8335TIP3    H146496   6.307   0.362   2.083 -0.7046  1.3198  1.7074
 8335TIP3    H246497   6.414   0.465   2.053  0.3408 -0.4989 -1.0821
 8336TIP3   OH246498   3.788   6.095   5.585  0.2104 -0.8175  0.6388
 8336TIP3    H146499   3.713   6.144   5.620  1.9225  0.6665  2.2797
 8336TIP3    H246500   3.806   6.137   5.500  2.6844  2.5910  2.7265
 8337TIP3   OH246501   6.584   1.135  15.728  0.2632 -0.1466  0.0705
 8337TIP3    H146502   6.557   1.129  15.637  1.9861 -0.8735 -0.4048
 8337TIP3    H246503   6.595   1.229  15.744  0.5494 -0.0607 -0.6408
 8338TIP3   OH246504   6.760   3.705  13.096  0.0829  0.0460 -0.1560
 8338TIP3    H146505   6.825   3.719  13.027  1.9221  1.2893  1.7565
 8338TIP3    H246506   6.686   3.761  13.070  1.1667  1.3156 -0.5938
 8339TIP3   OH246507   2.391   3.406  16.674  0.6173  0.4955  0.3729
 8339TIP3    H146508   2.485   3.384  16.677  0.4208 -0.5696 -1.0183
 8339TIP3    H246509   2.378   3.442  16.586 -0.8044 -1.8414 -0.4008
 8340TIP3   OH246510   2.871   2.572   3.054  0.2349 -0.3597  0.3941
 8340TIP3    H146511   2.956   2.613   3.037  0.9351 -2.7009 -2.2635
 8340TIP3    H246512   2.808   2.625   3.005  0.2860  0.7804  1.5409
 8341TIP3   OH246513   6.194   2.720  16.489 -0.1407  0.7297 -0.2317
 8341TIP3    H146514   6.149   2.694  16.569 -0.4943 -0.8711 -0.9229
 8341TIP3    H246515   6.253   2.647  16.470 -0.0904  1.0701 -1.4447
 8342TIP3   OH246516   2.088   0.439  16.743 -0.1602 -0.6508  0.6472
 8342TIP3    H146517   2.013   0.422  16.800  0.3387  0.9748  1.8382
 8342TIP3    H246518   2.147   0.493  16.797  1.7277 -1.6425 -0.3640
 8343TIP3   OH246519   0.695   1.270  11.561  0.4846  0.6167 -0.3734
 8343TIP3    H146520   0.750   1.247  11.487 -1.9402 -2.0072 -1.4582
 8343TIP3    H246521   0.741   1.236  11.638 -0.0981 -2.5578 -1.3758
 8344TIP3   OH246522   4.765   4.983  13.702  0.2703 -0.0690 -0.0511
 8344TIP3    H146523   4.708   4.972  13.626  0.6390  0.5848 -0.4246
 8344TIP3    H246524   4.719   4.937  13.773 -0.0565 -0.7119 -0.6680
 8345TIP3   OH246525   4.343   4.305  16.988  0.2316  0.2573 -0.2886
 8345TIP3    H146526   4.408   4.241  17.017 -1.2316  0.0579  2.8635
 8345TIP3    H246527   4.275   4.253  16.945  0.2951 -0.0076 -0.0686
 8346TIP3   OH246528   1.827   4.498   4.347 -0.0440  0.3968  0.4642
 8346TIP3    H146529   1.737   4.497   4.315 -0.2288  1.1541  0.9274
 8346TIP3    H246530   1.868   4.571   4.300  1.1465 -1.6586 -1.8497
 8347TIP3   OH246531   5.427   1.488  16.351  0.9377  0.1760  0.0561
 8347TIP3    H146532   5.452   1.415  16.295  0.0720  1.2969 -1.8369
 8347TIP3    H246533   5.332   1.493  16.342  0.8618  0.7639  1.1425
 8348TIP3   OH246534   6.213   1.094  17.089  0.6189  0.3174  0.0305
 8348TIP3    H146535   6.231   1.070  16.998 -0.0974  0.0139 -0.0294
 8348TIP3    H246536   6.191   1.011  17.131 -2.2986  0.8967 -0.2723
 8349TIP3   OH246537   1.868   2.996  15.864  0.0727 -0.2939  0.0718
 8349TIP3    H146538   1.853   3.057  15.792 -0.1460 -0.0652  0.3085
 8349TIP3    H246539   1.891   2.914  15.821 -0.2333 -0.2079 -0.2644
 8350TIP3   OH246540   6.239   3.282  14.974  0.4161  0.4263  0.2006
 8350TIP3    H146541   6.286   3.293  15.057  1.1109 -0.5260 -0.0624
 8350TIP3    H246542   6.150   3.260  14.999  0.4984  0.6525  0.6968
 8351TIP3   OH246543   4.457   3.933  16.742 -0.5320  0.3576  0.3671
 8351TIP3    H146544   4.483   3.842  16.752 -1.3700  0.2175  1.3507
 8351TIP3    H246545   4.415   3.936  16.656  0.4718  0.0624 -0.1463
 8352TIP3   OH246546   4.680   3.021  16.466 -0.3871  0.1656  0.5773
 8352TIP3    H146547   4.591   3.053  16.449 -0.4199 -1.0889 -1.8388
 8352TIP3    H246548   4.737   3.085  16.422 -0.1687  0.1255  0.8004
 8353TIP3   OH246549   0.514   0.625  11.430  0.2180  0.0163 -0.0281
 8353TIP3    H146550   0.469   0.545  11.455  1.6650 -1.6150 -2.4286
 8353TIP3    H246551   0.605   0.598  11.415  0.6648  2.0205 -1.2059
 8354TIP3   OH246552   2.504   2.979  10.732 -0.3585 -0.0007 -1.2727
 8354TIP3    H146553   2.490   2.921  10.657  1.5305 -0.4429 -1.3019
 8354TIP3    H246554   2.428   2.963  10.789 -0.5459 -1.5108 -1.9187
 8355TIP3   OH246555   0.869   0.857   2.839 -0.4576 -0.3773 -1.1006
 8355TIP3    H146556   0.908   0.944   2.835 -0.2433 -0.4894 -1.4717
 8355TIP3    H246557   0.856   0.841   2.933  0.7580 -0.4884 -0.9334
 8356TIP3   OH246558   1.087   3.789   1.821  0.0334  0.2987  0.1708
 8356TIP3    H146559   1.023   3.719   1.833 -0.0539  0.6573  1.8508
 8356TIP3    H246560   1.042   3.854   1.767 -0.2535 -0.4517 -0.4947
 8357TIP3   OH246561   1.859   2.438  10.572  0.1574  0.4124  0.1148
 8357TIP3    H146562   1.785   2.430  10.632  1.1800  1.8168  1.6218
 8357TIP3    H246563   1.898   2.523  10.594  1.8598 -0.0511 -1.0392
 8358TIP3   OH246564   6.040   3.903  11.079 -0.3058  0.0041 -0.2508
 8358TIP3    H146565   5.962   3.915  11.025  0.7686  2.9903 -1.2736
 8358TIP3    H246566   6.093   3.839  11.031 -1.5101 -1.0093 -0.2409
 8359TIP3   OH246567   5.414   5.856   2.584  0.7433 -0.5478 -0.1063
 8359TIP3    H146568   5.393   5.903   2.665  0.8247  1.0456 -0.9781
 8359TIP3    H246569   5.488   5.800   2.607  0.8082 -0.0587  0.9108
 8360TIP3   OH246570   5.156   3.961   0.691 -0.4166  0.1957  0.5735
 8360TIP3    H146571   5.130   3.971   0.782 -3.1422  0.8344 -0.2215
 8360TIP3    H246572   5.116   4.035   0.646  4.3186  2.2292 -0.5391
 8361TIP3   OH246573   5.932   5.145  13.402 -0.5542  0.3554  0.0663
 8361TIP3    H146574   5.969   5.116  13.318  0.6812 -0.6929  0.9651
 8361TIP3    H246575   5.898   5.066  13.442 -1.5019  0.9250  0.3898
 8362TIP3   OH246576   5.240   2.031  13.681 -0.1195 -0.0998 -0.1748
 8362TIP3    H146577   5.212   1.949  13.639 -0.1741  0.1548 -0.6381
 8362TIP3    H246578   5.248   2.093  13.608 -0.7366  0.4919  0.2688
 8363TIP3   OH246579   5.096   4.720  15.158 -0.6502  0.7823 -0.5039
 8363TIP3    H146580   5.084   4.659  15.231  0.0081 -0.5825 -1.5202
 8363TIP3    H246581   5.022   4.702  15.099 -0.8764  1.4996 -0.4392
 8364TIP3   OH246582   6.162   1.390   4.608 -0.0581  0.3308 -0.2124
 8364TIP3    H146583   6.230   1.404   4.541  1.7341  1.2568  1.7454
 8364TIP3    H246584   6.199   1.323   4.665 -0.7229  0.9581  0.9671
 8365TIP3   OH246585   4.123   5.458   4.756  0.3263  0.1614  0.3570
 8365TIP3    H146586   4.138   5.384   4.698  3.4182 -0.5901  2.0196
 8365TIP3    H246587   4.081   5.419   4.833 -1.4769  0.7768 -0.2738
 8366TIP3   OH246588   0.612   1.098   2.294 -1.0710  0.4150  0.2891
 8366TIP3    H146589   0.606   1.156   2.219 -0.0303  0.8920  0.5759
 8366TIP3    H246590   0.630   1.156   2.368  1.8262 -0.4303  0.2895
 8367TIP3   OH246591   5.184   4.661  13.576 -0.6007 -0.8849  0.7255
 8367TIP3    H146592   5.186   4.648  13.671  1.3068 -0.3147  0.7770
 8367TIP3    H246593   5.275   4.677  13.552 -0.9587 -1.7562 -1.3204
 8368TIP3   OH246594   3.461   3.821   0.011  0.4295  0.5587 -0.3504
 8368TIP3    H146595   3.514   3.823   0.091 -0.4275  0.8859  0.2184
 8368TIP3    H246596   3.399   3.893   0.022 -0.1062  0.2029 -1.0235
 8369TIP3   OH246597   6.809   5.081  14.434 -0.4161  0.1630 -0.3544
 8369TIP3    H146598   6.738   5.022  14.408 -1.5573  0.1896  2.5247
 8369TIP3    H246599   6.772   5.169  14.421 -1.0319  0.1749  1.4148
 8370TIP3   OH246600   6.245   0.023  12.687 -0.2727 -0.9266 -0.0034
 8370TIP3    H146601   6.340   0.025  12.692 -0.3649 -1.5358  3.6695
 8370TIP3    H246602   6.225  -0.039  12.616  2.0641 -1.3007 -0.3568
 8371TIP3   OH246603   1.636   3.315  14.959  0.3775  0.1150  0.2365
 8371TIP3    H146604   1.579   3.239  14.976 -0.0413  0.9573  2.8197
 8371TIP3    H246605   1.724   3.278  14.957  0.0907 -0.6044  0.3937
 8372TIP3   OH246606   5.687   1.455  10.845  0.4304  0.0444 -0.2505
 8372TIP3    H146607   5.718   1.441  10.935 -2.0131 -0.2249  0.5837
 8372TIP3    H246608   5.617   1.391  10.833  0.3251  0.4854 -2.1623
 8373TIP3   OH246609   2.838   5.697  17.109 -0.0159  0.2240 -0.3295
 8373TIP3    H146610   2.849   5.663  17.021 -0.5622 -1.1630  0.1200
 8373TIP3    H246611   2.926   5.698  17.146  0.1591  0.4366 -0.7525
 8374TIP3   OH246612   6.625   6.454  15.398  0.1821  0.4035  0.2373
 8374TIP3    H146613   6.630   6.530  15.340 -0.3260  0.6925  0.5699
 8374TIP3    H246614   6.615   6.492  15.486  1.4793 -0.0208  0.5763
 8375TIP3   OH246615   2.082   2.343   3.772  0.0557  0.2077  0.2387
 8375TIP3    H146616   2.000   2.309   3.737 -0.1876 -0.3126  1.2954
 8375TIP3    H246617   2.090   2.302   3.858  1.1161  0.7331  0.3959
 8376TIP3   OH246618   0.788   1.562   6.088 -0.1581  0.0343 -0.5191
 8376TIP3    H146619   0.872   1.608   6.081  0.9489 -2.0618 -1.2787
 8376TIP3    H246620   0.736   1.617   6.146  0.5422  3.1168 -2.6844
 8377TIP3   OH246621   4.280   2.790   4.820 -0.5916 -0.0799 -0.5595
 8377TIP3    H146622   4.322   2.859   4.768  1.2277  0.3669  1.4350
 8377TIP3    H246623   4.334   2.712   4.805 -1.6392 -0.6498 -1.4440
 8378TIP3   OH246624   2.672   0.678  15.528 -0.2179  0.2185  0.2401
 8378TIP3    H146625   2.682   0.591  15.491  1.2815  0.1190  0.8497
 8378TIP3    H246626   2.577   0.691  15.533 -0.4649 -0.3174 -2.2745
 8379TIP3   OH246627   1.199   2.498  15.436  0.0025  0.1472  0.5941
 8379TIP3    H146628   1.180   2.576  15.384  0.3855  1.4438  2.3387
 8379TIP3    H246629   1.211   2.428  15.372  0.6621  1.7319 -1.0437
 8380TIP3   OH246630   2.358   2.028  11.445  0.2116  0.0934  0.4330
 8380TIP3    H146631   2.348   1.966  11.373  0.5119 -0.1475  0.5970
 8380TIP3    H246632   2.301   2.102  11.422 -0.1544 -0.2482  0.2435
 8381TIP3   OH246633   6.085   2.251  17.108  0.2035  0.2734 -0.7206
 8381TIP3    H146634   6.002   2.295  17.126 -0.2769 -1.1703  0.7828
 8381TIP3    H246635   6.067   2.196  17.031  0.4574  1.7262 -1.8390
 8382TIP3   OH246636   2.451   0.056  12.620 -0.0918  0.3384 -0.5766
 8382TIP3    H146637   2.529   0.001  12.614 -0.9277 -0.8468 -0.8873
 8382TIP3    H246638   2.483   0.142  12.646  1.1743 -0.5216  0.8064
 8383TIP3   OH246639   0.138   6.307  11.169 -0.1916  0.3471  0.7549
 8383TIP3    H146640   0.166   6.215  11.167 -2.3820 -0.4169  2.8140
 8383TIP3    H246641   0.181   6.343  11.247 -2.5845 -0.1038  2.3521
 8384TIP3   OH246642   2.340   4.025  11.420  0.4010  0.3544  0.1313
 8384TIP3    H146643   2.326   4.107  11.372  1.3759  0.1423 -0.5383
 8384TIP3    H246644   2.435   4.012  11.419  0.1918 -1.3371 -0.7243
 8385TIP3   OH246645   1.464   0.292   3.766  0.2646  0.2019  0.5572
 8385TIP3    H146646   1.464   0.378   3.724  0.3486  0.2275  0.6095
 8385TIP3    H246647   1.434   0.309   3.856  1.7054  0.3999  1.0176
 8386TIP3   OH246648   0.076   5.265  11.441  0.1493 -0.3043  0.4034
 8386TIP3    H146649   0.113   5.177  11.448 -0.8204 -0.6737  0.9792
 8386TIP3    H246650   0.140   5.321  11.484 -0.1768 -1.0095  1.8482
 8387TIP3   OH246651   0.573   3.180   5.264  0.7685 -0.3996  0.0302
 8387TIP3    H146652   0.634   3.253   5.270  0.9413 -0.6845  1.8410
 8387TIP3    H246653   0.622   3.105   5.298 -0.6845 -0.5770  1.8142
 8388TIP3   OH246654   5.880   0.536   3.560  0.1322  0.0555 -0.2422
 8388TIP3    H146655   5.834   0.455   3.537 -0.5487 -0.6366  3.1747
 8388TIP3    H246656   5.959   0.535   3.506 -0.8926 -1.8171 -1.7854
 8389TIP3   OH246657   5.095   5.775  11.883  0.2130  0.1108 -0.2323
 8389TIP3    H146658   5.097   5.870  11.876  1.4819  0.0310 -1.1392
 8389TIP3    H246659   5.111   5.757  11.976  1.3840  0.7560 -0.2982
 8390TIP3   OH246660   4.514   4.015  10.651  0.1012  0.2831 -0.0028
 8390TIP3    H146661   4.471   3.930  10.662  0.1544  0.5346  2.3480
 8390TIP3    H246662   4.444   4.073  10.618 -0.1718 -0.4256 -0.6921
 8391TIP3   OH246663   4.076   6.403   1.905 -0.3958 -0.4969  0.1413
 8391TIP3    H146664   4.080   6.331   1.843  0.3399  0.5095 -1.0195
 8391TIP3    H246665   4.142   6.383   1.971  0.5569 -0.3583 -0.7646
 8392TIP3   OH246666   5.366   4.080   3.587 -0.2166 -0.2658 -0.5811
 8392TIP3    H146667   5.307   4.009   3.610 -0.5455  0.6438  1.5331
 8392TIP3    H246668   5.308   4.156   3.575  0.3755  0.3171  0.1633
 8393TIP3   OH246669   3.710   2.347  12.628  0.4123  0.2365  0.2980
 8393TIP3    H146670   3.673   2.266  12.664 -0.6642  1.1208  1.2199
 8393TIP3    H246671   3.667   2.357  12.543 -1.6610  1.3564  1.4449
 8394TIP3   OH246672   1.336   0.118   4.673 -0.0370  0.1968 -0.3568
 8394TIP3    H146673   1.377   0.185   4.728 -0.4817 -0.2635  0.5555
 8394TIP3    H246674   1.389   0.040   4.686 -0.9700 -0.3075  0.5592
 8395TIP3   OH246675   5.441   2.967  12.041  0.0507 -0.0556 -0.5469
 8395TIP3    H146676   5.529   3.004  12.035  1.3184 -2.8455  0.1534
 8395TIP3    H246677   5.434   2.936  12.131 -1.9829  0.8981 -0.3529
 8396TIP3   OH246678   4.060   2.097   2.731 -0.3481  0.3048  0.2641
 8396TIP3    H146679   4.014   2.042   2.794 -1.2653 -1.4896 -1.8769
 8396TIP3    H246680   4.006   2.176   2.724 -2.5084 -1.2348 -1.2740
 8397TIP3   OH246681   3.630   0.063  13.655  0.2187  0.0525 -0.0824
 8397TIP3    H146682   3.593   0.138  13.702  1.7886  0.1976  0.9642
 8397TIP3    H246683   3.637  -0.006  13.721 -1.4748 -1.1386 -1.0995
 8398TIP3   OH246684   0.497   6.815   3.303  0.0756  0.1908 -0.6534
 8398TIP3    H146685   0.481   6.889   3.362 -0.0445 -0.8551  0.6480
 8398TIP3    H246686   0.567   6.845   3.245  0.7825  0.9337  0.5702
 8399TIP3   OH246687   5.822   3.967  16.974 -1.0558  0.2752  0.1351
 8399TIP3    H146688   5.756   3.923  17.027 -2.1319  1.3697 -0.2448
 8399TIP3    H246689   5.863   4.029  17.033  0.2019 -0.9704  0.5780
 8400TIP3   OH246690   0.150   2.071   5.782 -0.5174  0.5147 -0.0807
 8400TIP3    H146691   0.167   2.111   5.697  0.8884 -1.5005 -0.7840
 8400TIP3    H246692   0.235   2.067   5.824 -0.9868  0.2126  0.8398
 8401TIP3   OH246693   2.435   2.412   1.844 -0.5078  0.2604  0.0583
 8401TIP3    H146694   2.347   2.435   1.873  0.2798  1.0413  1.8716
 8401TIP3    H246695   2.438   2.443   1.753 -2.6335 -1.2712 -0.5850
 8402TIP3   OH246696   1.837   5.391  13.762 -0.6052 -0.0903 -0.1620
 8402TIP3    H146697   1.931   5.411  13.763 -1.2894  3.3685 -0.1677
 8402TIP3    H246698   1.819   5.366  13.672 -0.2385  2.2967 -0.9413
 8403TIP3   OH246699   6.096   1.209   2.495 -0.4938 -0.2259  0.0765
 8403TIP3    H146700   6.061   1.121   2.505  0.7646 -0.6943  0.4899
 8403TIP3    H246701   6.084   1.249   2.581 -3.4677  0.9245 -0.8340
 8404TIP3   OH246702   0.506   4.040   2.556  0.1237  0.2881 -0.5260
 8404TIP3    H146703   0.465   4.118   2.519  0.0002  0.2593 -0.4501
 8404TIP3    H246704   0.491   3.971   2.491 -2.2095 -0.3631  0.6509
 8405TIP3   OH246705   5.947   1.400  16.477  0.3617  0.9175 -0.2853
 8405TIP3    H146706   5.988   1.479  16.511  0.3993  0.9503 -0.4071
 8405TIP3    H246707   6.015   1.333  16.485 -0.2962  0.4382  1.6291
 8406TIP3   OH246708   0.239   1.031  13.905 -0.5279  0.6833  0.0818
 8406TIP3    H146709   0.197   1.056  13.987  2.3013 -1.3235  2.2487
 8406TIP3    H246710   0.321   1.081  13.904 -0.5569  0.7328 -1.5835
 8407TIP3   OH246711   3.085   4.629  11.313  0.4783 -0.4334  0.5370
 8407TIP3    H146712   3.111   4.586  11.232 -1.8691 -0.2197 -0.3556
 8407TIP3    H246713   3.062   4.557  11.373  0.3767 -0.5419  0.3676
 8408TIP3   OH246714   1.431   3.799   5.752 -0.3708  0.1904  0.6840
 8408TIP3    H146715   1.348   3.750   5.753 -0.4077  0.1512 -2.1563
 8408TIP3    H246716   1.408   3.884   5.789 -2.0416  0.6774 -1.3580
 8409TIP3   OH246717   3.703   4.591  15.458  0.5984  0.1159 -0.7072
 8409TIP3    H146718   3.630   4.594  15.396  0.3744 -0.5545 -0.4870
 8409TIP3    H246719   3.752   4.513  15.432  0.6274 -0.0404 -0.1751
 8410TIP3   OH246720   2.434   1.523   2.071  0.1107 -0.3987  0.0313
 8410TIP3    H146721   2.352   1.525   2.021  0.3978  2.3917 -0.4373
 8410TIP3    H246722   2.500   1.495   2.008 -0.2733 -1.4472  0.0883
 8411TIP3   OH246723   4.805   3.381  13.353 -0.2039 -0.3175 -0.2135
 8411TIP3    H146724   4.894   3.345  13.361  0.3831  0.5255 -2.4994
 8411TIP3    H246725   4.818   3.475  13.356 -1.0061 -0.1892 -0.8332
 8412TIP3   OH246726   4.262   2.795   2.951 -0.1012 -0.5660  0.2976
 8412TIP3    H146727   4.250   2.715   3.002 -2.1479 -0.3008  0.3147
 8412TIP3    H246728   4.230   2.773   2.863  1.7957 -0.5243 -0.4182
 8413TIP3   OH246729   4.057   0.006   0.783  0.0798  0.0651 -0.1018
 8413TIP3    H146730   4.006  -0.007   0.862  1.8606  0.6091  1.1612
 8413TIP3    H246731   4.043  -0.073   0.732 -3.2287  0.8339 -0.4983
 8414TIP3   OH246732   5.352   4.171  11.870  0.7061  0.5486 -0.1641
 8414TIP3    H146733   5.415   4.168  11.798 -0.5153 -0.7861 -1.2010
 8414TIP3    H246734   5.345   4.081  11.901 -1.9808  0.3461 -1.2196
 8415TIP3   OH246735   1.737   6.141  15.131  0.1583 -0.6287  0.2786
 8415TIP3    H146736   1.644   6.121  15.141 -0.3697  0.5972 -1.9830
 8415TIP3    H246737   1.742   6.202  15.057  2.6482  0.2313  1.0707
 8416TIP3   OH246738   2.401   5.787  12.973  0.3903 -0.4190  0.2501
 8416TIP3    H146739   2.414   5.695  12.997  0.8036 -0.5780 -0.5444
 8416TIP3    H246740   2.354   5.784  12.891  1.8076  0.0361 -0.6037
 8417TIP3   OH246741   0.666   6.423   5.002 -0.1257 -0.0945 -0.5510
 8417TIP3    H146742   0.718   6.463   5.071 -1.7275  0.9182  0.0991
 8417TIP3    H246743   0.649   6.494   4.941 -1.0629 -0.3213 -0.5577
 8418TIP3   OH246744   6.298   5.961  12.327  0.2290  0.4536  0.4382
 8418TIP3    H146745   6.208   5.983  12.351  0.2573 -0.3041  1.2416
 8418TIP3    H246746   6.323   5.890  12.385  1.2146  0.3754 -0.0521
 8419TIP3   OH246747   3.773   3.958   6.171  0.4177  0.2763  0.0172
 8419TIP3    H146748   3.744   3.886   6.227 -0.7366  0.5102 -0.2788
 8419TIP3    H246749   3.862   3.978   6.202  1.2412 -2.1066 -0.7496
 8420TIP3   OH246750   6.301   4.836   3.899 -0.4166  0.1441  0.0249
 8420TIP3    H146751   6.342   4.886   3.829 -1.3567  2.0072  0.7761
 8420TIP3    H246752   6.215   4.812   3.864  1.0805 -3.5207 -1.4446
 8421TIP3   OH246753   6.512   1.598   4.219 -0.7110  0.6163  0.1033
 8421TIP3    H146754   6.476   1.656   4.285 -0.7642 -0.0924  0.6997
 8421TIP3    H246755   6.526   1.654   4.142  0.9789  1.8343  1.2529
 8422TIP3   OH246756   4.772   3.873  10.620 -0.4505 -0.6446 -0.0666
 8422TIP3    H146757   4.678   3.858  10.627 -0.5814 -0.1637 -0.7319
 8422TIP3    H246758   4.780   3.948  10.560  0.3244 -0.2373  0.5398
 8423TIP3   OH246759   6.325   4.046  16.495 -1.1673  0.2566  0.8011
 8423TIP3    H146760   6.284   4.022  16.412 -2.0873 -1.0937  1.6289
 8423TIP3    H246761   6.415   4.016  16.487 -1.6812 -1.3638  0.9053
 8424TIP3   OH246762   3.927   1.292  14.724  0.1992 -0.0670  0.6364
 8424TIP3    H146763   4.002   1.346  14.700 -0.4196  1.0807  1.2679
 8424TIP3    H246764   3.895   1.257  14.641 -0.0840  1.4545  0.0935
 8425TIP3   OH246765   6.611   1.536  12.279  0.3156 -0.2303  0.1691
 8425TIP3    H146766   6.707   1.538  12.282  0.2942 -1.4017  2.3179
 8425TIP3    H246767   6.588   1.444  12.293 -1.1597  0.2098  0.7387
 8426TIP3   OH246768   3.192   0.475  13.746 -0.3634  0.2145 -0.1344
 8426TIP3    H146769   3.192   0.404  13.681  2.2270  0.3506 -0.3384
 8426TIP3    H246770   3.274   0.463  13.795 -0.0459  2.8365  0.0599
 8427TIP3   OH246771   0.162   0.403   2.065  0.2507 -0.5446 -0.1116
 8427TIP3    H146772   0.127   0.488   2.089 -1.5309 -1.0997 -0.6410
 8427TIP3    H246773   0.243   0.423   2.018 -0.2272  0.8633 -0.3640
 8428TIP3   OH246774   2.655   4.369  12.406  0.2198 -0.1043 -0.3958
 8428TIP3    H146775   2.625   4.375  12.315 -1.3712  2.2419  0.2471
 8428TIP3    H246776   2.590   4.417  12.456  1.6573 -0.4573  1.8646
 8429TIP3   OH246777   1.642   4.388   1.204 -1.1578  0.0359  0.0272
 8429TIP3    H146778   1.625   4.439   1.284  2.8626  1.0416  0.3569
 8429TIP3    H246779   1.690   4.311   1.235 -0.9658 -0.3626 -1.2478
 8430TIP3   OH246780   6.510   4.499   5.130 -0.7544  0.6219 -0.1151
 8430TIP3    H146781   6.492   4.568   5.066 -1.5046  0.2983 -0.2568
 8430TIP3    H246782   6.434   4.500   5.188  0.1709  1.2734  1.0985
 8431TIP3   OH246783   4.593   0.169   1.523  0.3776 -0.5115  0.3617
 8431TIP3    H146784   4.567   0.255   1.557  1.0710  0.2407 -0.9432
 8431TIP3    H246785   4.644   0.129   1.593 -1.5696 -0.6522  1.7042
 8432TIP3   OH246786   1.327   1.158  13.755  0.0316 -0.1019  0.0914
 8432TIP3    H146787   1.408   1.205  13.777 -0.3183  0.6069 -0.1135
 8432TIP3    H246788   1.257   1.221  13.774 -0.3962 -0.2317 -1.0360
 8433TIP3   OH246789   5.843   5.368  16.322  0.5114 -0.1135  0.5437
 8433TIP3    H146790   5.755   5.329  16.321  0.3671  0.2058 -0.4316
 8433TIP3    H246791   5.899   5.301  16.282  0.3118  0.5288 -0.8730
 8434TIP3   OH246792   1.564   0.981   6.539 -0.0075  0.2774  0.2501
 8434TIP3    H146793   1.618   1.059   6.548 -0.8731  0.6586  2.6985
 8434TIP3    H246794   1.479   1.013   6.509  0.3430 -0.0085 -1.0530
 8435TIP3   OH246795   1.555   5.645   4.104 -0.1205 -0.0288 -0.6043
 8435TIP3    H146796   1.545   5.610   4.015 -1.2528 -1.5520  0.1016
 8435TIP3    H246797   1.511   5.581   4.160 -0.1330  1.3320  0.9777
 8436TIP3   OH246798   6.076   5.237  12.976 -0.0243  0.1115 -0.5460
 8436TIP3    H146799   6.139   5.305  13.001  0.1281  0.2797 -1.3752
 8436TIP3    H246800   5.995   5.284  12.960  0.1893  0.1632 -1.5341
 8437TIP3   OH246801   5.010   0.219   1.120 -0.3744  0.2887 -0.1055
 8437TIP3    H146802   4.997   0.302   1.166 -1.0613 -1.1788  2.4353
 8437TIP3    H246803   4.992   0.239   1.028 -1.3336  2.7674  0.5931
 8438TIP3   OH246804   2.073   0.144   4.309 -0.2409 -0.0016  0.1539
 8438TIP3    H146805   2.097   0.092   4.232  1.4227  1.0604 -0.0668
 8438TIP3    H246806   2.041   0.227   4.273 -0.2056  0.2002  0.5805
 8439TIP3   OH246807   1.414   4.563   1.613  0.0183  0.1747 -0.8486
 8439TIP3    H146808   1.498   4.525   1.587 -0.1970 -1.7268  1.0782
 8439TIP3    H246809   1.357   4.487   1.627 -1.5728  1.3916 -0.6364
 8440TIP3   OH246810   4.541   2.943  11.982 -0.2284  0.1303 -0.0794
 8440TIP3    H146811   4.506   2.886  11.913 -0.1406  0.4902 -0.4232
 8440TIP3    H246812   4.486   2.924  12.058 -1.6706  1.2045 -0.8135
 8441TIP3   OH246813   5.316   6.401   1.511 -0.3420 -0.3214 -0.2502
 8441TIP3    H146814   5.326   6.313   1.475  0.3450 -0.5445  0.4827
 8441TIP3    H246815   5.233   6.398   1.558  1.0428 -1.4433  2.2129
 8442TIP3   OH246816   0.109   3.046   4.217 -0.1747  0.1638 -0.2744
 8442TIP3    H146817   0.022   3.060   4.178  0.5838  0.7219 -1.8129
 8442TIP3    H246818   0.129   2.955   4.195  0.0091  0.3039 -0.6828
 8443TIP3   OH246819   0.999   2.369  16.969 -0.2749  0.1696  0.0916
 8443TIP3    H146820   1.068   2.319  17.011  1.1557  1.8577 -0.1891
 8443TIP3    H246821   0.966   2.428  17.038 -1.2641 -0.4469  0.1558
 8444TIP3   OH246822   2.526   2.992  13.617  0.1219  0.2635  0.4076
 8444TIP3    H146823   2.531   2.950  13.703 -2.3068  2.6134  1.7986
 8444TIP3    H246824   2.432   3.001  13.601  0.5485 -0.5286 -2.7235
 8445TIP3   OH246825   3.433   0.440  13.902 -0.1611  0.0514  0.0891
 8445TIP3    H146826   3.519   0.479  13.917 -0.9288  1.8408 -0.0415
 8445TIP3    H246827   3.451   0.348  13.883  1.6806  0.2968  0.5699
 8446TIP3   OH246828   0.385   3.031   1.067  0.1867 -0.4344 -0.3596
 8446TIP3    H146829   0.432   3.054   0.987  0.9382  0.4311  0.3237
 8446TIP3    H246830   0.452   3.031   1.136 -0.6687  0.0271  0.4843
 8447TIP3   OH246831   3.140   0.607  17.150 -0.0290 -0.3847  0.4614
 8447TIP3    H146832   3.175   0.535  17.204 -1.5206 -1.1259  0.4707
 8447TIP3    H246833   3.210   0.627  17.088  0.9048 -0.9540  1.3193
 8448TIP3   OH246834   4.354   3.717   4.122 -0.1197  0.1662  0.1484
 8448TIP3    H146835   4.368   3.657   4.195  2.4142  0.1394 -0.3346
 8448TIP3    H246836   4.379   3.803   4.156  0.0261  0.3231 -0.3546
 8449TIP3   OH246837   4.296   6.519  15.178  0.1561  0.5392 -0.2819
 8449TIP3    H146838   4.285   6.568  15.096  1.5244  0.0471 -0.7839
 8449TIP3    H246839   4.301   6.587  15.245  1.3984  1.0901 -0.8983
 8450TIP3   OH246840   5.689   1.640   6.305 -0.0945 -0.4816 -0.0690
 8450TIP3    H146841   5.678   1.555   6.262 -0.6884  0.5248 -1.9659
 8450TIP3    H246842   5.612   1.690   6.279  0.0390  0.5122  1.3751
 8451TIP3   OH246843   1.929   3.485   6.197  0.2063 -0.5301 -0.6198
 8451TIP3    H146844   1.885   3.403   6.217  0.5093 -0.3116  1.0209
 8451TIP3    H246845   1.963   3.474   6.109  2.1229 -2.9970  0.3675
 8452TIP3   OH246846   2.378   1.364   1.831  0.4297  0.2020  0.1736
 8452TIP3    H146847   2.294   1.339   1.793 -0.0510  0.6390  0.9361
 8452TIP3    H246848   2.432   1.391   1.757 -0.5850  1.2985 -0.1664
 8453TIP3   OH246849   5.139   1.993   0.033  0.5705  0.3814 -0.7617
 8453TIP3    H146850   5.217   1.943   0.009  0.3847  0.0834 -0.7381
 8453TIP3    H246851   5.163   2.035   0.116  0.7135  0.3085 -0.7646
 8454TIP3   OH246852   5.384   3.098  16.956 -0.1861 -0.4025 -0.0424
 8454TIP3    H146853   5.370   3.025  17.016 -0.7869  1.3716  2.0930
 8454TIP3    H246854   5.479   3.104  16.947 -0.1210 -1.1802  0.1130
 8455TIP3   OH246855   5.606   5.153   6.672 -0.1013  0.0288  0.1789
 8455TIP3    H146856   5.683   5.197   6.633  0.5764 -1.5404 -0.3034
 8455TIP3    H246857   5.546   5.224   6.692  0.6894  1.1284 -1.2240
 8456TIP3   OH246858   3.526   4.715   5.354 -0.6033 -0.1754 -0.3487
 8456TIP3    H146859   3.507   4.801   5.392  2.2213  0.9165 -1.3361
 8456TIP3    H246860   3.523   4.654   5.428 -0.4907  1.0977  0.7044
 8457TIP3   OH246861   5.005   6.337  11.454  0.0467 -0.2552 -0.0878
 8457TIP3    H146862   4.983   6.362  11.364 -1.0129  1.1221  0.5268
 8457TIP3    H246863   4.923   6.348  11.503  0.8249 -0.0835  1.2209
 8458TIP3   OH246864   4.273   6.332   2.132 -0.6715  0.1428 -0.0989
 8458TIP3    H146865   4.280   6.421   2.166 -0.7902  1.0096 -2.2262
 8458TIP3    H246866   4.219   6.286   2.196  0.8852  1.0951  1.9527
 8459TIP3   OH246867   0.054   6.340  12.554 -0.0206 -0.4361 -0.3413
 8459TIP3    H146868   0.087   6.250  12.552  2.3470  0.3832 -0.0131
 8459TIP3    H246869   0.006   6.346  12.636  0.6590 -1.1200  0.1163
 8460TIP3   OH246870   0.612   1.211  16.565 -0.5423  0.1954  0.1462
 8460TIP3    H146871   0.621   1.131  16.514 -3.4087 -0.8896  1.1999
 8460TIP3    H246872   0.641   1.188  16.653  0.0171  0.7366  0.1079
 8461TIP3   OH246873   6.506   5.917   2.349  0.6565 -0.5171 -0.2596
 8461TIP3    H146874   6.593   5.884   2.327  0.9073  0.0195 -0.0744
 8461TIP3    H246875   6.467   5.847   2.402  1.8814  0.2500  1.7135
 8462TIP3   OH246876   4.928   0.850   1.572 -0.3047 -0.4410 -0.3131
 8462TIP3    H146877   4.911   0.943   1.583 -0.3493 -0.3976 -0.7349
 8462TIP3    H246878   4.864   0.821   1.507 -0.5570 -0.8518  0.1180
 8463TIP3   OH246879   5.262   1.516   5.692 -0.2439 -0.2744  0.0317
 8463TIP3    H146880   5.168   1.507   5.712 -0.1084 -0.5097  0.5714
 8463TIP3    H246881   5.305   1.515   5.777  0.0884  1.9865 -0.0857
 8464TIP3   OH246882   0.324   0.327  15.810  0.0517  0.2532  0.5235
 8464TIP3    H146883   0.406   0.375  15.804 -0.5404  1.3171  0.7402
 8464TIP3    H246884   0.295   0.316  15.720  1.7823 -2.5412  0.2596
 8465TIP3   OH246885   1.255   3.039  12.356  0.0712  0.0200 -0.2355
 8465TIP3    H146886   1.165   3.070  12.348  0.0499  0.4625  1.4210
 8465TIP3    H246887   1.248   2.958  12.408  0.7866  1.0766  1.5491
 8466TIP3   OH246888   6.706   2.930  13.793  0.2015  0.4545 -0.1127
 8466TIP3    H146889   6.770   2.993  13.827 -0.8336  1.7532 -0.4935
 8466TIP3    H246890   6.699   2.952  13.700  2.9951 -3.0407 -1.2749
 8467TIP3   OH246891   5.415   3.287  15.182 -1.0615 -0.0512 -0.0951
 8467TIP3    H146892   5.356   3.291  15.106  0.0110  2.5217 -0.8265
 8467TIP3    H246893   5.366   3.237  15.247 -2.2504 -1.8081 -2.2509
 8468TIP3   OH246894   6.550   2.382   6.087  0.3285  0.5187 -0.2748
 8468TIP3    H146895   6.481   2.400   6.022 -0.6421 -0.2472  0.5348
 8468TIP3    H246896   6.602   2.312   6.047  1.2361  1.7534 -1.3104
 8469TIP3   OH246897   2.627   2.963   2.063  0.3001 -0.4011 -0.5357
 8469TIP3    H146898   2.673   2.892   2.018 -0.3435 -0.9399 -0.3388
 8469TIP3    H246899   2.612   3.028   1.995  0.0683 -0.8523 -0.9191
 8470TIP3   OH246900   4.451   6.302  11.311 -0.5947  0.5362  0.0167
 8470TIP3    H146901   4.532   6.317  11.263 -0.8283  3.0201  0.3108
 8470TIP3    H246902   4.476   6.244  11.383  0.7730  0.6821 -0.3251
 8471TIP3   OH246903   3.390   2.583   4.357  0.5407  0.3185 -0.6645
 8471TIP3    H146904   3.320   2.596   4.421  0.1092  0.7238 -1.2112
 8471TIP3    H246905   3.443   2.662   4.363  0.7135  0.1929 -0.5429
 8472TIP3   OH246906   2.001   3.240   0.540  0.2430  0.4003 -0.1014
 8472TIP3    H146907   1.959   3.308   0.593 -0.9544  0.0209 -0.5249
 8472TIP3    H246908   2.020   3.283   0.457 -0.1891  0.3296 -0.2423
 8473TIP3   OH246909   5.126   2.305   2.114  0.1338 -0.3541  0.0840
 8473TIP3    H146910   5.109   2.214   2.089  0.1178 -0.5268  0.7185
 8473TIP3    H246911   5.210   2.325   2.073  0.9052 -1.1652  1.2527
 8474TIP3   OH246912   6.288   4.330  13.162  0.1637  0.1995  0.0564
 8474TIP3    H146913   6.249   4.247  13.190  0.4691  0.6785  1.9172
 8474TIP3    H246914   6.371   4.306  13.121 -0.2112 -0.4782 -0.3155
 8475TIP3   OH246915   0.949   0.446   1.413 -0.0627  0.3965 -0.0850
 8475TIP3    H146916   0.906   0.514   1.361  0.5034  0.3425 -0.6349
 8475TIP3    H246917   1.039   0.443   1.379 -0.3640 -1.3356 -0.7698
 8476TIP3   OH246918   1.192   6.655   4.533 -0.3923  0.1632  0.2416
 8476TIP3    H146919   1.283   6.650   4.505  0.1518  1.4673  1.7453
 8476TIP3    H246920   1.143   6.673   4.452  0.7353  0.0420 -0.4768
 8477TIP3   OH246921   4.210   4.226   2.467 -0.0911 -0.7811  0.9177
 8477TIP3    H146922   4.300   4.243   2.440 -0.3425 -2.2084 -0.9260
 8477TIP3    H246923   4.206   4.132   2.481 -1.3311 -0.7466  0.8570
 8478TIP3   OH246924   2.190   2.890  15.764 -0.3473 -0.0441  0.0113
 8478TIP3    H146925   2.109   2.840  15.757  0.8519 -2.0300 -0.2204
 8478TIP3    H246926   2.259   2.827  15.740  1.1793  1.8491 -0.7522
 8479TIP3   OH246927   3.400   2.420  14.468  0.0218  0.6804 -0.3883
 8479TIP3    H146928   3.473   2.479  14.450 -0.6044  1.6790  0.2675
 8479TIP3    H246929   3.341   2.471  14.523 -0.8787 -0.3212 -0.4010
 8480TIP3   OH246930   2.737   4.299  16.335 -0.0284  0.0534  0.4000
 8480TIP3    H146931   2.831   4.289  16.349  0.3212 -0.4561 -2.1874
 8480TIP3    H246932   2.698   4.261  16.414  1.8613 -2.7224  0.0945
 8481TIP3   OH246933   2.543   2.679   6.111 -0.6392 -0.2947  0.1714
 8481TIP3    H146934   2.530   2.617   6.039 -2.8475 -1.3471  1.4154
 8481TIP3    H246935   2.489   2.645   6.182 -1.5939  2.8181  1.0344
 8482TIP3   OH246936   1.184   4.102   4.022 -0.2791  0.1372  0.4783
 8482TIP3    H146937   1.238   4.110   4.101  0.2755 -0.4458  0.1638
 8482TIP3    H246938   1.182   4.190   3.986  0.5788  0.1428  0.4243
 8483TIP3   OH246939   5.502   1.783   5.731 -0.2530  0.7140  0.1995
 8483TIP3    H146940   5.576   1.813   5.678  1.1221 -1.7341  0.6712
 8483TIP3    H246941   5.447   1.734   5.670 -0.2014  0.3988  0.4075
 8484TIP3   OH246942   5.056   4.580  12.463  1.0293 -0.1030 -0.1361
 8484TIP3    H146943   5.115   4.586  12.388  1.0408 -3.3155 -0.4419
 8484TIP3    H246944   5.114   4.559  12.537  0.7494  0.9098  0.3850
 8485TIP3   OH246945   4.915   2.049  17.170 -0.0888  0.7468  0.1022
 8485TIP3    H146946   4.996   2.024  17.214 -0.9994 -1.9870  0.3168
 8485TIP3    H246947   4.846   2.029  17.234 -1.2077 -0.6578 -1.5119
 8486TIP3   OH246948   6.152   2.013   2.640 -0.2231 -0.3227 -0.3728
 8486TIP3    H146949   6.114   1.929   2.665 -1.4699 -0.0787 -1.3955
 8486TIP3    H246950   6.246   1.995   2.630 -0.2161 -1.1754  1.0995
 8487TIP3   OH246951   4.449   1.319   2.662  0.6268  0.0620  0.6890
 8487TIP3    H146952   4.463   1.377   2.587  0.1465 -0.9452 -0.1980
 8487TIP3    H246953   4.537   1.291   2.688  0.6810 -1.3835 -0.9560
 8488TIP3   OH246954   1.483   2.698  16.996 -0.0914 -0.0587 -0.2623
 8488TIP3    H146955   1.560   2.752  16.978 -0.6375  0.7286 -0.3009
 8488TIP3    H246956   1.411   2.745  16.953 -0.6626 -0.5494  0.1548
 8489TIP3   OH246957   3.929   6.310  14.482  0.0856  0.4191  0.3681
 8489TIP3    H146958   3.954   6.288  14.393 -0.5121  1.3275 -0.0339
 8489TIP3    H246959   3.871   6.239  14.510  1.1108 -0.3994  0.4066
 8490TIP3   OH246960   5.776   3.439  16.765 -0.0050  0.9142 -0.0456
 8490TIP3    H146961   5.806   3.528  16.784 -1.8718  1.5590 -0.0120
 8490TIP3    H246962   5.682   3.449  16.746  0.5071 -0.5071 -3.8277
 8491TIP3   OH246963   5.160   0.493  15.893  0.0882  0.3532  0.1365
 8491TIP3    H146964   5.225   0.511  15.825  0.7275  1.6689  1.0839
 8491TIP3    H246965   5.177   0.558  15.961 -1.7138  0.2107  0.7560
 8492TIP3   OH246966   5.907   0.076   5.686  0.2123 -0.5430  0.6339
 8492TIP3    H146967   5.879   0.122   5.765 -2.4323  0.7669 -1.0141
 8492TIP3    H246968   5.973   0.134   5.647 -0.2223 -0.0501  0.6308
 8493TIP3   OH246969   0.508   0.708   6.467 -0.5321 -0.3447 -0.2415
 8493TIP3    H146970   0.463   0.758   6.535  0.4757 -0.3529  0.4491
 8493TIP3    H246971   0.598   0.742   6.469 -0.6707  0.1691 -2.0672
 8494TIP3   OH246972   4.361   1.111  12.703 -0.1181 -0.8451 -0.0358
 8494TIP3    H146973   4.340   1.164  12.626 -1.4787  0.2777  1.0859
 8494TIP3    H246974   4.439   1.062  12.677 -0.9064 -0.9358 -2.3406
 8495TIP3   OH246975   6.162   2.365   3.737  0.5689  0.1556  0.5459
 8495TIP3    H146976   6.120   2.287   3.771 -2.4384  1.5100  0.1162
 8495TIP3    H246977   6.216   2.334   3.664 -1.9213 -1.3173 -0.7188
 8496TIP3   OH246978   4.724   0.512   1.493 -0.0850 -0.3944 -0.3794
 8496TIP3    H146979   4.748   0.517   1.586 -0.0754 -0.1355 -0.3964
 8496TIP3    H246980   4.634   0.477   1.494 -0.8313  1.4689 -0.1734
 8497TIP3   OH246981   3.017   2.589   0.470  0.0345  0.0416 -0.4364
 8497TIP3    H146982   3.089   2.529   0.490 -0.9035 -1.0458 -0.3303
 8497TIP3    H246983   2.974   2.605   0.554 -0.0633  0.4253 -0.5573
 8498TIP3   OH246984   4.535   2.035   4.481  0.5276 -0.3673  0.4417
 8498TIP3    H146985   4.598   2.051   4.551  0.4600  0.5607  0.2997
 8498TIP3    H246986   4.585   1.989   4.414  1.3858  1.4075 -0.1744
 8499TIP3   OH246987   2.086   6.483  13.807  0.1420 -0.0736  0.1908
 8499TIP3    H146988   2.051   6.546  13.744  1.0477  0.6005  0.3658
 8499TIP3    H246989   2.070   6.523  13.893  2.3957  0.7991  0.2347
 8500TIP3   OH246990   6.423   4.470  10.570  0.0836 -0.7475  0.4827
 8500TIP3    H146991   6.340   4.436  10.536 -0.4085  1.2343 -0.3727
 8500TIP3    H246992   6.476   4.392  10.587 -1.7386 -2.0077  0.4783
 8501TIP3   OH246993   3.319   3.381  14.837  0.0504  0.5647 -0.0546
 8501TIP3    H146994   3.324   3.368  14.931 -0.1957 -0.4533 -0.1814
 8501TIP3    H246995   3.247   3.443  14.825 -0.7224 -0.2647  0.3332
 8502TIP3   OH246996   5.878   0.545  12.364  0.6771  0.2334 -0.3014
 8502TIP3    H146997   5.800   0.565  12.313 -0.1837  0.0412  0.9206
 8502TIP3    H246998   5.888   0.620  12.423  0.4690 -0.4945  0.6671
 8503TIP3   OH246999   3.847   2.806  10.847 -0.1797 -0.0753 -0.0655
 8503TIP3    H147000   3.755   2.806  10.875  0.0772  0.4364  0.8111
 8503TIP3    H247001   3.889   2.743  10.906 -0.1713 -1.1189 -1.1775
 8504TIP3   OH247002   1.926   4.108   4.213  0.0971 -0.1912  0.0426
 8504TIP3    H147003   2.002   4.056   4.188 -0.0966 -0.1523 -0.6381
 8504TIP3    H247004   1.863   4.095   4.142  0.4032  1.6838 -0.5949
 8505TIP3   OH247005   2.629   3.820  12.846 -0.1534  0.0183 -0.1461
 8505TIP3    H147006   2.575   3.757  12.893 -0.9293  0.4862 -0.3948
 8505TIP3    H247007   2.618   3.797  12.754 -1.7484  1.5071 -0.3643
 8506TIP3   OH247008   1.708   4.362   4.108 -0.0572  0.0408  0.4952
 8506TIP3    H147009   1.650   4.341   4.035 -0.4363  0.1011  0.7775
 8506TIP3    H247010   1.668   4.318   4.184  0.4845 -0.2545  0.6113
 8507TIP3   OH247011   0.438   4.387   1.363  0.5582 -0.2562  0.2375
 8507TIP3    H147012   0.370   4.435   1.316 -1.3737 -1.1532  2.0190
 8507TIP3    H247013   0.505   4.452   1.381 -0.0176  0.7593 -1.1420
 8508TIP3   OH247014   6.327   5.655  13.881  0.6635  0.3076  0.5897
 8508TIP3    H147015   6.276   5.641  13.801  1.0635  3.5133 -0.2869
 8508TIP3    H247016   6.288   5.595  13.944 -2.8297  1.0879 -0.6752
 8509TIP3   OH247017   1.440   2.498  10.622 -0.3127 -0.0809 -0.0537
 8509TIP3    H147018   1.363   2.466  10.670 -0.2748 -1.0204 -0.6004
 8509TIP3    H247019   1.506   2.513  10.690  0.1714 -2.6598  0.0847
 8510TIP3   OH247020   4.925   2.886  12.515  0.2173  0.7041  0.0028
 8510TIP3    H147021   4.893   2.929  12.595 -1.5333  2.6271 -1.6866
 8510TIP3    H247022   4.921   2.793  12.535  0.3237  1.1537  2.3581
 8511TIP3   OH247023   3.343   4.800   1.320 -0.4243  0.3228  0.2879
 8511TIP3    H147024   3.421   4.745   1.329 -0.3140  0.4309 -0.0315
 8511TIP3    H247025   3.306   4.802   1.409 -1.1522 -1.3491  0.0526
 8512TIP3   OH247026   1.189   6.701  15.598 -0.0589 -0.1165 -0.0368
 8512TIP3    H147027   1.203   6.611  15.569  1.7693  0.3471 -0.6500
 8512TIP3    H247028   1.240   6.754  15.538  0.1193  1.2130  1.2530
 8513TIP3   OH247029   6.198   0.797  12.969  0.1828 -0.0287  0.5632
 8513TIP3    H147030   6.282   0.838  12.991  0.1394 -0.0358  0.7401
 8513TIP3    H247031   6.163   0.768  13.053 -1.1882  2.2174  0.7796
 8514TIP3   OH247032   1.077   0.322   2.738  0.5149  0.4029 -0.0244
 8514TIP3    H147033   1.075   0.387   2.808  1.4660 -1.1200  1.4285
 8514TIP3    H247034   1.157   0.272   2.753 -0.2814 -1.2115 -1.0224
 8515TIP3   OH247035   1.900   1.616  11.659  0.2189 -0.5229  0.1405
 8515TIP3    H147036   1.921   1.709  11.653 -1.5348 -0.0043  1.6112
 8515TIP3    H247037   1.985   1.573  11.670  0.9258  1.0752  1.1480
 8516TIP3   OH247038   5.966   3.664  16.880  0.4595  0.4502 -0.5477
 8516TIP3    H147039   6.033   3.619  16.829  1.3725  0.0131  1.0211
 8516TIP3    H247040   6.010   3.741  16.917  0.5392 -0.6414  1.7216
 8517TIP3   OH247041   2.952   5.360  11.692 -0.4325  0.0209 -0.1893
 8517TIP3    H147042   2.876   5.385  11.640 -1.5611  0.5089  1.6490
 8517TIP3    H247043   2.925   5.283  11.740  0.6071 -0.4326 -0.3088
 8518TIP3   OH247044   5.308   1.956   5.200  0.1244 -0.6898 -0.0854
 8518TIP3    H147045   5.264   1.875   5.175  1.5609 -1.1212 -1.2831
 8518TIP3    H247046   5.400   1.941   5.178  0.6152  0.7815  0.9015
 8519TIP3   OH247047   6.490   0.932   0.201 -0.3059 -0.1238 -0.3161
 8519TIP3    H147048   6.526   0.965   0.119 -1.7155  1.3586 -0.3623
 8519TIP3    H247049   6.403   0.971   0.206 -0.2318 -0.1853  1.8840
 8520TIP3   OH247050   2.883   6.065  13.331  0.1168 -0.0556  0.0471
 8520TIP3    H147051   2.961   6.015  13.352  0.3665 -0.1270 -1.0157
 8520TIP3    H247052   2.811   6.016  13.370  0.3818 -1.1258 -0.7691
 8521TIP3   OH247053   5.509   1.149   6.016  0.1420  0.6187 -0.1300
 8521TIP3    H147054   5.557   1.180   5.939 -0.1177 -0.3521 -0.7036
 8521TIP3    H247055   5.429   1.203   6.017 -1.8785 -2.0811 -3.0198
 8522TIP3   OH247056   1.654   1.391   3.114 -0.1100  0.2905  0.1181
 8522TIP3    H147057   1.567   1.372   3.149  0.9539 -0.5925  2.3941
 8522TIP3    H247058   1.687   1.462   3.170  1.1964 -0.3930  0.2382
 8523TIP3   OH247059   2.788   6.498  12.177 -0.0802  0.1262  0.0029
 8523TIP3    H147060   2.705   6.545  12.183 -1.3997 -1.8239 -2.2207
 8523TIP3    H247061   2.813   6.483  12.268 -1.4902  1.8503  0.7199
 8524TIP3   OH247062   3.710   0.319   0.369 -0.2389  0.3474  0.1309
 8524TIP3    H147063   3.775   0.334   0.301 -1.3840  0.7338 -0.8987
 8524TIP3    H247064   3.639   0.272   0.325 -0.5790 -0.2467  1.2787
 8525TIP3   OH247065   0.347   2.584   2.084  0.3668  0.0863 -0.0599
 8525TIP3    H147066   0.342   2.669   2.128  0.6522  1.0487 -1.8515
 8525TIP3    H247067   0.410   2.534   2.136  0.8650  1.2788  0.5044
 8526TIP3   OH247068   4.763   6.187  14.898  0.8231 -0.4086  0.1824
 8526TIP3    H147069   4.763   6.093  14.912 -0.8372 -0.1582  2.1253
 8526TIP3    H247070   4.785   6.198  14.805  0.1311 -2.7435 -0.2749
 8527TIP3   OH247071   1.885   4.795  16.308  0.4063 -0.1788 -0.5941
 8527TIP3    H147072   1.792   4.780  16.292 -0.0109  0.9320  0.6995
 8527TIP3    H247073   1.889   4.830  16.397  2.0301  0.0960 -0.7626
 8528TIP3   OH247074   6.658   3.711   0.980  0.5154  0.3358 -0.2765
 8528TIP3    H147075   6.647   3.688   0.888  0.4307 -0.7458 -0.0058
 8528TIP3    H247076   6.573   3.691   1.021  0.1202  2.0772 -0.2116
 8529TIP3   OH247077   5.848   5.685   1.049  0.9990  0.6209 -0.5608
 8529TIP3    H147078   5.778   5.738   1.010 -1.0002  0.5045  2.6513
 8529TIP3    H247079   5.832   5.597   1.016  0.6883  0.9205 -1.2194
 8530TIP3   OH247080   6.695   2.988  16.365 -0.1312 -0.1601  0.7653
 8530TIP3    H147081   6.783   2.958  16.338  0.5436  2.3260  0.0973
 8530TIP3    H247082   6.637   2.953  16.297  0.7835  0.9832 -0.6321
 8531TIP3   OH247083   4.079   6.664   0.028 -0.3807  0.8430 -0.1633
 8531TIP3    H147084   4.134   6.714  -0.031 -0.1785  0.8055 -0.0079
 8531TIP3    H247085   4.019   6.728   0.066 -0.8517  0.7790 -0.7990
 8532TIP3   OH247086   5.936   0.650   6.367  0.5226  0.2325  0.4512
 8532TIP3    H147087   5.972   0.664   6.280  0.4421 -1.0298  0.1968
 8532TIP3    H247088   6.010   0.616   6.418  0.4058  0.3593  0.7061
 8533TIP3   OH247089   4.303   1.598   4.173 -0.0187 -0.3801 -0.1856
 8533TIP3    H147090   4.258   1.626   4.253 -0.1529  1.6354 -0.9404
 8533TIP3    H247091   4.237   1.606   4.104  0.2992 -1.4212 -0.6197
 8534TIP3   OH247092   6.197   6.293   4.736 -0.2905  0.0505  0.7336
 8534TIP3    H147093   6.280   6.319   4.696 -0.3076 -0.0925  0.6052
 8534TIP3    H247094   6.131   6.344   4.689 -0.3803 -0.6383  0.0931
 8535TIP3   OH247095   3.859   4.243   0.753 -0.4319  0.0987 -1.1287
 8535TIP3    H147096   3.803   4.167   0.765  1.6278 -1.3610 -0.4738
 8535TIP3    H247097   3.848   4.267   0.661 -3.1095  0.6880 -0.7046
 8536TIP3   OH247098   0.448   2.972  15.306  0.1382  0.5610 -0.2203
 8536TIP3    H147099   0.470   3.046  15.363 -1.1143  0.2783  0.6453
 8536TIP3    H247100   0.388   3.009  15.241 -2.6795 -0.2523  1.8461
 8537TIP3   OH247101   2.041   0.823  13.870 -0.0579 -0.8492  0.8086
 8537TIP3    H147102   2.086   0.902  13.898  1.3180 -1.1723 -0.4543
 8537TIP3    H247103   1.961   0.855  13.827  0.4651 -0.1348  0.3494
 8538TIP3   OH247104   4.118   1.241   1.692  0.0656 -0.4754  0.4811
 8538TIP3    H147105   4.059   1.316   1.691  1.9830  1.1236  1.7808
 8538TIP3    H247106   4.196   1.271   1.644  0.3641 -2.0694 -0.0649
 8539TIP3   OH247107   2.175   3.226  12.459  0.5400  0.0554  0.1269
 8539TIP3    H147108   2.239   3.182  12.403 -1.0141  0.1141 -1.7425
 8539TIP3    H247109   2.168   3.169  12.536  1.9522 -0.5509 -0.1665
 8540TIP3   OH247110   5.855   1.773  11.409 -0.0474  0.1932 -0.4662
 8540TIP3    H147111   5.934   1.744  11.363 -0.3008  0.0108 -0.7926
 8540TIP3    H247112   5.795   1.699  11.402  0.4777 -0.4420  1.5385
 8541TIP3   OH247113   4.547   0.963  14.644 -0.3438 -0.0295  0.5167
 8541TIP3    H147114   4.494   1.036  14.614  0.0842  0.1111  0.0938
 8541TIP3    H247115   4.525   0.954  14.737 -0.3308  0.7002  0.5975
 8542TIP3   OH247116   6.441   1.218   5.303 -0.1817 -0.0064 -0.1356
 8542TIP3    H147117   6.356   1.177   5.288 -0.8206  1.9247 -2.0170
 8542TIP3    H247118   6.448   1.226   5.398 -1.8863 -0.5656  0.0599
 8543TIP3   OH247119   1.064   4.399   1.656  0.0541  0.4441 -0.0005
 8543TIP3    H147120   1.153   4.364   1.668  0.1261  0.5820 -0.1294
 8543TIP3    H247121   1.007   4.331   1.690  0.1136 -0.5078 -1.7385
 8544TIP3   OH247122   1.780   5.870  11.850  0.0545 -0.1224  0.1618
 8544TIP3    H147123   1.810   5.893  11.762 -1.4400 -0.0970 -0.3429
 8544TIP3    H247124   1.691   5.903  11.855 -0.3725 -1.4061  1.1846
 8545TIP3   OH247125   1.857   4.047  11.273  0.3823 -0.2517  0.3694
 8545TIP3    H147126   1.827   4.003  11.352 -0.9514  0.7041  0.4231
 8545TIP3    H247127   1.777   4.057  11.220  0.5060  2.7017  0.6710
 8546TIP3   OH247128   5.857   3.399   3.569 -0.1561  0.4984 -0.1107
 8546TIP3    H147129   5.926   3.463   3.557  0.6818 -0.0797  1.5653
 8546TIP3    H247130   5.861   3.374   3.661 -2.4509  0.2882 -0.0172
 8547TIP3   OH247131   6.520   2.321   3.311 -0.3467 -0.1163  0.4598
 8547TIP3    H147132   6.561   2.398   3.273 -2.3043 -0.1522 -1.8139
 8547TIP3    H247133   6.574   2.300   3.388  0.8758  2.7904  0.4377
 8548TIP3   OH247134   2.790   3.742   3.155 -0.0789 -0.2598  0.1321
 8548TIP3    H147135   2.737   3.785   3.088 -0.4385 -1.0725 -0.1059
 8548TIP3    H247136   2.760   3.780   3.238  1.3571  1.8238 -0.2322
 8549TIP3   OH247137   6.757   4.888   0.566 -0.4168  0.3849  0.0945
 8549TIP3    H147138   6.683   4.892   0.627 -1.3137  2.4531 -1.0816
 8549TIP3    H247139   6.735   4.951   0.497  2.7731  1.5702  0.0835
 8550TIP3   OH247140   6.593   6.403  16.800  0.2303  0.3890  0.1951
 8550TIP3    H147141   6.528   6.389  16.731  1.3975  1.3372 -1.1081
 8550TIP3    H247142   6.647   6.324  16.799 -0.0769  0.1735  0.3983
 8551TIP3   OH247143   2.452   2.500   1.233 -0.0798  0.0278 -0.1304
 8551TIP3    H147144   2.482   2.572   1.179  1.9467  0.7831  1.9272
 8551TIP3    H247145   2.501   2.424   1.201  0.2286  0.2277 -0.1343
 8552TIP3   OH247146   1.243   0.201   2.384 -0.0873 -0.2565  0.2605
 8552TIP3    H147147   1.170   0.238   2.434  1.2553  1.2310  1.1490
 8552TIP3    H247148   1.252   0.259   2.309 -0.8548 -1.3960 -0.7487
 8553TIP3   OH247149   4.621   6.123   3.035 -0.2746 -0.1019  0.0568
 8553TIP3    H147150   4.528   6.118   3.055 -0.2711  0.0251  0.1065
 8553TIP3    H247151   4.642   6.216   3.039  0.4565 -0.3545  2.9038
 8554TIP3   OH247152   6.292   3.426  16.687  0.1511  0.0994 -0.8737
 8554TIP3    H147153   6.219   3.370  16.712  0.5522  0.4554  1.1904
 8554TIP3    H247154   6.251   3.501  16.644 -0.5632 -0.5845 -1.3895
 8555TIP3   OH247155   3.268   5.178   3.221  0.3170  0.3086 -0.7229
 8555TIP3    H147156   3.308   5.196   3.136  0.5364 -1.7341 -1.0843
 8555TIP3    H247157   3.182   5.221   3.217 -0.5239 -1.4587 -2.7938
 8556TIP3   OH247158   5.651   3.645   3.925 -0.2770  0.3861 -0.1229
 8556TIP3    H147159   5.575   3.701   3.909 -1.2779 -0.9922 -0.2909
 8556TIP3    H247160   5.722   3.688   3.877 -0.9151  1.7354  0.1032
 8557TIP3   OH247161   4.434   0.583  15.250 -0.0624  0.8069 -0.3774
 8557TIP3    H147162   4.359   0.629  15.213 -0.1468 -0.2349 -1.5199
 8557TIP3    H247163   4.418   0.586  15.345 -1.3197  0.9825 -0.5738
 8558TIP3   OH247164   5.597   1.449  13.466 -0.6106  0.0095 -0.1324
 8558TIP3    H147165   5.542   1.498  13.405  0.3827 -1.3713 -2.1885
 8558TIP3    H247166   5.608   1.363  13.425  2.8063  0.1275  0.3523
 8559TIP3   OH247167   6.574   2.153   5.133 -0.4698  0.5860  0.0513
 8559TIP3    H147168   6.635   2.099   5.183 -0.0126  1.0966  0.0487
 8559TIP3    H247169   6.524   2.201   5.199  1.5906  2.8643 -0.0060
 8560TIP3   OH247170   4.813   6.463   3.631  0.3880 -0.1514 -0.0689
 8560TIP3    H147171   4.822   6.532   3.697  0.8146 -0.9950  0.7582
 8560TIP3    H247172   4.876   6.487   3.562  0.5925  0.2362  0.2553
 8561TIP3   OH247173   6.658   6.605   5.148  0.1542  0.1120  0.3195
 8561TIP3    H147174   6.744   6.564   5.157 -0.2553 -0.9850 -0.7077
 8561TIP3    H247175   6.647   6.654   5.230  1.3834 -0.4204  0.8252
 8562TIP3   OH247176   1.972   5.202   4.019 -0.2331  0.1597 -0.3625
 8562TIP3    H147177   2.023   5.266   3.969 -0.6895  0.4313 -0.4856
 8562TIP3    H247178   1.894   5.250   4.046 -0.5891 -0.3499 -0.4730
 8563TIP3   OH247179   3.012   3.928   1.558 -0.7385 -0.0627 -0.3805
 8563TIP3    H147180   3.086   3.890   1.511 -0.7455 -0.5450 -0.0047
 8563TIP3    H247181   2.985   4.002   1.504 -0.0056  0.0917 -0.5400
 8564TIP3   OH247182   2.625   1.992   0.447 -0.3282 -0.2795  0.3470
 8564TIP3    H147183   2.622   1.965   0.539 -1.3412  0.4650  0.5489
 8564TIP3    H247184   2.685   2.067   0.446 -0.1696 -0.4055  0.3667
 8565TIP3   OH247185   4.915   4.740  13.483 -0.0893 -0.0696 -0.1726
 8565TIP3    H147186   4.999   4.701  13.510  0.3069 -1.5498 -3.3678
 8565TIP3    H247187   4.850   4.691  13.533  0.7019 -1.7800 -0.7703
 8566TIP3   OH247188   3.935   2.956   4.237  1.1160  0.0848  0.2697
 8566TIP3    H147189   3.897   2.990   4.318  0.4111 -1.5546  0.6443
 8566TIP3    H247190   3.969   3.034   4.192 -2.7329  1.6326 -0.1363
 8567TIP3   OH247191   2.647   4.121  14.635 -0.5690 -0.0022  0.0477
 8567TIP3    H147192   2.642   4.051  14.700  0.0977  0.1705  0.2837
 8567TIP3    H247193   2.588   4.092  14.565 -0.5334 -0.6519  0.2801
 8568TIP3   OH247194   5.704   5.936   1.271  0.2157 -0.0398 -0.1244
 8568TIP3    H147195   5.699   5.978   1.186  1.6928 -0.1669 -0.2818
 8568TIP3    H247196   5.798   5.926   1.288 -0.0764 -1.0892  0.9751
 8569TIP3   OH247197   4.393   2.547   2.713 -0.4605  0.3263  0.1215
 8569TIP3    H147198   4.359   2.475   2.659  0.3551 -0.8885  1.1877
 8569TIP3    H247199   4.369   2.523   2.802 -1.4932  2.1476  0.3575
 8570TIP3   OH247200   4.140   4.812   0.925 -0.3707 -0.2648  0.1651
 8570TIP3    H147201   4.110   4.730   0.885 -0.3036 -0.8136  1.2365
 8570TIP3    H247202   4.082   4.879   0.888 -0.9971 -0.9113 -0.0394
 8571TIP3   OH247203   3.073   5.692   0.010  0.4385 -0.1016  0.2723
 8571TIP3    H147204   3.096   5.764   0.069 -0.2058  0.1648  0.1968
 8571TIP3    H247205   3.156   5.668  -0.032  0.4950  1.1848 -0.3650
 8572TIP3   OH247206   6.120   1.140  16.477 -0.3075  0.4609 -0.2817
 8572TIP3    H147207   6.139   1.063  16.422 -3.9550 -0.0726 -0.9555
 8572TIP3    H247208   6.060   1.107  16.544  1.3780  1.8706  1.9447
 8573TIP3   OH247209   3.899   3.184   1.311 -0.5371 -0.4016  0.5026
 8573TIP3    H147210   3.985   3.203   1.274 -0.0181  0.4463  2.0996
 8573TIP3    H247211   3.880   3.094   1.283  0.5531 -0.3560 -0.4152
 8574TIP3   OH247212   0.810   1.780  13.873 -0.0042 -0.3395 -0.4913
 8574TIP3    H147213   0.792   1.803  13.964 -0.6474  0.2666 -0.7699
 8574TIP3    H247214   0.755   1.840  13.821 -0.4958 -1.4172 -1.2485
 8575TIP3   OH247215   3.806   4.740  15.703  0.2448  0.3245 -0.1915
 8575TIP3    H147216   3.795   4.662  15.648  1.6010 -1.8776  2.5150
 8575TIP3    H247217   3.893   4.772  15.681 -0.3037  1.0886 -1.2894
 8576TIP3   OH247218   2.050   3.601  16.491 -0.3063  0.0265 -0.1849
 8576TIP3    H147219   2.033   3.687  16.529 -1.3298 -0.1774 -0.1504
 8576TIP3    H247220   2.135   3.610  16.449 -0.6223  1.2089 -0.6130
 8577TIP3   OH247221   3.645   2.415  16.094 -0.5425  0.1331  0.0955
 8577TIP3    H147222   3.550   2.408  16.081 -0.5249 -1.2621  0.5716
 8577TIP3    H247223   3.655   2.467  16.173 -0.8901  0.9945 -0.4264
 8578TIP3   OH247224   1.791   3.892   2.155 -0.0038  0.0456  0.0625
 8578TIP3    H147225   1.729   3.922   2.089 -0.7934 -0.0375  0.7510
 8578TIP3    H247226   1.840   3.970   2.180 -0.8341  0.4210  0.5593
 8579TIP3   OH247227   2.124   2.120  13.329 -0.2259 -0.6438 -0.4650
 8579TIP3    H147228   2.058   2.110  13.397  0.1329  0.4069  0.0426
 8579TIP3    H247229   2.137   2.214  13.321  1.0107 -0.8241 -0.7514
 8580TIP3   OH247230   0.636   5.036  15.340  0.1935 -0.1078  0.1017
 8580TIP3    H147231   0.651   4.948  15.374  3.2763 -0.1775 -1.1940
 8580TIP3    H247232   0.612   5.088  15.417 -2.2761 -2.1560  0.7818
 8581TIP3   OH247233   1.365   3.392  15.941  0.2622  0.3707  0.2513
 8581TIP3    H147234   1.395   3.344  15.864 -0.9880 -1.6029  0.9450
 8581TIP3    H247235   1.319   3.468  15.906  1.6090  0.6765 -0.8831
 8582TIP3   OH247236   6.560   1.011  13.834  0.6372  0.4006 -0.0768
 8582TIP3    H147237   6.601   0.983  13.753  0.5011  0.0972 -0.0401
 8582TIP3    H247238   6.534   0.930  13.878  1.0216  0.5443  0.4327
 8583TIP3   OH247239   4.408   2.909   4.620 -0.0834  0.4129 -0.5011
 8583TIP3    H147240   4.368   2.871   4.542 -0.1500  1.0709 -0.7872
 8583TIP3    H247241   4.480   2.963   4.588  0.3436  0.1117 -0.0583
 8584TIP3   OH247242   6.186   6.467   5.221 -0.1546  0.3721 -0.2561
 8584TIP3    H147243   6.123   6.530   5.258  0.0541  0.9265 -0.8330
 8584TIP3    H247244   6.252   6.522   5.179  0.2647 -0.2299 -0.3820
 8585TIP3   OH247245   0.998   4.509   5.009  0.7603 -0.0440  0.7357
 8585TIP3    H147246   1.016   4.415   5.005 -0.2057 -0.1921 -0.5848
 8585TIP3    H247247   0.905   4.517   4.989  0.9433  1.2258  0.3028
 8586TIP3   OH247248   3.710   4.868  14.211 -0.2281 -0.4728  0.0298
 8586TIP3    H147249   3.635   4.917  14.177  0.3474  0.0515 -0.4722
 8586TIP3    H247250   3.751   4.830  14.134  1.3715  1.1255  0.0687
 8587TIP3   OH247251   5.668   3.886  17.185 -0.2374  0.7596 -0.4247
 8587TIP3    H147252   5.744   3.889  17.243 -1.1107 -1.1257  0.8863
 8587TIP3    H247253   5.623   3.969  17.199  0.3996  0.9609  0.4637
 8588TIP3   OH247254   3.833   4.651   3.325  0.3318 -0.2719  0.2861
 8588TIP3    H147255   3.851   4.602   3.245 -2.9062 -1.9575  0.5180
 8588TIP3    H247256   3.744   4.685   3.313  0.8844  1.9003  1.9744
 8589TIP3   OH247257   0.755   5.840   0.325 -0.1708  0.7461 -0.5546
 8589TIP3    H147258   0.773   5.769   0.386  0.0043  0.1050 -1.3502
 8589TIP3    H247259   0.660   5.845   0.321 -0.1833  0.1594 -0.9672
 8590TIP3   OH247260   2.907   0.143  14.809  0.1525 -0.1687 -0.5603
 8590TIP3    H147261   2.948   0.074  14.861 -1.0516 -1.0629 -0.7661
 8590TIP3    H247262   2.907   0.220  14.866  2.2328 -0.0967 -0.6153
 8591TIP3   OH247263   1.655   0.358  14.965 -0.0253  0.3249  0.1583
 8591TIP3    H147264   1.713   0.431  14.944  0.1118  0.3745  0.7145
 8591TIP3    H247265   1.680   0.289  14.903  0.2215  0.5490  0.0066
 8592TIP3   OH247266   1.596   3.821   3.285  0.5483 -0.2489 -0.4118
 8592TIP3    H147267   1.596   3.798   3.378  1.1400 -2.5591 -0.9726
 8592TIP3    H247268   1.580   3.739   3.239 -1.5467  1.1584 -2.3117
 8593TIP3   OH247269   2.199   4.814   6.147  0.3358  0.7205  0.4253
 8593TIP3    H147270   2.147   4.771   6.214  1.6369  0.4684  1.2968
 8593TIP3    H247271   2.182   4.907   6.159 -2.6672  0.5217 -1.6127
 8594TIP3   OH247272   4.744   2.539   0.852  0.2375 -0.1009  0.6829
 8594TIP3    H147273   4.700   2.505   0.774  0.8228 -0.4454  0.4955
 8594TIP3    H247274   4.787   2.619   0.822 -3.1530  2.1901  1.6966
 8595TIP3   OH247275   6.189   2.453   4.440 -0.0215  0.8051  0.0092
 8595TIP3    H147276   6.167   2.542   4.470 -0.8339  1.3974 -2.2205
 8595TIP3    H247277   6.226   2.467   4.353 -1.7736 -1.2012 -1.0760
 8596TIP3   OH247278   1.806   2.791  14.758 -0.0574  0.1452 -0.4316
 8596TIP3    H147279   1.837   2.728  14.692  1.6911 -0.2495  0.7258
 8596TIP3    H247280   1.869   2.782  14.830 -1.4895  1.1367  0.9574
 8597TIP3   OH247281   3.051   6.261  15.168  0.2345  0.3296  0.6035
 8597TIP3    H147282   3.083   6.201  15.235 -0.1570  1.1729  1.5547
 8597TIP3    H247283   3.009   6.205  15.103  1.1753 -0.5455  0.7352
 8598TIP3   OH247284   4.724   6.120   2.610  0.0413  0.0596  0.8287
 8598TIP3    H147285   4.787   6.082   2.671 -1.4005 -2.5995  0.7352
 8598TIP3    H247286   4.638   6.093   2.644 -0.8962  0.5013 -1.0911
 8599TIP3   OH247287   0.824   2.150  16.871  0.3411 -0.4151 -0.0505
 8599TIP3    H147288   0.898   2.188  16.823  1.6507 -0.2101  2.0735
 8599TIP3    H247289   0.860   2.070  16.911 -0.9487 -1.0250 -0.0861
 8600TIP3   OH247290   2.446   2.167  12.035  0.3029  0.4642 -0.3480
 8600TIP3    H147291   2.481   2.078  12.042  1.5837  0.9716 -0.3140
 8600TIP3    H247292   2.376   2.159  11.969 -0.2842 -0.7663  0.3935
 8601TIP3   OH247293   5.323   5.767  13.571 -0.0435  0.2822 -0.5437
 8601TIP3    H147294   5.365   5.841  13.527 -0.6345  0.9609  0.0164
 8601TIP3    H247295   5.244   5.805  13.610 -1.1678 -0.9708 -1.5799
 8602TIP3   OH247296   0.879   6.667   5.476 -0.1632  0.3952 -0.2535
 8602TIP3    H147297   0.956   6.671   5.533 -0.4493 -0.6739  0.2360
 8602TIP3    H247298   0.818   6.610   5.524 -1.9712  2.6731  0.2194
 8603TIP3   OH247299   5.716   4.640  15.285 -0.3216 -0.0706  0.4222
 8603TIP3    H147300   5.629   4.671  15.311 -0.5662 -0.8382  0.5311
 8603TIP3    H247301   5.768   4.720  15.277 -0.7149  0.3152  1.5551
 8604TIP3   OH247302   0.870   4.754   3.932  0.0696 -0.1762 -0.3330
 8604TIP3    H147303   0.837   4.798   3.853 -0.0181  2.0701  0.8861
 8604TIP3    H247304   0.804   4.774   3.998  0.8844 -0.7932  0.6675
 8605TIP3   OH247305   2.721   2.044  15.282  0.4062  0.1570  0.1189
 8605TIP3    H147306   2.756   2.054  15.193  4.0813 -1.3609  1.3145
 8605TIP3    H247307   2.722   2.133  15.318  0.7127  0.4891 -0.7016
 8606TIP3   OH247308   5.990   3.049   2.694 -0.5785  0.2220  0.1917
 8606TIP3    H147309   6.081   3.054   2.666 -0.7310  1.8561 -0.0205
 8606TIP3    H247310   5.981   3.120   2.758 -1.3179 -0.8640  1.3247
 8607TIP3   OH247311   4.046   4.998   0.002 -0.0412 -0.3290 -1.1797
 8607TIP3    H147312   4.079   5.060   0.066 -0.3711 -1.8542  0.4847
 8607TIP3    H247313   3.966   5.039  -0.033  1.3471  1.5051 -2.2710
 8608TIP3   OH247314   3.750   0.219   5.281  0.1312  0.1345 -0.2592
 8608TIP3    H147315   3.769   0.196   5.372 -0.2270 -1.4675 -0.5732
 8608TIP3    H247316   3.694   0.297   5.286 -0.6493 -0.4974  0.9110
 8609TIP3   OH247317   6.490   0.064   1.641  1.0198  0.0021 -0.4502
 8609TIP3    H147318   6.445   0.138   1.682 -2.2127 -0.9855 -2.1178
 8609TIP3    H247319   6.499   0.000   1.712  1.7105  1.0264  0.4082
 8610TIP3   OH247320   6.042   5.575   2.061  0.0738 -0.9015 -0.2020
 8610TIP3    H147321   6.001   5.521   1.993  0.7532 -2.5814  0.6989
 8610TIP3    H247322   6.127   5.601   2.024 -0.3266 -0.2982 -0.7026
 8611TIP3   OH247323   6.401   2.911   3.573 -0.8520  0.2842 -0.2807
 8611TIP3    H147324   6.338   2.981   3.590  0.4992  1.6309 -0.6508
 8611TIP3    H247325   6.416   2.915   3.478 -0.8633 -0.6029 -0.3222
 8612TIP3   OH247326   4.760   1.956  16.190  0.2386 -0.4537  0.5266
 8612TIP3    H147327   4.704   2.024  16.228  1.8988  0.1626  1.9350
 8612TIP3    H247328   4.836   2.003  16.157 -0.0953 -1.2704 -1.4784
 8613TIP3   OH247329   4.823   3.311  12.872 -0.2906 -0.3773 -0.0028
 8613TIP3    H147330   4.767   3.234  12.866 -0.5411 -0.0947 -1.5239
 8613TIP3    H247331   4.889   3.289  12.939 -1.9240 -0.8775  1.4712
 8614TIP3   OH247332   4.538   3.626   1.408 -0.0790 -0.6583 -0.3438
 8614TIP3    H147333   4.491   3.703   1.441 -1.6242 -1.4225 -0.6786
 8614TIP3    H247334   4.625   3.632   1.446 -1.1674 -0.4068  2.1858
 8615TIP3   OH247335   5.791   4.693   5.770 -0.2686  0.3818 -0.4128
 8615TIP3    H147336   5.804   4.676   5.677 -1.5004 -0.4050 -0.4387
 8615TIP3    H247337   5.837   4.776   5.786 -0.6884  0.8990 -1.8694
 8616TIP3   OH247338   5.799   4.693   2.168  0.1000 -0.0015 -0.3102
 8616TIP3    H147339   5.813   4.779   2.128  0.2035  0.2869  0.3503
 8616TIP3    H247340   5.797   4.710   2.262 -1.0620 -0.5507 -0.2315
 8617TIP3   OH247341   4.394   2.014   0.480 -0.1269 -0.3663  0.2625
 8617TIP3    H147342   4.409   1.936   0.428  0.3690 -0.1123  0.0220
 8617TIP3    H247343   4.321   2.058   0.438 -0.4398 -0.7247  0.4278
 8618TIP3   OH247344   1.162   3.890   3.183 -0.7890  0.4448 -0.1313
 8618TIP3    H147345   1.185   3.952   3.253 -1.1901  1.9459 -1.3025
 8618TIP3    H247346   1.077   3.854   3.209  0.3822 -1.1643  1.5726
 8619TIP3   OH247347   2.524   1.790  17.234 -0.6596 -0.3877  0.2435
 8619TIP3    H147348   2.491   1.854  17.172  2.1808 -0.7277 -1.7293
 8619TIP3    H247349   2.585   1.839  17.290 -1.2151 -0.6272  1.0670
 8620TIP3   OH247350   5.868   6.473   4.392  0.0598  0.5735  0.1886
 8620TIP3    H147351   5.780   6.453   4.359  0.7524 -0.5408 -1.0404
 8620TIP3    H247352   5.911   6.518   4.319  0.7704  0.3671  0.4792
 8621TIP3   OH247353   0.883   2.233   3.627 -0.4973  0.1184  0.1574
 8621TIP3    H147354   0.894   2.285   3.707  0.8735  0.2968 -0.1373
 8621TIP3    H247355   0.935   2.279   3.561 -0.9698 -0.4785 -0.6342
 8622TIP3   OH247356   2.378   0.774  12.093  0.1463 -0.8686  0.2099
 8622TIP3    H147357   2.450   0.746  12.036  0.6815 -1.8403  1.3340
 8622TIP3    H247358   2.309   0.801  12.033  0.8120 -1.5888 -0.9069
 8623TIP3   OH247359   4.017   6.195  13.827 -0.0600 -0.1801  0.1723
 8623TIP3    H147360   3.928   6.228  13.811  0.4100  0.9504 -0.1369
 8623TIP3    H247361   4.047   6.243  13.903  0.9772  0.8063 -0.8399
 8624TIP3   OH247362   2.657   3.615  13.798 -0.0230  0.0188 -0.5320
 8624TIP3    H147363   2.734   3.559  13.788  0.2325  0.6998 -2.5097
 8624TIP3    H247364   2.675   3.667  13.877  0.9644 -0.7172 -0.2628
 8625TIP3   OH247365   2.013   2.173   4.329  0.4705  0.1820 -0.5298
 8625TIP3    H147366   2.104   2.173   4.361 -0.0142  1.7199  0.9370
 8625TIP3    H247367   2.003   2.259   4.288 -0.7075  0.5008  0.4341
 8626TIP3   OH247368   5.544   3.159  16.650  0.0622 -0.1944 -0.2717
 8626TIP3    H147369   5.489   3.237  16.650  0.4871  0.1353 -1.4593
 8626TIP3    H247370   5.580   3.154  16.738  1.9744  2.4034 -0.8232
 8627TIP3   OH247371   3.070   5.118   3.709  0.4402  0.1270 -0.0492
 8627TIP3    H147372   3.094   5.083   3.795 -0.7170 -1.2281 -0.2790
 8627TIP3    H247373   3.020   5.049   3.667  0.9316  0.8079 -1.8082
 8628TIP3   OH247374   6.741   1.644  15.279 -0.9829 -0.0444  0.4324
 8628TIP3    H147375   6.690   1.718  15.246  2.7192  1.8788 -1.2166
 8628TIP3    H247376   6.795   1.682  15.348 -0.3759 -1.6315  0.8405
 8629TIP3   OH247377   0.081   1.166  11.336 -0.1205 -0.0419 -0.1048
 8629TIP3    H147378   0.144   1.237  11.348  0.2798 -0.1875 -1.3056
 8629TIP3    H247379   0.106   1.125  11.253 -0.4310 -1.4933  0.4922
 8630TIP3   OH247380   5.346   0.263  15.922  0.0736 -0.1598  0.2577
 8630TIP3    H147381   5.284   0.334  15.940 -0.5250 -0.5020 -0.4183
 8630TIP3    H247382   5.296   0.201  15.869  1.0189 -0.4177 -0.3378
 8631TIP3   OH247383   5.377   4.721  14.678 -0.7490  0.3122  0.1509
 8631TIP3    H147384   5.325   4.778  14.734 -1.5894  0.2750 -0.5763
 8631TIP3    H247385   5.332   4.723  14.593 -0.5025 -1.0250 -0.0277
 8632TIP3   OH247386   6.690   0.249   5.974  0.2802 -0.0243  0.0653
 8632TIP3    H147387   6.651   0.332   6.003  0.3796  0.6216 -1.5963
 8632TIP3    H247388   6.785   0.264   5.979  0.3425 -1.0891  2.6759
 8633TIP3   OH247389   6.736   1.780  14.902 -0.0401 -0.0689 -0.0966
 8633TIP3    H147390   6.675   1.842  14.863 -0.6173 -1.5131 -1.5441
 8633TIP3    H247391   6.755   1.717  14.832  0.1652 -1.7983  1.4642
 8634TIP3   OH247392   5.657   3.161   4.468 -0.4088  0.0020  0.5767
 8634TIP3    H147393   5.576   3.130   4.510  0.3809  0.1934  2.2590
 8634TIP3    H247394   5.711   3.082   4.460 -1.0179 -0.2617 -1.1981
 8635TIP3   OH247395   6.770   4.844  14.622 -0.2084 -0.0356  0.0044
 8635TIP3    H147396   6.790   4.920  14.568 -1.3069  0.4038  0.2200
 8635TIP3    H247397   6.742   4.777  14.559  0.1700 -0.0762 -0.1250
 8636TIP3   OH247398   2.968   1.220   1.576  0.3626 -0.0649 -1.3638
 8636TIP3    H147399   2.942   1.225   1.484 -1.4121 -0.0340 -0.8760
 8636TIP3    H247400   2.888   1.236   1.624  1.3995  0.5194  0.2068
 8637TIP3   OH247401   1.954   0.456  13.545 -0.1695  0.0694 -0.2602
 8637TIP3    H147402   2.039   0.494  13.567  0.0518  0.4776 -1.8114
 8637TIP3    H247403   1.911   0.444  13.630  0.4649  2.1670  0.4013
 8638TIP3   OH247404   3.937   1.630   0.904  0.0964  0.2082  0.2573
 8638TIP3    H147405   3.864   1.690   0.889 -0.4868 -0.8290 -1.1802
 8638TIP3    H247406   3.927   1.603   0.996 -2.2679 -1.1189 -0.3378
 8639TIP3   OH247407   2.248   5.029  15.822 -0.2323  0.0699  0.2872
 8639TIP3    H147408   2.179   4.971  15.856 -0.0352 -0.1339  0.3385
 8639TIP3    H247409   2.299   4.974  15.763  0.2953  0.0390  0.7679
 8640TIP3   OH247410   4.551   0.506   5.537  0.1155 -0.3231  0.2233
 8640TIP3    H147411   4.557   0.599   5.560 -0.2913  0.1395 -1.5107
 8640TIP3    H247412   4.642   0.478   5.528  0.2181  0.2793 -0.6809
 8641TIP3   OH247413   4.778   6.001   4.091 -0.4034 -0.0335 -0.8059
 8641TIP3    H147414   4.756   6.029   4.002 -2.6650 -1.4104 -0.7396
 8641TIP3    H247415   4.848   5.936   4.079  0.9299  1.4733 -1.3673
 8642TIP3   OH247416   5.310   2.912   6.441 -0.0458  0.0143  0.5651
 8642TIP3    H147417   5.376   2.979   6.428 -0.1258  0.0761  0.4735
 8642TIP3    H247418   5.332   2.871   6.525  0.6953 -0.6283  0.0729
 8643TIP3   OH247419   6.807   2.344  16.981 -0.4382 -0.1149 -0.6314
 8643TIP3    H147420   6.719   2.315  16.956 -0.4382 -0.2686 -0.4568
 8643TIP3    H247421   6.851   2.361  16.898 -0.7086  0.1907 -0.7145
 8644TIP3   OH247422   4.277   6.180   0.200 -0.5400 -0.1059  0.4001
 8644TIP3    H147423   4.349   6.133   0.158 -0.8427  0.2066 -0.5023
 8644TIP3    H247424   4.298   6.273   0.184 -0.8823 -0.0017  0.5661
 8645TIP3   OH247425   4.305   3.327  14.647 -0.3137  0.5149  0.2163
 8645TIP3    H147426   4.281   3.237  14.670  1.3862  0.4419  1.8312
 8645TIP3    H247427   4.253   3.381  14.705  1.8361  0.4162  2.2948
 8646TIP3   OH247428   3.224   6.659  12.432  0.1623 -0.5828  0.3245
 8646TIP3    H147429   3.185   6.628  12.513 -1.4370  1.1658  0.2830
 8646TIP3    H247430   3.305   6.703  12.458 -0.7173  0.6210  1.0876
 8647TIP3   OH247431   5.369   3.913  14.083 -0.1894 -0.2736 -0.1828
 8647TIP3    H147432   5.417   3.898  14.164 -0.8358  0.4851  0.3559
 8647TIP3    H247433   5.368   3.828  14.039  1.7285 -0.2843 -0.2719
 8648TIP3   OH247434   0.180   0.461  12.758 -0.3689 -0.0109  0.0301
 8648TIP3    H147435   0.172   0.542  12.808 -0.1344  1.1460 -1.7400
 8648TIP3    H247436   0.100   0.458  12.705  0.5624  0.1677 -1.4367
 8649TIP3   OH247437   3.902   2.453  12.468 -0.0773  0.7691  0.1776
 8649TIP3    H147438   3.864   2.539  12.448 -1.4737 -0.1761 -1.2774
 8649TIP3    H247439   3.847   2.419  12.539 -0.7540  0.2306 -0.6030
 8650TIP3   OH247440   4.167   0.414   3.866  0.2213  0.3782  0.0245
 8650TIP3    H147441   4.185   0.428   3.959 -0.8320  1.4511  0.0678
 8650TIP3    H247442   4.226   0.474   3.821 -0.9449  1.5868  0.0786
 8651TIP3   OH247443   1.152   4.262   0.529 -0.3746  0.1702 -0.5971
 8651TIP3    H147444   1.159   4.314   0.449 -0.7106  1.1152 -0.0236
 8651TIP3    H247445   1.136   4.326   0.598 -1.4087 -0.7498  0.0447
 8652TIP3   OH247446   3.246   1.824   2.246  0.5552  0.6173  0.6098
 8652TIP3    H147447   3.160   1.809   2.286  0.7980  0.3943  1.0497
 8652TIP3    H247448   3.272   1.911   2.277  1.2060  0.0116  1.7733
 8653TIP3   OH247449   6.555   2.852  16.120 -0.4025  0.4668 -0.1667
 8653TIP3    H147450   6.461   2.849  16.135 -0.8216  0.7534 -2.5673
 8653TIP3    H247451   6.567   2.811  16.034  1.2578  3.6325 -1.5203
 8654TIP3   OH247452   4.617   2.969  16.076  0.0136  0.3722 -0.5231
 8654TIP3    H147453   4.692   2.909  16.081 -1.0449 -0.8266  1.1726
 8654TIP3    H247454   4.541   2.912  16.065 -0.9680  1.4230  0.6712
 8655TIP3   OH247455   5.918   4.274  11.484 -0.0131 -0.4524 -0.7513
 8655TIP3    H147456   5.934   4.273  11.390 -1.5840  1.0690 -1.0574
 8655TIP3    H247457   5.822   4.272  11.491  0.0409  1.4231  0.7681
 8656TIP3   OH247458   1.776   2.394  14.572  0.3454  0.7838  0.2427
 8656TIP3    H147459   1.813   2.397  14.483  1.6214 -0.0738  0.7181
 8656TIP3    H247460   1.851   2.410  14.629 -0.0678 -0.6771  1.2304
 8657TIP3   OH247461   2.604   5.830  12.299 -0.1751 -0.0995 -0.2108
 8657TIP3    H147462   2.623   5.757  12.358  0.0941 -0.7452 -1.0763
 8657TIP3    H247463   2.509   5.825  12.285 -0.0467 -0.8035 -0.9108
 8658TIP3   OH247464   4.463   0.176  13.349  0.2352 -0.4602 -0.3415
 8658TIP3    H147465   4.529   0.243  13.333  0.0476 -0.1892  0.0331
 8658TIP3    H247466   4.512   0.093  13.346  0.4371 -0.3258 -0.9727
 8659TIP3   OH247467   2.118   0.558  13.266 -0.4204  0.3673 -0.4085
 8659TIP3    H147468   2.031   0.555  13.304 -0.3021  0.1416 -0.1632
 8659TIP3    H247469   2.140   0.467  13.246  1.2705 -0.0002  2.9075
 8660TIP3   OH247470   4.222   0.710   1.720 -0.0682 -0.7287 -0.3796
 8660TIP3    H147471   4.226   0.806   1.713 -2.0368 -0.6616 -0.9803
 8660TIP3    H247472   4.286   0.689   1.788 -0.1708  1.0962  0.3354
 8661TIP3   OH247473   0.027   4.873   0.115  0.0052  0.3741  0.1571
 8661TIP3    H147474   0.108   4.877   0.064 -0.3751  3.5736 -0.3334
 8661TIP3    H247475  -0.040   4.849   0.052  0.3312 -1.0055  0.3070
 8662TIP3   OH247476   0.400   0.188  13.977  0.2830 -0.3050  0.0769
 8662TIP3    H147477   0.383   0.252  14.046 -0.3046 -1.2108  0.7813
 8662TIP3    H247478   0.314   0.153  13.955  0.5270 -0.4079 -0.7495
 8663TIP3   OH247479   1.410   4.807   2.730  0.6398 -1.1715  0.3213
 8663TIP3    H147480   1.370   4.804   2.817  1.2166 -1.0658  0.5880
 8663TIP3    H247481   1.361   4.875   2.684  2.2653  0.8859  1.5296
 8664TIP3   OH247482   6.812   5.652  13.554 -0.1869  0.2031 -0.5148
 8664TIP3    H147483   6.719   5.661  13.531 -0.5074 -0.0191  0.6848
 8664TIP3    H247484   6.819   5.563  13.589  0.5223  0.1492 -0.7973
 8665TIP3   OH247485   1.569   6.114  16.729  0.3646  0.3338 -0.0694
 8665TIP3    H147486   1.600   6.089  16.642  0.2933  1.0716 -0.3115
 8665TIP3    H247487   1.559   6.031  16.776 -0.6632 -0.1501 -1.1199
 8666TIP3   OH247488   0.681   0.013   2.789 -0.2098  0.2215  0.0089
 8666TIP3    H147489   0.745   0.080   2.815 -0.7591  1.7607 -2.4279
 8666TIP3    H247490   0.733  -0.065   2.772  0.8632  1.0381 -0.5054
 8667TIP3   OH247491   5.071   5.506  14.331  0.6869 -0.0284 -0.4428
 8667TIP3    H147492   5.107   5.503  14.242  0.5571 -1.4750 -0.4551
 8667TIP3    H247493   4.983   5.470  14.323  0.7304 -0.3045  0.3029
 8668TIP3   OH247494   2.507   0.506   2.768 -0.1870  0.3905 -0.6058
 8668TIP3    H147495   2.554   0.472   2.692  1.0080 -1.2529  0.8301
 8668TIP3    H247496   2.423   0.461   2.767 -0.0333  0.1073 -0.7414
 8669TIP3   OH247497   2.722   3.350  13.999  0.1771  0.3138 -0.1960
 8669TIP3    H147498   2.816   3.362  14.014  0.2210 -0.9439  0.5429
 8669TIP3    H247499   2.717   3.296  13.920  0.0648  0.6713 -0.4336
 8670TIP3   OH247500   6.437   5.776   0.373  0.5917 -0.0559  0.2079
 8670TIP3    H147501   6.525   5.814   0.372  1.2032 -1.4595 -0.7757
 8670TIP3    H247502   6.426   5.744   0.463 -0.3567  3.3190  1.3719
 8671TIP3   OH247503   1.833   5.353   4.596 -0.1962  0.0548 -0.5079
 8671TIP3    H147504   1.862   5.264   4.617  1.7239  0.9412  0.7347
 8671TIP3    H247505   1.892   5.381   4.526 -0.8866  0.3088 -0.9893
 8672TIP3   OH247506   6.452   3.523   4.472 -0.0101 -0.2705 -0.4448
 8672TIP3    H147507   6.479   3.609   4.443 -1.2055 -0.2358 -1.5148
 8672TIP3    H247508   6.393   3.539   4.546 -0.5183 -0.1413 -0.8722
 8673TIP3   OH247509   6.085   3.574  14.509 -0.0366  0.3235  0.6353
 8673TIP3    H147510   5.997   3.603  14.488  0.8429  1.5515 -1.4635
 8673TIP3    H247511   6.108   3.622  14.589 -0.0435  2.5169 -0.6562
 8674TIP3   OH247512   4.476   4.846  16.817  0.0632  0.2898  0.7529
 8674TIP3    H147513   4.458   4.840  16.724 -1.2603 -0.6619  1.0484
 8674TIP3    H247514   4.466   4.757  16.850 -1.4421  0.9226  2.1220
 8675TIP3   OH247515   4.962   4.400  13.714 -0.3677  0.1163 -0.2272
 8675TIP3    H147516   4.885   4.395  13.770 -0.3356  0.5097 -0.1487
 8675TIP3    H247517   5.017   4.467  13.754  0.9210 -1.5077  0.8302
 8676TIP3   OH247518   0.742   6.434  14.954 -0.1123  0.6409 -0.0096
 8676TIP3    H147519   0.768   6.520  14.985  1.0857 -0.3544  1.8688
 8676TIP3    H247520   0.819   6.379  14.967 -1.9243 -1.5465  2.2574
 8677TIP3   OH247521   4.355   4.946   3.661 -0.4982 -0.4445 -0.0595
 8677TIP3    H147522   4.279   5.001   3.643 -0.4244 -0.3958 -0.2172
 8677TIP3    H247523   4.324   4.857   3.642 -0.5900 -0.4502  0.1118
 8678TIP3   OH247524   4.847   5.528  13.671  1.0709 -0.2188 -0.0337
 8678TIP3    H147525   4.777   5.522  13.736  1.9683  3.5577  1.4374
 8678TIP3    H247526   4.803   5.558  13.591  0.2128 -3.3148 -0.7787
 8679TIP3   OH247527   3.237   2.913  12.560 -0.0599 -0.1306  0.3243
 8679TIP3    H147528   3.278   2.908  12.646 -0.4093  1.9458  0.6408
 8679TIP3    H247529   3.181   2.991  12.565  0.0649  0.1225 -1.8336
 8680TIP3   OH247530   3.018   6.801  15.340  0.2399 -0.3814  0.2823
 8680TIP3    H147531   2.947   6.740  15.319 -0.4892  0.9396 -1.2020
 8680TIP3    H247532   2.975   6.868  15.393  0.6031 -0.1058  0.2237
 8681TIP3   OH247533   6.263   0.726   3.074 -0.3204  0.1633 -0.0762
 8681TIP3    H147534   6.186   0.741   3.129 -0.5072  1.2912 -0.6432
 8681TIP3    H247535   6.336   0.723   3.136 -0.5447  1.2759  0.2441
 8682TIP3   OH247536   4.297   0.932   4.031  0.6857 -0.0331 -0.1370
 8682TIP3    H147537   4.240   0.933   3.954  0.5348 -0.9506 -0.0436
 8682TIP3    H247538   4.367   0.870   4.008  0.4883 -0.5212  0.5703
 8683TIP3   OH247539   2.178   5.403  16.596  0.0132 -0.1636  0.2609
 8683TIP3    H147540   2.221   5.465  16.655  0.0598  0.4435 -0.4080
 8683TIP3    H247541   2.085   5.422  16.604  0.1013  0.7126 -0.7431
 8684TIP3   OH247542   2.374   0.646  14.055 -0.6118 -0.1229 -0.1640
 8684TIP3    H147543   2.354   0.689  14.138 -0.7301  0.5129 -0.5232
 8684TIP3    H247544   2.414   0.714  14.001  2.0988 -1.2591  0.3622
 8685TIP3   OH247545   6.351   0.816   5.961  0.0235 -0.8811 -0.0486
 8685TIP3    H147546   6.272   0.838   5.912  0.6262  1.4260 -0.0081
 8685TIP3    H247547   6.326   0.824   6.053  0.4506  0.3558 -0.0427
 8686TIP3   OH247548   0.169   5.050   5.222 -0.0384  0.8350 -0.6665
 8686TIP3    H147549   0.257   5.039   5.256 -0.7398 -1.5060  0.5198
 8686TIP3    H247550   0.114   5.058   5.300 -0.8402  2.6756 -1.3954
 8687TIP3   OH247551   3.476   5.657  13.948  0.3914 -0.9328  0.0280
 8687TIP3    H147552   3.439   5.581  13.993  0.6110 -0.9569  0.1722
 8687TIP3    H247553   3.411   5.680  13.882 -1.5336  1.2412  2.6251
 8688TIP3   OH247554   6.563   4.012  11.409  0.3594  0.0421 -0.4100
 8688TIP3    H147555   6.575   3.947  11.478  1.8191  0.4002 -0.3109
 8688TIP3    H247556   6.633   3.993  11.346  0.3647  1.0657 -0.7161
 8689TIP3   OH247557   6.695   5.227  14.204 -0.0942  0.7902  0.5932
 8689TIP3    H147558   6.646   5.159  14.249 -0.2075  1.6902  1.8562
 8689TIP3    H247559   6.706   5.194  14.115 -0.4964 -0.6875  1.0786
 8690TIP3   OH247560   5.828   0.414  13.075  0.6758  0.5867  0.0741
 8690TIP3    H147561   5.812   0.320  13.077  0.0341  0.7172  1.1316
 8690TIP3    H247562   5.756   0.450  13.023  0.3235  0.6129  0.5798
 8691TIP3   OH247563   3.091   5.268   5.424 -0.2512  0.0937 -0.3667
 8691TIP3    H147564   3.088   5.240   5.515  0.1123  0.1246 -0.3465
 8691TIP3    H247565   3.042   5.200   5.377  0.7788 -0.6727 -0.3371
 8692TIP3   OH247566   5.937   2.261  11.496  0.5364 -0.3944  0.4637
 8692TIP3    H147567   5.843   2.250  11.513  0.6173  0.7808  1.7538
 8692TIP3    H247568   5.941   2.309  11.413 -0.0016 -0.4682  0.3917
 8693TIP3   OH247569   2.932   3.308   3.131 -0.2552  0.3972  0.4930
 8693TIP3    H147570   3.027   3.321   3.123 -0.4401  0.8748 -1.0420
 8693TIP3    H247571   2.893   3.376   3.076 -1.4188 -1.3934 -0.9708
 8694TIP3   OH247572   4.043   2.714  16.984  0.1416 -0.0368  0.5124
 8694TIP3    H147573   4.054   2.751  16.897  0.6606  1.0606  1.0364
 8694TIP3    H247574   4.061   2.620  16.973 -0.6231 -0.0425 -0.7128
 8695TIP3   OH247575   5.667   2.694   1.403  0.4770  0.2897 -0.3885
 8695TIP3    H147576   5.575   2.709   1.379  0.6048  1.2586 -0.2921
 8695TIP3    H247577   5.697   2.779   1.436  0.9119 -0.4644  1.2078
 8696TIP3   OH247578   2.495   5.683   1.758 -0.6861  0.4049 -0.2102
 8696TIP3    H147579   2.493   5.589   1.740 -1.7236  0.4875 -0.5729
 8696TIP3    H247580   2.569   5.715   1.706  0.0438 -0.3007  0.3875
 8697TIP3   OH247581   1.329   3.690  11.562 -0.6110  0.1547 -1.3042
 8697TIP3    H147582   1.318   3.612  11.508 -0.3809 -0.6251 -0.2469
 8697TIP3    H247583   1.350   3.656  11.649 -0.5997  1.3953 -0.8095
 8698TIP3   OH247584   6.594   5.470   5.673  0.0460 -0.0847  0.0473
 8698TIP3    H147585   6.646   5.490   5.595  0.7201 -2.3203 -0.0846
 8698TIP3    H247586   6.585   5.555   5.718 -0.0654  1.1617 -2.2627
 8699TIP3   OH247587   0.682   0.077   5.020 -0.4524 -0.6540  0.4128
 8699TIP3    H147588   0.762   0.125   4.997 -2.2721  1.9646 -0.8076
 8699TIP3    H247589   0.700   0.038   5.105  2.4669 -0.9413 -0.3176
 8700TIP3   OH247590   6.207   6.238   6.642 -0.4383  0.1469 -0.5305
 8700TIP3    H147591   6.207   6.315   6.586 -0.9891 -0.3475 -1.2084
 8700TIP3    H247592   6.114   6.222   6.661 -0.2430  0.5170  0.8041
 8701TIP3   OH247593   2.607   6.322  11.586 -0.3771  0.4777  0.6118
 8701TIP3    H147594   2.645   6.265  11.653 -0.4605 -1.7633 -1.1906
 8701TIP3    H247595   2.548   6.380  11.634  2.2307  1.3094  2.9258
 8702TIP3   OH247596   5.471   2.918   5.162  0.3523  0.3222 -0.1310
 8702TIP3    H147597   5.424   2.862   5.223  0.6572  0.6039  0.3679
 8702TIP3    H247598   5.564   2.902   5.181  0.4497  0.3216 -0.6019
 8703TIP3   OH247599   5.337   5.153   2.836  0.2840 -0.3994  0.2787
 8703TIP3    H147600   5.349   5.060   2.855 -1.2172 -0.8723 -0.9030
 8703TIP3    H247601   5.414   5.177   2.784  0.3102 -1.1772 -0.0527
 8704TIP3   OH247602   0.353   1.055   1.326  0.2631 -0.5088  0.1967
 8704TIP3    H147603   0.305   1.134   1.352 -0.8753 -1.0641 -0.2256
 8704TIP3    H247604   0.371   1.010   1.408 -0.4555 -0.6074  0.2969
 8705TIP3   OH247605   2.297   2.157  10.398 -0.1988 -0.4501 -0.5470
 8705TIP3    H147606   2.220   2.213  10.411  0.7070  0.2281  2.0912
 8705TIP3    H247607   2.270   2.071  10.431 -0.0890 -0.4350 -0.4215
 8706TIP3   OH247608   0.564   6.670  16.433 -0.4211  0.1007 -0.1597
 8706TIP3    H147609   0.634   6.699  16.374 -1.1371  2.4463  0.1046
 8706TIP3    H247610   0.586   6.709  16.518 -0.9641 -0.8365  0.4244
 8707TIP3   OH247611   6.727   0.595  14.951  0.1153  0.3940 -0.3882
 8707TIP3    H147612   6.726   0.641  14.866 -1.5700 -1.2630 -1.2971
 8707TIP3    H247613   6.799   0.533  14.944  3.3415  3.7265  1.3773
 8708TIP3   OH247614   1.461   4.664  12.014 -0.4605 -0.2820 -0.6222
 8708TIP3    H147615   1.490   4.575  11.993 -0.4522 -0.5641  0.5394
 8708TIP3    H247616   1.540   4.717  12.008  0.0380 -0.7947  1.1022
 8709TIP3   OH247617   5.507   0.556   5.171 -0.1665 -0.2472 -0.5540
 8709TIP3    H147618   5.588   0.505   5.178 -0.6367 -1.0544 -0.8790
 8709TIP3    H247619   5.502   0.606   5.253  0.7455 -0.0589 -0.6120
 8710TIP3   OH247620   1.646   4.857  13.605  0.5171 -0.3116 -0.6534
 8710TIP3    H147621   1.559   4.883  13.637  1.6671  1.8589  0.8443
 8710TIP3    H247622   1.652   4.764  13.625 -1.8136 -0.7019 -1.6060
 8711TIP3   OH247623   4.618   1.073   6.544  0.4189 -0.3648  0.5548
 8711TIP3    H147624   4.690   1.010   6.544  0.7737  0.0241 -0.7118
 8711TIP3    H247625   4.660   1.157   6.562  0.6579  0.2298 -2.4779
 8712TIP3   OH247626   0.623   0.989   5.742  0.2287 -0.4108 -0.2742
 8712TIP3    H147627   0.669   0.968   5.661 -2.0552  0.8974 -2.0166
 8712TIP3    H247628   0.589   0.906   5.774  0.4810 -0.8347 -1.1140
 8713TIP3   OH247629   6.038   3.556   5.520  0.3919  0.1467  0.1263
 8713TIP3    H147630   6.103   3.624   5.501  1.9359 -1.6253 -1.1269
 8713TIP3    H247631   6.016   3.519   5.434 -0.1389 -1.1859  0.8185
 8714TIP3   OH247632   4.021   1.591  14.201 -0.0324 -0.2278  0.2449
 8714TIP3    H147633   3.960   1.553  14.138  0.2167 -0.1318 -0.0557
 8714TIP3    H247634   3.972   1.592  14.283 -0.4926 -0.0020 -0.0275
 8715TIP3   OH247635   4.541   0.022  16.184  0.0364  0.1583 -0.4076
 8715TIP3    H147636   4.523   0.088  16.117 -0.4733  0.6100  0.1670
 8715TIP3    H247637   4.594   0.068  16.249  0.5430 -0.2846 -0.4997
 8716TIP3   OH247638   2.472   5.382   4.490  0.8153  0.1156 -0.7958
 8716TIP3    H147639   2.464   5.446   4.420  1.7364  0.0854 -0.9346
 8716TIP3    H247640   2.406   5.316   4.470 -1.6286  2.0561  0.4995
 8717TIP3   OH247641   5.968   5.328  12.704  0.4878  0.1983  0.3735
 8717TIP3    H147642   5.924   5.397  12.754 -1.0751  0.2896 -1.0913
 8717TIP3    H247643   6.024   5.374  12.642  0.6674  0.1295  0.4858
 8718TIP3   OH247644   2.507   4.993  16.829  0.3150  0.3534 -0.0032
 8718TIP3    H147645   2.517   5.087  16.812 -1.1240  0.3825 -0.7578
 8718TIP3    H247646   2.536   4.951  16.748 -0.3560  0.2091 -0.1685
 8719TIP3   OH247647   3.058   3.665  11.827  0.0356  0.7807 -0.1597
 8719TIP3    H147648   3.093   3.676  11.739  1.9347  1.7698  0.6908
 8719TIP3    H247649   3.130   3.691  11.885 -0.3381 -2.0776  1.7215
 8720TIP3   OH247650   5.507   3.335   1.127 -0.3585  0.0025  0.0764
 8720TIP3    H147651   5.537   3.407   1.073 -1.9442  0.8471  0.2809
 8720TIP3    H247652   5.515   3.258   1.071 -1.4939  0.7914 -1.2044
 8721TIP3   OH247653   1.362   2.091   0.776  0.1422 -0.0673 -0.3277
 8721TIP3    H147654   1.416   2.053   0.707  0.9665 -1.7478  1.2154
 8721TIP3    H247655   1.272   2.075   0.748  0.3980  1.3379 -2.1277
 8722TIP3   OH247656   5.452   2.275   0.748 -0.3605 -0.1154 -0.3803
 8722TIP3    H147657   5.532   2.228   0.768  0.1826  0.5975 -0.8437
 8722TIP3    H247658   5.404   2.218   0.688 -0.4156 -0.7467  0.2653
 8723TIP3   OH247659   2.747   4.664  14.632 -0.3036  0.0537  0.3119
 8723TIP3    H147660   2.786   4.747  14.604 -1.1761  0.4785  0.3270
 8723TIP3    H247661   2.685   4.689  14.700  0.2201 -0.7367  1.0916
 8724TIP3   OH247662   2.933   1.165  14.244 -0.4517  0.2051 -0.6421
 8724TIP3    H147663   2.971   1.089  14.200 -1.0288  0.4281 -1.5373
 8724TIP3    H247664   2.973   1.240  14.200 -0.0032  0.4290  0.1317
 8725TIP3   OH247665   5.963   1.465  14.464  0.0686 -0.2135 -0.0203
 8725TIP3    H147666   6.045   1.438  14.506  1.2470 -0.7718 -2.5652
 8725TIP3    H247667   5.897   1.404  14.498  2.2946 -5.2145 -4.0520
 8726TIP3   OH247668   6.265   5.932   3.319 -0.1607 -0.5571 -0.4107
 8726TIP3    H147669   6.236   5.976   3.238  0.5248  2.3996  0.9087
 8726TIP3    H247670   6.354   5.902   3.299  0.2463  0.7143 -0.5793
 8727TIP3   OH247671   5.111   2.733  17.054 -0.4944  0.2909 -0.2880
 8727TIP3    H147672   5.102   2.771  16.967 -2.2635  0.0830 -0.2237
 8727TIP3    H247673   5.098   2.639  17.040  0.5649  0.1015  0.0077
 8728TIP3   OH247674   3.061   2.166  13.054  0.4543  0.8366 -0.3628
 8728TIP3    H147675   3.127   2.220  13.098 -1.3663  1.9362  1.0582
 8728TIP3    H247676   2.985   2.169  13.111  0.1487 -2.9799 -0.4148
 8729TIP3   OH247677   5.311   4.060  11.269  0.2843 -0.0151  0.4568
 8729TIP3    H147678   5.394   4.054  11.222 -0.3210 -0.3058 -0.5755
 8729TIP3    H247679   5.265   4.133  11.227  0.3996  0.7662  1.6509
 8730TIP3   OH247680   4.718   6.420  14.001  0.3311  0.5908 -0.4814
 8730TIP3    H147681   4.716   6.325  13.989 -2.1178  0.6351 -0.6918
 8730TIP3    H247682   4.676   6.455  13.923 -0.5457  1.7509  0.4932
 8731TIP3   OH247683   3.256   0.560  14.076  0.3647  0.7071 -0.0875
 8731TIP3    H147684   3.313   0.540  14.151 -0.6652 -1.2503  0.1807
 8731TIP3    H247685   3.288   0.504  14.006 -1.9590 -1.3101  0.4056
 8732TIP3   OH247686   1.729   3.236  16.761 -0.2757  0.1801  0.1410
 8732TIP3    H147687   1.689   3.276  16.684  1.1580 -0.4235 -0.9403
 8732TIP3    H247688   1.682   3.154  16.773 -0.5961  0.3429 -0.0162
 8733TIP3   OH247689   4.818   5.730   6.689  0.1425  0.0280  0.3583
 8733TIP3    H147690   4.777   5.793   6.748  0.2270  0.4970 -0.0781
 8733TIP3    H247691   4.884   5.781   6.642 -0.0459 -0.2990 -0.2673
 8734TIP3   OH247692   6.717   2.475   2.661 -0.3572 -0.0469 -0.3177
 8734TIP3    H147693   6.810   2.489   2.680 -0.1011 -1.1535 -0.7174
 8734TIP3    H247694   6.713   2.387   2.623 -1.5156  0.1640 -0.7057
 8735TIP3   OH247695   2.832   2.820  17.237  0.1609 -0.3984  0.8429
 8735TIP3    H147696   2.826   2.838  17.143 -0.4974  3.4548  1.5373
 8735TIP3    H247697   2.741   2.803  17.263  0.5667 -3.4149  0.5210
 8736TIP3   OH247698   3.322   5.614   3.283  0.6486 -0.5825  0.8790
 8736TIP3    H147699   3.368   5.633   3.201 -1.8992 -1.8752 -0.9211
 8736TIP3    H247700   3.306   5.699   3.323  2.9659 -0.0092  0.6838
 8737TIP3   OH247701   6.096   4.001  15.766  0.0765 -0.1858 -0.4472
 8737TIP3    H147702   6.167   4.064  15.778  0.6998 -0.8243 -0.7499
 8737TIP3    H247703   6.133   3.933  15.709 -1.0914  0.0055 -1.4659
 8738TIP3   OH247704   4.440   0.186   0.136  0.0465  0.0866  0.6226
 8738TIP3    H147705   4.531   0.166   0.113 -0.1559 -0.2199  0.0745
 8738TIP3    H247706   4.413   0.250   0.070 -0.5077 -0.7141  0.0627
 8739TIP3   OH247707   6.589   1.867   2.924 -0.2756  0.2313  0.4719
 8739TIP3    H147708   6.585   1.864   3.020 -2.0210 -3.1069  0.3487
 8739TIP3    H247709   6.505   1.902   2.898  1.0955  3.4797  0.1541
 8740TIP3   OH247710   0.583   6.626  12.756 -0.3964  0.1660  0.2918
 8740TIP3    H147711   0.661   6.617  12.812 -0.9791 -1.0006  0.9306
 8740TIP3    H247712   0.611   6.685  12.686  1.3055 -0.8064  0.1034
 8741TIP3   OH247713   6.607   5.843   3.903  0.5685 -0.1943  0.1744
 8741TIP3    H147714   6.637   5.932   3.922  0.7945 -0.5428  1.5670
 8741TIP3    H247715   6.675   5.787   3.941 -1.0753 -0.9733  2.0497
 8742TIP3   OH247716   5.490   4.371   4.186 -0.0051 -0.1971 -0.0175
 8742TIP3    H147717   5.397   4.367   4.209  0.3167  0.2606  1.4301
 8742TIP3    H247718   5.529   4.297   4.233  0.6318  0.5970  0.7089
 8743TIP3   OH247719   0.911   4.613   1.559  0.0883  0.0815 -0.5012
 8743TIP3    H147720   0.960   4.554   1.616  1.5712  1.1734 -0.6265
 8743TIP3    H247721   0.956   4.607   1.475 -0.2644  0.7584 -0.7409
 8744TIP3   OH247722   6.228   4.307  11.960  0.2603 -0.2613  0.2416
 8744TIP3    H147723   6.222   4.212  11.955  2.0091 -0.3887  0.3707
 8744TIP3    H247724   6.243   4.335  11.870 -2.2964  0.0839 -0.1264
 8745TIP3   OH247725   6.759   4.313  16.631  0.3870 -0.7222  0.3147
 8745TIP3    H147726   6.852   4.293  16.632  0.6033  0.2951  1.4491
 8745TIP3    H247727   6.753   4.401  16.594 -0.2776 -1.4593 -1.3946
 8746TIP3   OH247728   4.790   2.171   2.560  0.4086  0.2198  0.1141
 8746TIP3    H147729   4.702   2.207   2.571  1.0068  0.9360  2.9960
 8746TIP3    H247730   4.844   2.247   2.539  0.6168  0.0095 -0.1135
 8747TIP3   OH247731   1.343   4.779   3.816 -0.3169 -0.3160 -0.4550
 8747TIP3    H147732   1.416   4.832   3.850 -0.8571  0.0720  0.1028
 8747TIP3    H247733   1.381   4.692   3.803 -0.0636 -0.4483  1.0371
 8748TIP3   OH247734   5.922   4.307   0.343  0.1239 -0.1918 -0.2465
 8748TIP3    H147735   5.873   4.354   0.410  0.9757 -1.5825  1.4159
 8748TIP3    H247736   6.010   4.345   0.347  0.0391  0.0862 -0.9598
 8749TIP3   OH247737   1.120   2.528  12.180 -0.8831 -0.0037 -0.6466
 8749TIP3    H147738   1.132   2.433  12.177  1.7470  0.3346 -1.8710
 8749TIP3    H247739   1.154   2.559  12.096 -1.5208  2.0459 -0.1743
 8750TIP3   OH247740   3.355   5.973   5.247 -0.4810  0.2144  0.1196
 8750TIP3    H147741   3.319   5.891   5.215 -1.4433  1.0328 -0.9201
 8750TIP3    H247742   3.374   6.024   5.168  0.4376  0.8462  0.7399
 8751TIP3   OH247743   2.049   1.239  11.797 -0.0241 -0.3326 -0.0351
 8751TIP3    H147744   2.098   1.219  11.877  1.5109  2.7228 -0.1016
 8751TIP3    H247745   1.970   1.283  11.828  1.5285  2.6975 -0.1810
 8752TIP3   OH247746   6.067   6.311  14.010  0.0476  0.1584  0.2465
 8752TIP3    H147747   6.084   6.282  13.921 -0.3952 -0.7100  0.4434
 8752TIP3    H247748   6.121   6.254  14.065 -1.1094 -0.5643  0.6568
 8753TIP3   OH247749   2.185   1.249  16.528  0.7031  0.8899 -0.1154
 8753TIP3    H147750   2.149   1.181  16.471  0.5886 -0.6231  1.7051
 8753TIP3    H247751   2.109   1.298  16.559  0.5329  0.1344  0.6827
 8754TIP3   OH247752   3.492   1.043   2.377  0.4029 -0.0521 -0.1818
 8754TIP3    H147753   3.485   1.015   2.469  0.1779 -0.3199 -0.2775
 8754TIP3    H247754   3.570   0.999   2.344  0.5116  0.0823 -0.1065
 8755TIP3   OH247755   1.115   2.614   1.457 -0.7896 -0.4331 -0.1611
 8755TIP3    H147756   1.046   2.554   1.431 -0.7208 -1.1884  1.3447
 8755TIP3    H247757   1.196   2.571   1.432 -0.7607 -0.7802  0.5086
 8756TIP3   OH247758   5.182   4.651  13.078 -0.0661  0.6282  0.2202
 8756TIP3    H147759   5.258   4.606  13.115  0.2120  2.0662  1.4292
 8756TIP3    H247760   5.205   4.666  12.986 -0.3989 -2.1721 -0.3786
 8757TIP3   OH247761   0.719   4.519   1.353  0.0431  0.3457 -0.1102
 8757TIP3    H147762   0.724   4.498   1.447 -1.5513  0.7041  0.0635
 8757TIP3    H247763   0.709   4.614   1.350 -1.5861  0.1738 -0.5666
 8758TIP3   OH247764   5.826   1.101  11.745  0.8833  0.6262  0.7472
 8758TIP3    H147765   5.919   1.119  11.729  0.7229  2.5519  1.7825
 8758TIP3    H247766   5.821   1.076  11.837  0.9200 -3.8867 -0.3806
 8759TIP3   OH247767   3.205   5.936  16.117 -0.4877 -0.3568 -0.0799
 8759TIP3    H147768   3.283   5.956  16.065 -0.2791  1.0842  0.7643
 8759TIP3    H247769   3.132   5.945  16.056 -0.0800 -0.7479 -0.6304
 8760TIP3   OH247770   0.217   3.377  16.325 -0.4804 -0.1187 -0.1533
 8760TIP3    H147771   0.246   3.381  16.416  0.3109 -2.4073 -0.2764
 8760TIP3    H247772   0.123   3.359  16.331 -0.3683 -0.5971  0.2101
 8761TIP3   OH247773   5.794   0.777   3.417 -0.2173 -0.3539  0.4155
 8761TIP3    H147774   5.826   0.688   3.431 -0.8070 -0.3138  2.0523
 8761TIP3    H247775   5.860   0.833   3.458 -0.9594 -0.1425  1.3340
 8762TIP3   OH247776   1.720   4.705   0.852  0.1671  0.2692 -0.2455
 8762TIP3    H147777   1.717   4.793   0.889  0.6827  0.0523  0.3293
 8762TIP3    H247778   1.813   4.691   0.832  0.0267  0.0132 -0.7245
 8763TIP3   OH247779   1.956   1.263  12.267  0.0634 -0.1990  0.0156
 8763TIP3    H147780   1.911   1.346  12.252  0.3124 -0.2614 -1.1124
 8763TIP3    H247781   1.929   1.237  12.356  0.0291  1.1079  0.4065
 8764TIP3   OH247782   5.708   1.832  15.172 -0.3262  0.2672 -0.1678
 8764TIP3    H147783   5.759   1.874  15.241 -1.3139  0.5245  0.4201
 8764TIP3    H247784   5.770   1.818  15.101  0.8571 -0.5658  1.0052
 8765TIP3   OH247785   2.882   0.763  12.082 -0.0349 -0.7028 -0.0128
 8765TIP3    H147786   2.798   0.770  12.128  0.5222 -1.8882  1.2242
 8765TIP3    H247787   2.859   0.769  11.989 -1.4275 -0.4334  0.3363
 8766TIP3   OH247788   2.429   3.546  15.106  0.1914  0.1860  0.4363
 8766TIP3    H147789   2.469   3.621  15.150 -0.6894  2.1297 -1.9246
 8766TIP3    H247790   2.336   3.567  15.102 -0.1863 -1.4287  0.4656
 8767TIP3   OH247791   0.056   4.477   5.549  0.3622 -0.4812  0.1919
 8767TIP3    H147792  -0.008   4.408   5.528  0.7208 -0.2495 -1.6859
 8767TIP3    H247793   0.136   4.429   5.570 -0.2509 -0.7505  1.9813
 8768TIP3   OH247794   3.085   2.915  13.182  0.0995  0.8362 -1.0507
 8768TIP3    H147795   3.165   2.966  13.192  1.0245 -0.7548 -0.2206
 8768TIP3    H247796   3.057   2.896  13.271 -1.0719  1.1561 -1.3360
 8769TIP3   OH247797   6.759   2.465  13.458  0.4026 -0.0945 -0.1085
 8769TIP3    H147798   6.735   2.552  13.487  2.7543  0.4753  0.2268
 8769TIP3    H247799   6.780   2.475  13.365  1.8855 -0.0329  0.2214
 8770TIP3   OH247800   1.615   5.864   3.775 -0.0552 -0.0654 -0.1413
 8770TIP3    H147801   1.702   5.902   3.788  0.3532 -0.6289 -1.1068
 8770TIP3    H247802   1.622   5.776   3.812 -1.0018  0.7775  2.1048
 8771TIP3   OH247803   4.530   1.255  14.378 -0.6552  0.3309  0.1129
 8771TIP3    H147804   4.454   1.231  14.326 -0.6769 -0.7829  0.6578
 8771TIP3    H247805   4.599   1.270  14.313 -0.7978 -0.6357 -0.2735
 8772TIP3   OH247806   0.072   4.623   5.187 -0.1315  0.4436 -0.2909
 8772TIP3    H147807   0.023   4.549   5.223  0.3210 -0.1264 -0.8226
 8772TIP3    H247808   0.022   4.650   5.111 -0.4749  0.9008  0.0983
 8773TIP3   OH247809   0.159   0.460  13.681  0.3937 -0.2548 -0.3169
 8773TIP3    H147810   0.250   0.439  13.660  0.8824  2.1238 -0.6849
 8773TIP3    H247811   0.161   0.488  13.773  0.2818  1.1917 -0.7467
 8774TIP3   OH247812   1.392   3.904   2.759 -0.1564 -0.3436 -0.2093
 8774TIP3    H147813   1.381   3.837   2.826 -1.2270 -0.5915 -0.6300
 8774TIP3    H247814   1.485   3.898   2.735  0.2694 -0.1884  1.3023
 8775TIP3   OH247815   3.197   6.468   2.630  0.1058 -0.0644 -0.3564
 8775TIP3    H147816   3.189   6.512   2.545 -1.5762 -1.2132 -0.8128
 8775TIP3    H247817   3.208   6.376   2.607  0.6625 -0.2512  0.6630
 8776TIP3   OH247818   5.689   1.344  11.822  0.0936 -0.0211 -0.2556
 8776TIP3    H147819   5.610   1.357  11.769 -2.3918  1.5437  3.6780
 8776TIP3    H247820   5.695   1.249  11.833 -1.2773 -0.1534 -0.5564
 8777TIP3   OH247821   4.301   5.369  11.371  0.0234 -0.0417  0.1570
 8777TIP3    H147822   4.211   5.393  11.395  0.5460  1.9988  0.1670
 8777TIP3    H247823   4.302   5.371  11.275  0.5235  1.7748  0.1897
 8778TIP3   OH247824   2.115   1.886  16.648 -0.1935 -0.1338  0.2995
 8778TIP3    H147825   2.107   1.805  16.699 -1.2012  1.3465  2.5645
 8778TIP3    H247826   2.152   1.949  16.710 -0.5485  1.4508 -1.0891
 8779TIP3   OH247827   4.236   1.949  15.882 -0.4187 -0.0325  0.7142
 8779TIP3    H147828   4.141   1.949  15.883 -0.4586 -2.1668 -0.6944
 8779TIP3    H247829   4.261   1.862  15.914  1.0285 -0.0238 -0.3461
 8780TIP3   OH247830   5.521   6.355  14.806  0.3273 -0.0002 -0.0322
 8780TIP3    H147831   5.453   6.409  14.845 -0.5249 -0.5342 -0.7301
 8780TIP3    H247832   5.600   6.409  14.808 -0.2338  0.8098  0.3504
 8781TIP3   OH247833   0.249   2.660   2.945  0.0559 -0.0855  1.3087
 8781TIP3    H147834   0.190   2.588   2.965 -0.2965 -0.2941 -0.3999
 8781TIP3    H247835   0.289   2.635   2.861 -0.3438  1.8713  0.5217
 8782TIP3   OH247836   2.942   6.315  11.411  0.1193 -0.6302 -0.6047
 8782TIP3    H147837   2.958   6.235  11.361  0.6102 -0.6906 -0.3497
 8782TIP3    H247838   2.897   6.373  11.349  1.3297 -0.4492 -1.3333
 8783TIP3   OH247839   4.014   1.501   1.771 -0.1206  0.2099  0.1446
 8783TIP3    H147840   3.967   1.567   1.720 -1.5147 -1.1567 -0.3844
 8783TIP3    H247841   3.983   1.513   1.861 -0.5661  0.1203  0.0044
 8784TIP3   OH247842   6.344   5.657  14.423  0.4848  0.7970 -0.1567
 8784TIP3    H147843   6.330   5.673  14.516 -0.4107  0.7657 -0.2806
 8784TIP3    H247844   6.337   5.562  14.413 -0.4665  0.8804 -0.4070
 8785TIP3   OH247845   6.283   3.973   0.178  0.3617  0.4585  0.2206
 8785TIP3    H147846   6.361   3.919   0.172 -0.8757 -1.7272  2.6416
 8785TIP3    H247847   6.214   3.913   0.206 -1.2773  3.0484  2.0487
 8786TIP3   OH247848   6.297   2.976  14.535  0.1930  0.4365  0.0481
 8786TIP3    H147849   6.247   3.046  14.493  0.0188 -0.0285 -0.5059
 8786TIP3    H247850   6.386   3.012  14.541 -0.1062  1.0970  0.6620
 8787TIP3   OH247851   0.872   3.393  11.988  0.5580  0.2110 -0.0657
 8787TIP3    H147852   0.855   3.330  11.919  1.1622 -0.6150  0.5332
 8787TIP3    H247853   0.956   3.367  12.025 -0.3697 -0.1871  1.8655
 8788TIP3   OH247854   3.329   2.410   2.443  0.1621  0.2056 -0.3581
 8788TIP3    H147855   3.372   2.364   2.515 -0.5908 -1.8482 -1.1802
 8788TIP3    H247856   3.273   2.475   2.485  1.9443  1.0497  0.7955
 8789TIP3   OH247857   4.621   0.547   5.209 -0.5798 -0.0226 -0.7201
 8789TIP3    H147858   4.626   0.462   5.167  3.2027 -1.3394  2.1230
 8789TIP3    H247859   4.550   0.539   5.272 -0.4321 -0.9873 -0.6725
 8790TIP3   OH247860   1.816   6.762   5.610  0.2362  0.2467 -0.0348
 8790TIP3    H147861   1.878   6.789   5.678  1.6203 -2.5548 -0.0859
 8790TIP3    H247862   1.747   6.715   5.657  0.5687 -0.6512 -0.4308
 8791TIP3   OH247863   3.122   2.897  15.560  0.2959  0.4513  0.3605
 8791TIP3    H147864   3.153   2.837  15.492 -1.0843 -0.3733  0.4360
 8791TIP3    H247865   3.072   2.842  15.620  1.6913  1.1389  2.1864
 8792TIP3   OH247866   4.814   1.523  15.553 -0.0629  0.1238 -0.3949
 8792TIP3    H147867   4.891   1.537  15.498 -0.1213 -1.1050 -0.8013
 8792TIP3    H247868   4.740   1.532  15.493 -0.1540 -0.4690 -0.3786
 8793TIP3   OH247869   6.326   4.745   6.152 -0.2811 -0.9467 -0.5439
 8793TIP3    H147870   6.404   4.792   6.181 -2.3342  2.4822 -0.2390
 8793TIP3    H247871   6.273   4.735   6.231 -1.1206 -1.2638 -1.1365
 8794TIP3   OH247872   0.166   1.910  17.221  0.2146  0.9022 -0.3520
 8794TIP3    H147873   0.252   1.910  17.179 -0.7760 -1.6333 -2.4853
 8794TIP3    H247874   0.127   1.993  17.195  0.5897  0.4501 -2.4850
 8795TIP3   OH247875   4.029   0.561  14.540 -0.1506  0.4686 -0.1881
 8795TIP3    H147876   4.112   0.608  14.533  0.0463 -0.1044 -2.0785
 8795TIP3    H247877   3.967   0.616  14.493 -0.1236 -0.6391 -1.5687
 8796TIP3   OH247878   3.540   3.704   1.097  0.0877  0.1724 -0.9214
 8796TIP3    H147879   3.602   3.771   1.067 -0.3625  0.5882 -0.9443
 8796TIP3    H247880   3.589   3.622   1.093  0.4760  0.4244 -1.4188
 8797TIP3   OH247881   0.004   2.645   5.827  0.1734 -0.1099  0.0591
 8797TIP3    H147882   0.086   2.595   5.820  0.9918  1.4707 -2.3098
 8797TIP3    H247883  -0.055   2.603   5.764 -0.6103 -0.7745  1.2230
 8798TIP3   OH247884   4.285   4.411   3.627  0.2291 -0.0596  0.0058
 8798TIP3    H147885   4.300   4.327   3.671 -0.4036 -0.0693  0.2088
 8798TIP3    H247886   4.220   4.391   3.559 -1.2179  0.6163  1.1791
 8799TIP3   OH247887   1.412   0.257   5.122 -0.1630 -0.2026 -0.0368
 8799TIP3    H147888   1.481   0.305   5.168 -1.1531 -1.0852  2.4298
 8799TIP3    H247889   1.426   0.165   5.148 -1.9921 -0.4363  0.1464
 8800TIP3   OH247890   1.223   6.589  11.920 -0.2464 -0.6666  0.4992
 8800TIP3    H147891   1.193   6.524  11.984  0.7765 -3.3541 -1.6677
 8800TIP3    H247892   1.148   6.600  11.861  0.1836 -1.2198 -0.1544
 8801TIP3   OH247893   3.455   6.046   4.723  0.2046  0.4410 -0.1396
 8801TIP3    H147894   3.445   6.105   4.649 -1.2379  0.6958  0.2325
 8801TIP3    H247895   3.365   6.024   4.749  0.6829  0.0929  1.3207
 8802TIP3   OH247896   1.723   4.079  15.426 -0.3497 -0.1655 -0.3573
 8802TIP3    H147897   1.782   4.151  15.446 -1.4624  0.5769  0.3117
 8802TIP3    H247898   1.745   4.054  15.337  1.5522 -0.4734  0.1802
 8803TIP3   OH247899   4.481   2.733   0.380 -0.5896 -0.3503  0.1052
 8803TIP3    H147900   4.459   2.799   0.314 -0.4533  0.2032  0.6114
 8803TIP3    H247901   4.518   2.661   0.329 -2.1493 -0.6775 -0.6096
 8804TIP3   OH247902   5.866   5.289   4.660  0.3328  0.3899  0.2254
 8804TIP3    H147903   5.946   5.286   4.607 -0.1252 -0.4309 -0.4259
 8804TIP3    H247904   5.799   5.322   4.600  0.0963  0.7383  0.6743
 8805TIP3   OH247905   1.959   3.024   2.434  0.3295  0.0427 -0.0579
 8805TIP3    H147906   1.870   3.036   2.469  0.6169 -1.0891  1.1330
 8805TIP3    H247907   1.979   2.932   2.453  1.7741  0.3073 -0.2644
 8806TIP3   OH247908   0.711   2.484   4.069  0.2655 -0.1081  0.2489
 8806TIP3    H147909   0.728   2.484   3.975  0.0601  1.1081  0.2015
 8806TIP3    H247910   0.619   2.508   4.077  0.7345  1.5965  0.8167
 8807TIP3   OH247911   5.362   6.622   4.470 -0.4862 -0.4195 -0.4620
 8807TIP3    H147912   5.368   6.579   4.556 -1.5214 -0.3373 -0.3474
 8807TIP3    H247913   5.432   6.582   4.419  1.7402  1.2660  1.1831
 8808TIP3   OH247914   2.143   4.963  16.775 -0.5098  0.6474 -0.4506
 8808TIP3    H147915   2.107   5.034  16.829 -1.4201 -0.2197  0.1084
 8808TIP3    H247916   2.185   5.008  16.701 -2.4090  1.7215 -0.9147
 8809TIP3   OH247917   1.978   0.139  15.748 -0.4044  0.4608  0.6247
 8809TIP3    H147918   2.014   0.083  15.679  0.6722 -1.9040  2.9926
 8809TIP3    H247919   2.034   0.216  15.748  0.2820 -0.0247 -0.4131
 8810TIP3   OH247920   5.166   5.343  15.140  0.1367 -0.0294  0.2268
 8810TIP3    H147921   5.205   5.417  15.187 -0.6287  0.0753  0.6989
 8810TIP3    H247922   5.146   5.279  15.209 -1.8864  0.5190  0.1846
 8811TIP3   OH247923   0.447   6.433   3.743 -0.1551 -0.2316 -0.4603
 8811TIP3    H147924   0.358   6.399   3.750 -0.3462  0.2384 -0.6457
 8811TIP3    H247925   0.501   6.364   3.782 -0.6442 -0.2765  0.1501
 8812TIP3   OH247926   1.024   1.274   3.966 -0.3078  0.4581  0.2409
 8812TIP3    H147927   0.952   1.320   4.010 -1.8214 -2.2006  0.6523
 8812TIP3    H247928   1.064   1.222   4.036 -0.8015 -1.4662 -0.8843
 8813TIP3   OH247929   3.854   2.664   0.163  0.3437  0.2233 -0.0433
 8813TIP3    H147930   3.902   2.590   0.125 -1.3404 -1.4048  0.9023
 8813TIP3    H247931   3.833   2.635   0.252 -0.9428  1.5677  0.1005
 8814TIP3   OH247932   6.357   3.855  14.816 -0.1648  0.3666  0.2946
 8814TIP3    H147933   6.362   3.948  14.838 -1.0219  0.0968  1.6922
 8814TIP3    H247934   6.442   3.836  14.775  1.4992  0.9290  3.3046
 8815TIP3   OH247935   5.282   4.724   3.506  0.4655 -0.2125 -0.2833
 8815TIP3    H147936   5.353   4.661   3.517 -0.3834 -1.0887  0.2042
 8815TIP3    H247937   5.298   4.764   3.420  0.4893 -1.7492 -1.0045
 8816TIP3   OH247938   4.534   2.781   5.319  0.1415  0.3857 -0.4160
 8816TIP3    H147939   4.590   2.724   5.267 -0.0031  0.6803 -0.9065
 8816TIP3    H247940   4.449   2.737   5.320 -0.0135  0.6678 -0.9313
 8817TIP3   OH247941   6.583   0.103   2.212  0.1031 -0.0458 -0.9455
 8817TIP3    H147942   6.571   0.175   2.150 -1.0653 -0.3767 -1.1076
 8817TIP3    H247943   6.495   0.077   2.237  0.5614 -0.0308  0.7382
 8818TIP3   OH247944   0.283   5.466   3.768  0.6396 -0.2381 -0.2371
 8818TIP3    H147945   0.236   5.549   3.761 -1.2825 -1.1867  0.9136
 8818TIP3    H247946   0.216   5.403   3.795  2.5391 -1.6951  1.2113
 8819TIP3   OH247947   5.875   2.076  12.485  0.4624  0.6764  0.0241
 8819TIP3    H147948   5.781   2.093  12.493  0.6800  1.2878  1.6411
 8819TIP3    H247949   5.913   2.114  12.565  2.1932  1.2471 -1.0305
 8820TIP3   OH247950   1.280   1.449   4.922 -0.5683  0.3355 -0.7023
 8820TIP3    H147951   1.323   1.366   4.941 -1.5241  0.0217  0.1244
 8820TIP3    H247952   1.273   1.450   4.826 -0.0526 -0.2720 -0.7517
 8821TIP3   OH247953   4.014   3.249   5.680 -0.1958 -0.4262 -0.0029
 8821TIP3    H147954   4.101   3.286   5.698 -0.8032  0.3505  1.4027
 8821TIP3    H247955   3.987   3.291   5.599  0.5389 -0.3170 -0.1989
 8822TIP3   OH247956   2.347   3.720  17.041 -0.1158 -0.0089 -0.1002
 8822TIP3    H147957   2.354   3.667  16.961  0.6126 -0.8219  0.4914
 8822TIP3    H247958   2.402   3.797  17.023 -0.4338  0.0954 -0.6159
 8823TIP3   OH247959   2.113   5.788   0.985 -0.2930 -0.6014  0.1594
 8823TIP3    H147960   2.060   5.857   0.945  1.4979 -0.3361 -1.8382
 8823TIP3    H247961   2.052   5.715   0.996 -1.8134  0.7315  0.7880
 8824TIP3   OH247962   0.826   5.011   4.798 -0.2555  0.6641  0.5413
 8824TIP3    H147963   0.752   5.071   4.800 -0.9473 -0.1785  0.3615
 8824TIP3    H247964   0.802   4.940   4.858  0.7983  0.8431  1.1963
 8825TIP3   OH247965   6.362   3.376   2.395  0.1135 -0.6311  0.1779
 8825TIP3    H147966   6.295   3.327   2.442 -1.7426  2.9571  1.4388
 8825TIP3    H247967   6.433   3.387   2.459 -0.0224 -0.5552  0.3159
 8826TIP3   OH247968   2.521   5.317   3.100  0.6213  0.8413  0.0839
 8826TIP3    H147969   2.560   5.402   3.077 -1.0954  1.3559 -1.0277
 8826TIP3    H247970   2.428   5.337   3.115  0.4061 -0.6805  0.8390
 8827TIP3   OH247971   4.605   3.514  17.187 -1.0301 -0.0824 -0.1543
 8827TIP3    H147972   4.600   3.606  17.164 -0.8891 -0.1357 -0.4053
 8827TIP3    H247973   4.692   3.486  17.158 -0.1153  0.2898  2.0721
 8828TIP3   OH247974   6.491   4.595  12.934  0.4586 -0.0836 -0.7903
 8828TIP3    H147975   6.401   4.623  12.921 -0.1914 -1.4460  0.5955
 8828TIP3    H247976   6.506   4.529  12.866  0.7192  0.7956 -1.5934
 8829TIP3   OH247977   0.121   3.798  12.849 -0.5688  0.0125  0.0234
 8829TIP3    H147978   0.120   3.727  12.785  0.0405  0.5862 -0.6368
 8829TIP3    H247979   0.213   3.808  12.873 -0.8635 -0.6100  1.4703
 8830TIP3   OH247980   1.044   0.528   3.747  0.3554 -0.4927 -0.4133
 8830TIP3    H147981   1.044   0.607   3.692  0.8515 -1.3285 -1.6466
 8830TIP3    H247982   1.111   0.545   3.813  0.1095  0.3195 -0.3631
 8831TIP3   OH247983   3.638   5.221   3.188 -0.6389  0.3460  1.0355
 8831TIP3    H147984   3.623   5.131   3.161 -0.4787  0.8558 -0.8301
 8831TIP3    H247985   3.712   5.217   3.248 -1.4021 -0.9014  1.9160
 8832TIP3   OH247986   2.738   4.961   0.641  0.2705  0.0163  0.8688
 8832TIP3    H147987   2.702   4.908   0.570 -0.3311  2.6283 -0.8264
 8832TIP3    H247988   2.824   4.924   0.657  1.0998  0.4028 -2.3742
 8833TIP3   OH247989   5.695   6.611  15.289 -0.4952 -0.0799 -0.4138
 8833TIP3    H147990   5.770   6.670  15.275  0.8367 -2.2657 -3.0728
 8833TIP3    H247991   5.618   6.666  15.278  0.6650  2.3722  3.0091
 8834TIP3   OH247992   0.752   6.249  17.043  0.0189  0.1666  0.6252
 8834TIP3    H147993   0.771   6.342  17.054 -1.1312  0.6234 -1.1459
 8834TIP3    H247994   0.718   6.222  17.129  0.7507  1.2623  1.2769
 8835TIP3   OH247995   5.273   3.276   3.610 -0.1029  0.6016  0.3553
 8835TIP3    H147996   5.269   3.349   3.548 -0.8987 -0.0129 -0.3184
 8835TIP3    H247997   5.208   3.213   3.579  2.0839 -1.3886 -0.3443
 8836TIP3   OH247998   3.982   0.981   2.571 -0.0705 -0.1133  0.0280
 8836TIP3    H147999   3.954   1.072   2.585  0.0329 -0.1843  0.7020
 8836TIP3    H248000   3.962   0.964   2.479 -0.3584  0.5006 -0.0261
 8837TIP3   OH248001   3.350   5.632   5.811 -0.3469  0.1806  0.1318
 8837TIP3    H148002   3.291   5.706   5.827  0.5102  0.8047  0.4214
 8837TIP3    H248003   3.374   5.601   5.898  0.4287  0.4672  0.0179
 8838TIP3   OH248004   2.678   3.290   0.489 -0.1376 -0.3593 -0.5321
 8838TIP3    H148005   2.712   3.310   0.402  3.0905  1.1769  0.9997
 8838TIP3    H248006   2.668   3.194   0.489  0.8701 -0.4833 -2.2152
 8839TIP3   OH248007   2.652   1.449   1.929 -0.5268 -0.1447 -0.2523
 8839TIP3    H148008   2.645   1.369   1.879  0.5889 -0.1029 -0.4815
 8839TIP3    H248009   2.643   1.519   1.864  0.8315 -0.0909 -0.3840
 8840TIP3   OH248010   4.219   4.435  14.029 -0.2643  0.2407  0.6055
 8840TIP3    H148011   4.156   4.460  13.962  0.3748  0.6784  0.1668
 8840TIP3    H248012   4.301   4.424  13.982  0.4774  1.8219  1.4969
 8841TIP3   OH248013   4.529   3.915   1.430 -0.2532  0.1473 -0.4102
 8841TIP3    H148014   4.602   3.892   1.487 -0.1598  1.4690  0.0294
 8841TIP3    H248015   4.569   3.958   1.355 -0.6115  1.3652  0.0879
 8842TIP3   OH248016   0.636   5.558  12.727 -0.0888  0.4584 -0.2495
 8842TIP3    H148017   0.542   5.543  12.729 -0.0063  0.0079  2.1842
 8842TIP3    H248018   0.664   5.527  12.641 -2.4487  2.5931 -1.8368
 8843TIP3   OH248019   2.437   4.672   3.880 -0.1117  0.3720  0.5518
 8843TIP3    H148020   2.358   4.619   3.891  0.2835 -0.2654  0.4132
 8843TIP3    H248021   2.478   4.670   3.967  0.8793 -1.1659  0.0725
 8844TIP3   OH248022   4.522   3.922  13.516  0.1695  0.1410  0.1101
 8844TIP3    H148023   4.608   3.881  13.527  0.3880  1.0786  2.2306
 8844TIP3    H248024   4.502   3.911  13.423  2.2312 -0.7739 -0.2670
 8845TIP3   OH248025   0.271   0.926  15.987  0.6016 -0.2277 -0.3384
 8845TIP3    H148026   0.232   1.012  16.004  0.8973 -0.2644  0.5401
 8845TIP3    H248027   0.301   0.896  16.072  0.2084 -1.3552 -0.5932
 8846TIP3   OH248028   6.033   4.386  11.229 -0.4545 -0.4722 -0.8577
 8846TIP3    H148029   6.094   4.417  11.162 -0.1270 -0.2355 -0.4499
 8846TIP3    H248030   5.952   4.434  11.212 -1.1777 -2.2422 -2.6572
 8847TIP3   OH248031   0.391   4.358  16.381  0.2227 -0.4746  0.4798
 8847TIP3    H148032   0.411   4.318  16.296 -0.0078 -0.6569  0.5114
 8847TIP3    H248033   0.427   4.446  16.374 -0.9664 -0.0394 -0.2949
 8848TIP3   OH248034   1.660   2.665   5.460  0.1531 -0.5184  0.2355
 8848TIP3    H148035   1.602   2.739   5.443  2.4005  1.4329  0.8196
 8848TIP3    H248036   1.658   2.614   5.379 -0.4745  0.8401 -0.6344
 8849TIP3   OH248037   3.377   0.528   1.729  0.6562 -0.1908 -0.4234
 8849TIP3    H148038   3.330   0.448   1.755  1.3828 -1.1953 -2.1141
 8849TIP3    H248039   3.412   0.508   1.642  2.7017  1.1803  0.0546
 8850TIP3   OH248040   6.335   3.557  15.986  0.6192  0.6470 -0.0112
 8850TIP3    H148041   6.310   3.635  15.938  0.8524 -0.2904 -1.6764
 8850TIP3    H248042   6.381   3.590  16.063  2.1195  2.1264 -1.5150
 8851TIP3   OH248043   1.778   4.673  15.129  0.3510 -0.0931  0.4160
 8851TIP3    H148044   1.708   4.733  15.157  1.4063  0.8614  1.0417
 8851TIP3    H248045   1.750   4.643  15.043  0.6423  2.6928 -0.7144
 8852TIP3   OH248046   3.430   3.670   3.270  0.2897 -0.0097 -0.1202
 8852TIP3    H148047   3.441   3.588   3.317 -1.0142  0.8905  1.7720
 8852TIP3    H248048   3.336   3.682   3.263  0.4546  0.3812 -2.1242
 8853TIP3   OH248049   0.104   3.435  14.255 -0.2024 -0.3306  0.0364
 8853TIP3    H148050   0.123   3.525  14.281  0.6748 -0.3030 -0.7175
 8853TIP3    H248051   0.185   3.403  14.216 -0.3843 -1.5769  0.6442
 8854TIP3   OH248052   4.977   6.583  14.840 -0.5902  0.4788  0.0195
 8854TIP3    H148053   5.038   6.655  14.850 -1.3251  1.3375 -1.5475
 8854TIP3    H248054   4.990   6.552  14.750  0.3217 -1.9167  0.9193
 8855TIP3   OH248055   3.538   1.443  15.749 -0.4404 -0.1062  0.4326
 8855TIP3    H148056   3.566   1.449  15.658  0.3360  0.0619  0.6757
 8855TIP3    H248057   3.493   1.526  15.766  1.5298  0.9122  0.8908
 8856TIP3   OH248058   3.648   3.064   4.057 -0.4746 -0.6865  0.0800
 8856TIP3    H148059   3.647   3.112   4.139  1.4134  0.2646 -0.4323
 8856TIP3    H248060   3.737   3.028   4.051 -1.3025 -2.7640 -0.4049
 8857TIP3   OH248061   5.358   2.286   4.567  0.3822  0.2251  0.0341
 8857TIP3    H148062   5.340   2.354   4.632  0.5942 -1.0048  1.3799
 8857TIP3    H248063   5.331   2.326   4.484  0.0835  1.7942  0.8584
 8858TIP3   OH248064   0.867   2.226  14.155 -0.1658 -0.4990 -0.2251
 8858TIP3    H148065   0.912   2.170  14.093  0.5973 -0.7118  0.5182
 8858TIP3    H248066   0.775   2.222  14.129  0.2761  0.1693 -1.9092
 8859TIP3   OH248067   0.549   5.354  12.960 -0.3152 -0.0887 -0.0870
 8859TIP3    H148068   0.463   5.371  12.919 -0.1635 -0.5631 -0.6124
 8859TIP3    H248069   0.609   5.350  12.886  0.2610  0.8196  0.3258
 8860TIP3   OH248070   0.713   2.101  16.630 -0.8422  0.1112 -0.0396
 8860TIP3    H148071   0.743   2.138  16.714 -0.1702 -0.5633  0.0253
 8860TIP3    H248072   0.661   2.171  16.591  1.1308  1.4869 -0.3249
 8861TIP3   OH248073   6.591   1.015  17.245 -0.8883 -0.2993 -0.5484
 8861TIP3    H148074   6.660   1.075  17.217 -0.6018 -0.5109 -0.3038
 8861TIP3    H248075   6.582   0.953  17.173 -2.3647  1.0263 -1.5434
 8862TIP3   OH248076   0.220   3.164  15.586 -0.2792 -0.3724  0.0809
 8862TIP3    H148077   0.155   3.144  15.519  0.7386 -0.9078 -0.7756
 8862TIP3    H248078   0.256   3.249  15.560  1.1348 -1.2490 -0.8814
 8863TIP3   OH248079   5.881   5.236  14.281 -0.0720  0.0485 -1.0598
 8863TIP3    H148080   5.914   5.171  14.342  2.7136  2.6948  0.3922
 8863TIP3    H248081   5.905   5.202  14.194  0.0150 -1.5362 -0.4275
 8864TIP3   OH248082   3.503   4.291  16.833  0.6587  0.0226  0.2777
 8864TIP3    H148083   3.550   4.285  16.916  1.0342  0.5621  0.1053
 8864TIP3    H248084   3.517   4.381  16.804  1.4698 -0.4790 -0.9136
 8865TIP3   OH248085   3.594   3.539  14.227 -0.1427 -0.3626 -0.1667
 8865TIP3    H148086   3.578   3.507  14.315  2.0102 -1.2616 -0.0723
 8865TIP3    H248087   3.519   3.509  14.176  0.4764 -3.2262  0.5285
 8866TIP3   OH248088   1.431   2.342   5.198  0.0389  0.0795 -0.2605
 8866TIP3    H148089   1.415   2.276   5.131  0.6543 -0.3739  0.0331
 8866TIP3    H248090   1.478   2.295   5.267 -1.4385  0.3097  0.9302
 8867TIP3   OH248091   1.601   3.538   3.184  0.2610 -0.2256 -0.2374
 8867TIP3    H148092   1.563   3.503   3.104  1.6703 -0.5222 -0.7854
 8867TIP3    H248093   1.641   3.462   3.227 -1.6346 -0.3285  1.4308
 8868TIP3   OH248094   4.213   5.760   4.779 -0.2525  0.3747 -0.2268
 8868TIP3    H148095   4.135   5.807   4.806  0.1089  0.2840  1.0238
 8868TIP3    H248096   4.186   5.668   4.775 -0.3472  0.4070 -0.3228
 8869TIP3   OH248097   2.815   5.106   3.513 -0.0381 -0.2782 -0.3572
 8869TIP3    H148098   2.839   5.157   3.436  1.3461  0.7209  0.7012
 8869TIP3    H248099   2.867   5.026   3.505  0.8729  0.2585  0.0169
 8870TIP3   OH248100   6.064   0.217  14.944 -0.3606  0.3281 -0.2926
 8870TIP3    H148101   5.969   0.202  14.949 -0.1138 -1.8970 -1.9321
 8870TIP3    H248102   6.098   0.181  15.026 -0.6002 -1.6915 -1.0578
 8871TIP3   OH248103   4.455   1.787  14.696  0.1695  0.5193  0.4945
 8871TIP3    H148104   4.493   1.858  14.749  0.7796  0.7788 -0.2872
 8871TIP3    H248105   4.528   1.729  14.676  0.3522  1.4645 -1.7183
 8872TIP3   OH248106   3.706   4.141  14.420 -0.1435 -0.3968 -0.2432
 8872TIP3    H148107   3.662   4.179  14.344  1.2937  2.2288  0.1716
 8872TIP3    H248108   3.795   4.124  14.390  0.8122  1.8434  1.1157
 8873TIP3   OH248109   3.199   3.316  12.560 -0.1880 -0.7970 -0.9057
 8873TIP3    H148110   3.116   3.362  12.574  0.6486  0.5120 -0.1032
 8873TIP3    H248111   3.178   3.224  12.575 -1.0386 -0.2606  1.5277
 8874TIP3   OH248112   0.708   1.084  13.415  0.0522 -0.3838 -0.5625
 8874TIP3    H148113   0.704   1.048  13.504  0.5143  0.7890 -0.0525
 8874TIP3    H248114   0.792   1.053  13.381  0.0324 -0.5515 -0.4614
 8875TIP3   OH248115   3.082   2.133   4.641  0.1727 -0.3086 -0.6244
 8875TIP3    H148116   3.004   2.185   4.623  0.9537  1.1148  0.0221
 8875TIP3    H248117   3.069   2.101   4.731  1.5602  2.2315  0.5346
 8876TIP3   OH248118   3.144   3.494   1.959  0.0997  0.2776 -0.5551
 8876TIP3    H148119   3.081   3.462   2.024 -0.8863  2.1733 -0.5677
 8876TIP3    H248120   3.199   3.418   1.941 -1.5325 -1.1203  0.2158
 8877TIP3   OH248121   4.338   3.809   2.135 -0.2794  0.0743  0.3417
 8877TIP3    H148122   4.370   3.719   2.142 -1.8591 -0.7572 -2.3430
 8877TIP3    H248123   4.416   3.863   2.148  1.3631 -1.7838 -1.4505
 8878TIP3   OH248124   4.109   4.658   4.251 -0.0644  0.1636 -0.1822
 8878TIP3    H148125   4.037   4.716   4.226  1.2509  1.8632 -0.0996
 8878TIP3    H248126   4.158   4.646   4.170  0.6033  0.4948  0.1778
 8879TIP3   OH248127   5.458   6.620   5.394  0.1715  0.3566 -0.5010
 8879TIP3    H148128   5.460   6.677   5.317  0.5645  0.5373 -0.3583
 8879TIP3    H248129   5.507   6.669   5.460 -0.3571  0.2988 -0.0710
 8880TIP3   OH248130   2.059   5.929  15.295  0.1108  0.3953  0.0194
 8880TIP3    H148131   1.968   5.902  15.281  0.8242 -1.5566 -1.0924
 8880TIP3    H248132   2.093   5.868  15.359  1.2501 -0.2887 -1.1984
 8881TIP3   OH248133   4.672   3.384   2.708  0.3404 -0.1160  0.0457
 8881TIP3    H148134   4.640   3.474   2.714 -0.1454 -0.1328 -2.0324
 8881TIP3    H248135   4.766   3.391   2.728  0.5627  1.0440 -1.3170
 8882TIP3   OH248136   5.508   3.690   2.823  0.3561 -0.0184  0.4973
 8882TIP3    H148137   5.582   3.750   2.812 -0.5687  1.3245  1.4006
 8882TIP3    H248138   5.505   3.640   2.741  1.3718  0.9228 -0.1336
 8883TIP3   OH248139   5.316   1.622   3.950 -0.1425  0.0317 -0.4627
 8883TIP3    H148140   5.330   1.628   3.856 -0.0922 -0.1210 -0.4641
 8883TIP3    H248141   5.247   1.686   3.968  0.5431  0.7800 -0.4563
 8884TIP3   OH248142   0.333   0.875  11.059 -0.0096 -0.2607  0.7500
 8884TIP3    H148143   0.336   0.780  11.066 -0.6819 -0.3563 -0.1580
 8884TIP3    H248144   0.330   0.892  10.965 -1.3960  0.6135  0.9440
 8885TIP3   OH248145   6.249   1.269   4.155  0.0048 -0.2435 -0.6827
 8885TIP3    H148146   6.189   1.306   4.091  0.8833 -0.9302 -1.9159
 8885TIP3    H248147   6.335   1.273   4.113  0.4561 -1.5275  0.0819
 8886TIP3   OH248148   1.780   1.766  17.166  0.5629  0.4487  0.1397
 8886TIP3    H148149   1.703   1.785  17.219 -0.4724 -0.3363 -1.0862
 8886TIP3    H248150   1.794   1.672  17.175 -0.2954  0.1010 -1.8639
 8887TIP3   OH248151   4.426   0.931  15.944  0.1437 -0.4452 -0.8432
 8887TIP3    H148152   4.509   0.970  15.917  0.4685  1.2844  2.4135
 8887TIP3    H248153   4.380   1.001  15.991 -0.2151 -3.2110  3.2577
 8888TIP3   OH248154   5.716   1.830   4.642  0.8797  0.6088 -0.4963
 8888TIP3    H148155   5.645   1.891   4.661 -1.5657 -2.2324 -0.1986
 8888TIP3    H248156   5.771   1.831   4.720 -0.0201  1.2545  0.1361
 8889TIP3   OH248157   3.686   4.582  15.953 -0.2720 -0.2542 -0.5544
 8889TIP3    H148158   3.777   4.569  15.978  0.6275  3.1758 -1.7955
 8889TIP3    H248159   3.645   4.497  15.968  3.3037 -2.1267 -0.7766
 8890TIP3   OH248160   5.613   5.740   5.621 -0.4811 -0.8289 -0.2468
 8890TIP3    H148161   5.574   5.716   5.536  0.6420  0.4695 -1.1499
 8890TIP3    H248162   5.692   5.687   5.626  0.3821  0.3982 -0.8284
 8891TIP3   OH248163   5.230   1.486  10.187  0.1023 -0.3246  0.0601
 8891TIP3    H148164   5.220   1.547  10.260 -1.2419 -0.2359 -0.1872
 8891TIP3    H248165   5.148   1.437  10.186  0.5595 -1.0813 -0.7116
 8892TIP3   OH248166   3.351   3.950  13.174 -0.8081 -0.8413  0.1082
 8892TIP3    H148167   3.278   3.987  13.125 -1.1765  0.8332  1.8504
 8892TIP3    H248168   3.429   3.994  13.138 -0.9886 -0.2760  0.3972
 8893TIP3   OH248169   5.685   3.388   3.953  0.1561  0.2370 -0.6806
 8893TIP3    H148170   5.672   3.482   3.967 -1.4157 -0.0951  0.2483
 8893TIP3    H248171   5.732   3.358   4.031 -0.4310  0.0411 -0.3980
 8894TIP3   OH248172   4.709   0.552  12.552  0.0387  0.2946  0.9245
 8894TIP3    H148173   4.752   0.519  12.632 -1.8522  2.6312  2.9825
 8894TIP3    H248174   4.731   0.645  12.550 -2.7617  0.9756  0.6073
 8895TIP3   OH248175   2.429   3.341  10.939  0.2663  0.2726 -0.3515
 8895TIP3    H148176   2.409   3.284  11.013  0.3208  0.1590 -0.4230
 8895TIP3    H248177   2.351   3.395  10.928 -0.4342 -0.8931 -1.2967
 8896TIP3   OH248178   3.813   1.284   1.104 -0.2758  0.0401 -0.9878
 8896TIP3    H148179   3.737   1.240   1.142 -0.0371  0.1205 -0.4174
 8896TIP3    H248180   3.786   1.305   1.014 -0.5539 -0.8509 -1.1150
 8897TIP3   OH248181   0.608   4.792  11.695  0.7211 -0.1161  0.3039
 8897TIP3    H148182   0.683   4.805  11.753  0.3284 -0.3374  0.8694
 8897TIP3    H248183   0.643   4.806  11.607  0.7075  2.9919  0.7550
 8898TIP3   OH248184   4.735   0.620  10.912 -0.3509  0.1924 -0.5450
 8898TIP3    H148185   4.644   0.643  10.891  0.2853  1.1982 -2.3038
 8898TIP3    H248186   4.778   0.612  10.827  1.6136  1.4163  0.2890
 8899TIP3   OH248187   1.281   2.206  14.396  0.6573 -0.3376  0.0693
 8899TIP3    H148188   1.200   2.257  14.393  0.1779 -1.0994 -0.2115
 8899TIP3    H248189   1.351   2.271  14.390  0.0472  0.1425 -2.3507
 8900TIP3   OH248190   3.727   0.758   5.086  0.1742 -0.2262 -0.4551
 8900TIP3    H148191   3.704   0.711   5.007 -1.3189  2.5042 -1.7313
 8900TIP3    H248192   3.809   0.803   5.065  0.9846 -1.2924  0.3557
 8901TIP3   OH248193   1.008   2.698  12.687 -0.7057 -0.2356  0.4993
 8901TIP3    H148194   0.958   2.757  12.630 -0.2031  0.1458  0.4440
 8901TIP3    H248195   0.953   2.621  12.696 -0.8292 -0.2649 -0.4396
 8902TIP3   OH248196   3.775   6.619   3.454  0.2996  0.1140  0.0157
 8902TIP3    H148197   3.752   6.535   3.492  2.6113 -0.4230  0.3097
 8902TIP3    H248198   3.817   6.598   3.371  2.9270  0.8039  1.1087
 8903TIP3   OH248199   4.608   2.410  12.824 -0.1915 -0.5859  0.0480
 8903TIP3    H148200   4.648   2.329  12.793  0.3322  0.0018 -0.8502
 8903TIP3    H248201   4.664   2.438  12.897 -0.1665 -0.8481  0.1290
 8904TIP3   OH248202   4.127   5.587   5.138  0.2408 -0.0555 -0.1164
 8904TIP3    H148203   4.086   5.501   5.138  0.4448 -0.1532 -0.5475
 8904TIP3    H248204   4.066   5.642   5.188  0.8019 -0.7626  1.3963
 8905TIP3   OH248205   2.952   4.302   5.281  0.1439 -0.0823 -0.0921
 8905TIP3    H148206   2.868   4.349   5.280 -1.0173 -2.0256  1.8400
 8905TIP3    H248207   2.951   4.253   5.363  3.1742 -0.1955 -0.0783
 8906TIP3   OH248208   0.363   3.740  13.755 -0.0470  0.2950 -0.0760
 8906TIP3    H148209   0.326   3.673  13.813 -1.5131  1.1011 -0.0507
 8906TIP3    H248210   0.350   3.704  13.667 -2.0941  1.1188 -0.1429
 8907TIP3   OH248211   1.887   1.811  15.269  0.3055 -0.2314 -0.0322
 8907TIP3    H148212   1.943   1.879  15.234  1.6388 -1.7917 -0.9806
 8907TIP3    H248213   1.799   1.835  15.240  0.7593  1.0702 -0.3462
 8908TIP3   OH248214   2.066   4.222  11.279 -0.0474 -0.1923 -0.5162
 8908TIP3    H148215   2.008   4.150  11.254  0.0514 -0.0435 -1.2064
 8908TIP3    H248216   2.081   4.211  11.373  1.9288 -2.4920 -1.0596
 8909TIP3   OH248217   3.511   2.558  16.622 -0.3654 -0.5983 -0.2642
 8909TIP3    H148218   3.474   2.475  16.650  0.0559 -0.6061  0.2795
 8909TIP3    H248219   3.516   2.552  16.526  0.1093 -1.3793 -0.1899
 8910TIP3   OH248220   1.604   4.838  16.860  0.0309  0.3714 -0.6059
 8910TIP3    H148221   1.562   4.841  16.774  0.4360 -0.1788 -0.8264
 8910TIP3    H248222   1.584   4.751  16.894  0.8825  0.1499 -0.6611
 8911TIP3   OH248223   2.521   1.052  14.974  0.3063  0.0586 -0.0041
 8911TIP3    H148224   2.580   0.977  14.970  1.1867  0.8225 -1.7453
 8911TIP3    H248225   2.549   1.108  14.903 -1.0884  1.5108  0.5695
 8912TIP3   OH248226   4.348   4.589  11.006 -0.3736 -0.6044 -0.0783
 8912TIP3    H148227   4.274   4.632  11.048 -1.7073 -2.1736 -0.7685
 8912TIP3    H248228   4.344   4.618  10.915 -1.8771 -2.8768 -0.7898
 8913TIP3   OH248229   6.429   4.275   5.599 -0.2399 -0.2126 -0.2380
 8913TIP3    H148230   6.395   4.282   5.688  0.9623  1.6477  0.1084
 8913TIP3    H248231   6.362   4.227   5.551  0.1232 -3.3226  2.1854
 8914TIP3   OH248232   2.849   5.582  16.850  0.0837  0.0919 -0.0267
 8914TIP3    H148233   2.768   5.569  16.800  0.1136  0.6976 -0.2321
 8914TIP3    H248234   2.913   5.611  16.785  0.2679  0.3595  0.2753
 8915TIP3   OH248235   3.165   6.555   3.913  0.0199 -0.0971  0.2548
 8915TIP3    H148236   3.153   6.647   3.939  1.3933  0.1100  0.1827
 8915TIP3    H248237   3.105   6.543   3.839  1.8248  1.5160 -1.5035
 8916TIP3   OH248238   1.789   1.381   2.575  0.6166 -0.0556 -0.1586
 8916TIP3    H148239   1.732   1.305   2.562  1.7179 -0.8764 -0.2483
 8916TIP3    H248240   1.751   1.449   2.520 -0.7790 -0.3163  0.4476
 8917TIP3   OH248241   2.137   2.310  15.499 -0.2719  0.0575 -0.1451
 8917TIP3    H148242   2.131   2.241  15.433  0.6318 -1.5819  1.4479
 8917TIP3    H248243   2.218   2.357  15.479 -0.4247  0.0950 -0.6812
 8918TIP3   OH248244   5.268   2.384   4.319 -0.1748  0.1499 -0.2825
 8918TIP3    H148245   5.250   2.470   4.355 -0.2896 -0.2502  0.6324
 8918TIP3    H248246   5.240   2.389   4.227  1.7619  1.7150 -0.8094
 8919TIP3   OH248247   5.789   0.338  12.687 -0.8347  0.1775 -0.4848
 8919TIP3    H148248   5.879   0.306  12.685 -0.6107  0.7282  0.4403
 8919TIP3    H248249   5.760   0.334  12.596 -0.2593 -1.0785 -0.6208
 8920TIP3   OH248250   1.300   2.341  14.125  0.0792 -0.1125  0.6232
 8920TIP3    H148251   1.262   2.369  14.042 -0.9420 -1.0936  0.7499
 8920TIP3    H248252   1.224   2.322  14.181  0.6570  2.9711  2.6510
 8921TIP3   OH248253   3.230   6.118  14.718 -0.1256  0.0747 -0.3031
 8921TIP3    H148254   3.326   6.120  14.728 -0.2770  0.8936  1.0923
 8921TIP3    H248255   3.202   6.043  14.770 -0.3742  0.7454  0.5382
 8922TIP3   OH248256   1.235   1.356  11.833 -0.5255  0.1341 -0.5271
 8922TIP3    H148257   1.261   1.430  11.777  0.2821  0.5082  0.3345
 8922TIP3    H248258   1.215   1.395  11.917  0.9443 -0.7374  0.2519
 8923TIP3   OH248259   5.308   2.413   3.277 -0.3264  0.1261  0.2480
 8923TIP3    H148260   5.269   2.384   3.359  0.0003 -1.0219  0.0071
 8923TIP3    H248261   5.292   2.508   3.274 -2.8446 -0.2693  0.2972
 8924TIP3   OH248262   0.553   2.944   2.705  0.3219  0.4068 -0.0943
 8924TIP3    H148263   0.624   3.004   2.727 -0.1285  0.1463  2.2063
 8924TIP3    H248264   0.474   2.997   2.711  0.2691  0.6662 -2.5248
 8925TIP3   OH248265   5.799   3.423   0.575  0.1472  0.4850  0.4893
 8925TIP3    H148266   5.882   3.435   0.620 -0.9780  0.2823  2.6855
 8925TIP3    H248267   5.820   3.432   0.482  2.5603  0.6747  1.0323
 8926TIP3   OH248268   3.746   4.469   5.666 -0.1172  0.4132  0.6741
 8926TIP3    H148269   3.668   4.429   5.705 -0.9923  1.6470  0.2254
 8926TIP3    H248270   3.734   4.458   5.571  0.8089 -0.3948  0.6418
 8927TIP3   OH248271   5.909   0.043  12.559  0.2875  0.5847  0.5382
 8927TIP3    H148272   5.952   0.120  12.594  1.1961 -0.2442  1.2685
 8927TIP3    H248273   5.833   0.029  12.616  0.6644  0.3831  0.9950
 8928TIP3   OH248274   5.506   6.520  16.382  1.3580 -0.1171 -0.1584
 8928TIP3    H148275   5.568   6.588  16.354  2.7884 -1.4670 -0.3596
 8928TIP3    H248276   5.501   6.530  16.477  1.7301  0.1345 -0.1620
 8929TIP3   OH248277   1.261   1.861  16.055  0.0331 -0.1593  0.3444
 8929TIP3    H148278   1.309   1.883  16.135 -2.9192  2.2579  1.5297
 8929TIP3    H248279   1.212   1.940  16.033 -0.8551 -1.4685 -2.6853
 8930TIP3   OH248280   6.441   2.819  10.694 -0.0338 -0.0081  0.5146
 8930TIP3    H148281   6.522   2.790  10.651 -0.9387 -1.7868 -0.0249
 8930TIP3    H248282   6.386   2.850  10.623 -1.0275 -1.7327  0.5124
 8931TIP3   OH248283   5.104   0.830   2.518  0.1566  0.3455  0.3898
 8931TIP3    H148284   5.071   0.845   2.430 -1.0095  2.2936  1.1236
 8931TIP3    H248285   5.066   0.901   2.570 -0.1475 -1.4418  2.7021
 8932TIP3   OH248286   2.209   3.135  15.645 -0.8715  0.5555 -0.5293
 8932TIP3    H148287   2.192   3.146  15.552 -0.7829 -3.7369 -1.1954
 8932TIP3    H248288   2.195   3.041  15.660  1.4515  0.7145  3.2876
 8933TIP3   OH248289   5.865   4.531   0.101 -0.2178 -0.2083 -0.2559
 8933TIP3    H148290   5.810   4.494   0.169 -0.4436 -1.5604 -1.1428
 8933TIP3    H248291   5.804   4.558   0.032 -0.0074  1.3277  0.1544
 8934TIP3   OH248292   6.139   0.911  16.326  0.4447  0.0090  0.1947
 8934TIP3    H148293   6.105   0.826  16.299  3.0799 -0.3682 -2.1566
 8934TIP3    H248294   6.183   0.894  16.410 -1.9836 -0.1998  1.4548
 8935TIP3   OH248295   0.931   4.092  15.722  0.0407  0.0905 -0.4235
 8935TIP3    H148296   0.994   4.040  15.673  2.0233  3.0964 -1.2531
 8935TIP3    H248297   0.968   4.098  15.810  1.6704  2.9079 -1.2384
 8936TIP3   OH248298   3.664   5.543   5.008 -0.2393  0.5007 -0.6983
 8936TIP3    H148299   3.609   5.467   5.026 -0.7208  0.6470 -1.4777
 8936TIP3    H248300   3.739   5.509   4.959 -0.3584  0.4950 -0.8786
 8937TIP3   OH248301   3.664   1.815   5.435  0.0940  0.6376  0.7508
 8937TIP3    H148302   3.667   1.832   5.341 -0.6799  1.0254  0.7935
 8937TIP3    H248303   3.600   1.745   5.445 -2.7237  3.1745  1.3267
 8938TIP3   OH248304   1.237   3.012   0.677  0.4389  0.7473  0.2607
 8938TIP3    H148305   1.263   2.920   0.686 -1.1807  0.1524 -0.7987
 8938TIP3    H248306   1.143   3.011   0.697  0.4503  2.2009  0.3739
 8939TIP3   OH248307   2.183   1.595   2.951 -0.6200 -0.2220 -0.0441
 8939TIP3    H148308   2.107   1.609   3.007 -1.1464 -0.4197 -0.7017
 8939TIP3    H248309   2.251   1.653   2.987 -0.8888 -0.4983  0.9070
 8940TIP3   OH248310   2.476   3.109  15.640 -0.2809 -0.0271 -0.0014
 8940TIP3    H148311   2.385   3.133  15.660 -1.1463 -1.4353 -2.1099
 8940TIP3    H248312   2.523   3.193  15.641 -1.6068  0.7335  1.0249
 8941TIP3   OH248313   5.156   0.110   3.517 -0.0985 -0.0712  0.4374
 8941TIP3    H148314   5.080   0.166   3.534 -1.2179 -1.0475 -1.1665
 8941TIP3    H248315   5.190   0.088   3.604 -3.4566 -1.9917  1.3623
 8942TIP3   OH248316   1.164   3.348  10.439  0.0813  0.3054 -0.0672
 8942TIP3    H148317   1.243   3.358  10.387  0.3626 -0.1761  0.2700
 8942TIP3    H248318   1.124   3.267  10.406  1.1386 -0.9303  1.6214
 8943TIP3   OH248319   1.567   5.502   0.830  0.2631 -0.0208  0.1746
 8943TIP3    H148320   1.656   5.504   0.865 -0.3431 -1.5447  1.8831
 8943TIP3    H248321   1.560   5.583   0.779  2.4606  0.3550  0.4083
 8944TIP3   OH248322   4.725   6.027  12.719  0.4714 -0.0105 -0.0593
 8944TIP3    H148323   4.696   6.094  12.657  2.7485 -0.3222 -1.5224
 8944TIP3    H248324   4.695   5.944  12.681 -2.1626  0.1020  1.6446
 8945TIP3   OH248325   1.264   6.226  12.579  0.1757 -0.0871  0.1056
 8945TIP3    H148326   1.302   6.250  12.664 -0.8464 -0.1001  0.5836
 8945TIP3    H248327   1.323   6.160  12.544  1.1271  0.6181  0.3712
 8946TIP3   OH248328   6.672   6.369  12.300 -0.0938 -0.0908 -0.0995
 8946TIP3    H148329   6.645   6.317  12.225 -1.1722  0.0432  0.1970
 8946TIP3    H248330   6.755   6.329  12.328  0.0623 -0.4379 -1.0562
 8947TIP3   OH248331   3.173   2.027   2.926  0.3938 -0.5491  0.3960
 8947TIP3    H148332   3.240   2.034   2.994 -0.1133  1.4448  0.7230
 8947TIP3    H248333   3.214   2.068   2.849 -0.1897  0.0919  0.4186
 8948TIP3   OH248334   1.393   1.083  14.668 -0.7493 -0.6920 -0.5522
 8948TIP3    H148335   1.458   1.014  14.678 -0.6492 -0.6128 -0.6572
 8948TIP3    H248336   1.336   1.074  14.744  0.9119  0.8800  0.9232
 8949TIP3   OH248337   0.229   6.595  17.059 -0.2256 -0.2712  0.0868
 8949TIP3    H148338   0.229   6.590  16.964  0.0539  1.6805 -0.0432
 8949TIP3    H248339   0.257   6.685  17.078 -1.7073 -0.1888  1.9888
 8950TIP3   OH248340   4.822   1.781  11.229 -0.3518 -0.7782  0.1757
 8950TIP3    H148341   4.894   1.732  11.267 -1.0640 -1.0841  1.1624
 8950TIP3    H248342   4.744   1.730  11.251 -0.7578 -1.1323 -1.9970
 8951TIP3   OH248343   2.881   4.717  13.673  0.3691 -0.6682 -0.1157
 8951TIP3    H148344   2.965   4.742  13.636 -0.4464  1.2942 -0.6724
 8951TIP3    H248345   2.843   4.799  13.706 -0.7697 -1.7163  1.2548
 8952TIP3   OH248346   1.602   4.603   2.371 -0.2179 -0.5808 -0.2742
 8952TIP3    H148347   1.544   4.538   2.411  1.9626 -2.5774 -0.2149
 8952TIP3    H248348   1.675   4.610   2.432  0.8999 -0.1731 -1.6466
 8953TIP3   OH248349   4.093   5.616   1.301  0.6221 -0.3038  0.1604
 8953TIP3    H148350   4.169   5.673   1.291  0.3296 -0.1166 -1.1671
 8953TIP3    H248351   4.019   5.676   1.302  0.4996 -0.4751  1.6137
 8954TIP3   OH248352   6.085   0.994   4.040 -0.4291  0.0453  0.4250
 8954TIP3    H148353   6.139   1.014   4.117 -0.9384  0.3082  0.7192
 8954TIP3    H248354   6.008   0.950   4.076  0.3164 -1.7825 -0.1407
 8955TIP3   OH248355   6.185   3.983  11.674 -0.4705 -0.2587 -0.6480
 8955TIP3    H148356   6.111   3.924  11.686 -0.4226 -0.3012 -0.5634
 8955TIP3    H248357   6.146   4.065  11.645 -0.5075 -0.4516 -1.1569
 8956TIP3   OH248358   2.718   3.754  16.968 -0.7086  0.1187 -0.0522
 8956TIP3    H148359   2.776   3.778  17.040 -0.3510 -0.1501 -0.2507
 8956TIP3    H248360   2.676   3.835  16.943  0.2255  0.4740 -0.4847
 8957TIP3   OH248361   6.574   0.457  13.681 -0.0096 -0.3510 -0.2676
 8957TIP3    H148362   6.637   0.389  13.657  0.2012 -0.2720  0.0585
 8957TIP3    H248363   6.562   0.447  13.775  0.9380  0.8118 -0.0079
 8958TIP3   OH248364   4.990   3.163  10.793  0.1232 -0.8630  0.0888
 8958TIP3    H148365   4.958   3.253  10.803 -1.6100 -1.4125 -0.4572
 8958TIP3    H248366   5.037   3.146  10.875 -0.3807  0.1967  0.6108
 8959TIP3   OH248367   5.970   4.169   1.689 -0.0384 -0.0900 -0.6630
 8959TIP3    H148368   5.894   4.191   1.636  1.1997 -0.5706 -2.6549
 8959TIP3    H248369   5.978   4.074   1.684  0.9071 -0.0130 -0.7562
 8960TIP3   OH248370   1.070   5.497   4.200  0.2617 -0.0154 -0.1709
 8960TIP3    H148371   1.011   5.513   4.126 -0.4107  0.9442  0.5523
 8960TIP3    H248372   1.050   5.567   4.262  1.1051 -0.5719  0.7496
 8961TIP3   OH248373   6.266   4.024   4.801  0.2202  0.1983  0.3774
 8961TIP3    H148374   6.279   4.099   4.859 -1.0832  1.1468 -0.5293
 8961TIP3    H248375   6.174   4.000   4.813  0.3840 -0.6436 -0.0418
 8962TIP3   OH248376   6.266   3.970   5.764 -0.0486  0.0021 -0.3476
 8962TIP3    H148377   6.305   4.057   5.753  0.9993 -0.4016  0.1702
 8962TIP3    H248378   6.323   3.912   5.713  0.1276 -0.6122  0.5345
 8963TIP3   OH248379   0.982   6.124   3.564 -0.5286 -0.3529 -0.4971
 8963TIP3    H148380   0.962   6.218   3.564 -1.6677 -0.5737 -2.0954
 8963TIP3    H248381   1.030   6.110   3.482 -2.9918 -1.6653 -1.7736
 8964TIP3   OH248382   6.163   3.854   4.260 -0.4827 -0.4623  0.3383
 8964TIP3    H148383   6.140   3.767   4.293 -0.3034  0.0158  1.7634
 8964TIP3    H248384   6.083   3.887   4.220 -1.5906  0.1557  2.9795
 8965TIP3   OH248385   0.111   2.552   1.713 -0.3741  0.0883 -0.5816
 8965TIP3    H148386   0.029   2.520   1.674 -1.5550  2.6683 -0.3431
 8965TIP3    H248387   0.105   2.526   1.805 -0.9305  0.2735 -0.5633
 8966TIP3   OH248388   1.934   5.568   1.459 -0.3028  0.0626 -0.0699
 8966TIP3    H148389   2.003   5.630   1.484 -1.2098  0.7243  0.7971
 8966TIP3    H248390   1.887   5.550   1.540 -0.3680 -1.3877 -0.4083
 8967TIP3   OH248391   2.495   3.074  11.721  0.1384 -0.1678 -0.5770
 8967TIP3    H148392   2.423   3.132  11.744  0.4342 -0.0120 -0.0380
 8967TIP3    H248393   2.459   3.017  11.653 -0.6111 -0.3435 -0.0394
 8968TIP3   OH248394   1.670   6.220  11.970 -0.6156  0.0349  0.3112
 8968TIP3    H148395   1.684   6.304  12.014 -2.3822  0.6821 -0.3145
 8968TIP3    H248396   1.639   6.161  12.039 -0.6396  0.2673  0.5002
 8969TIP3   OH248397   4.907   1.455   4.929 -0.4210  0.4915  0.2113
 8969TIP3    H148398   4.839   1.434   4.994 -0.7791 -0.9430 -0.6077
 8969TIP3    H248399   4.988   1.453   4.979 -0.6162 -1.3328  0.4819
 8970TIP3   OH248400   5.742   3.134  16.148 -0.0723 -0.3751  0.2846
 8970TIP3    H148401   5.833   3.133  16.177 -0.3798 -1.2749  1.2361
 8970TIP3    H248402   5.743   3.088  16.064  0.4943  0.4462 -0.1621
 8971TIP3   OH248403   4.655   3.063  15.259 -0.1844 -0.6887  0.4468
 8971TIP3    H148404   4.627   2.986  15.210 -1.9253 -0.2656  0.7224
 8971TIP3    H248405   4.750   3.054  15.267 -0.1113 -1.6914 -1.3813
 8972TIP3   OH248406   3.345   4.719  16.285  0.8034 -0.3213  0.0116
 8972TIP3    H148407   3.333   4.779  16.359  0.2750 -0.0539 -0.2843
 8972TIP3    H248408   3.354   4.632  16.325  0.2980 -0.2058  0.3820
 8973TIP3   OH248409   4.596   0.501   4.611 -0.0088 -0.3704  0.3178
 8973TIP3    H148410   4.675   0.520   4.663 -0.6324  0.9508  0.7996
 8973TIP3    H248411   4.600   0.564   4.539 -0.1344 -0.9483 -0.1978
 8974TIP3   OH248412   5.467   1.292  11.101  0.6756  0.0972  0.0247
 8974TIP3    H148413   5.487   1.271  11.010  1.9399 -0.9140  0.5259
 8974TIP3    H248414   5.539   1.254  11.151  0.1878  0.9663  1.4204
 8975TIP3   OH248415   4.576   3.309   5.173  0.0059 -0.2863 -0.2325
 8975TIP3    H148416   4.595   3.397   5.203 -0.8485 -0.0646 -0.3151
 8975TIP3    H248417   4.661   3.273   5.148  0.2268  0.8658 -1.1615
 8976TIP3   OH248418   0.408   6.063   1.146  0.5064  0.3230  0.3543
 8976TIP3    H148419   0.487   6.055   1.200 -0.1131  1.1895  1.4207
 8976TIP3    H248420   0.423   6.141   1.093  0.3465  0.5079  0.5827
 8977TIP3   OH248421   4.414   4.791  14.667  0.1373 -0.3854  0.7048
 8977TIP3    H148422   4.467   4.870  14.680 -0.1303 -0.2446  0.9526
 8977TIP3    H248423   4.338   4.821  14.617  0.4861 -0.6645  0.0002
 8978TIP3   OH248424   6.597   1.462   1.786  0.0147 -0.1489 -0.4507
 8978TIP3    H148425   6.679   1.505   1.811 -0.4950  0.1859  0.6763
 8978TIP3    H248426   6.547   1.530   1.741 -0.3009  0.0968  0.2739
 8979TIP3   OH248427   2.282   6.059   6.210  0.1491 -0.0263  0.1048
 8979TIP3    H148428   2.266   5.979   6.160 -2.7310  1.1897 -1.0151
 8979TIP3    H248429   2.247   6.041   6.297  0.2099 -0.2625  0.0794
 8980TIP3   OH248430   1.609   1.726  11.650  0.2255 -0.3524  0.8383
 8980TIP3    H148431   1.666   1.657  11.618 -0.0185 -0.6836  1.1164
 8980TIP3    H248432   1.520   1.695  11.631  0.1239  0.0550  0.6174
 8981TIP3   OH248433   5.582   0.734   2.871  0.5763 -0.1432 -0.1467
 8981TIP3    H148434   5.519   0.677   2.915 -0.6616  3.5770  3.1863
 8981TIP3    H248435   5.534   0.771   2.797  0.1315 -0.3884  0.0175
 8982TIP3   OH248436   2.187   5.786  11.728  0.1114  0.7995 -0.1931
 8982TIP3    H148437   2.183   5.861  11.788  0.7008  0.2250  0.5689
 8982TIP3    H248438   2.186   5.826  11.641 -1.3037  1.6173  0.1821
 8983TIP3   OH248439   2.270   0.965   4.289 -0.2756 -0.1344  0.0341
 8983TIP3    H148440   2.266   0.966   4.385 -1.3171  0.7575 -0.0108
 8983TIP3    H248441   2.300   0.876   4.268 -1.7856 -0.9566  1.1440
 8984TIP3   OH248442   3.014   4.357   0.963 -0.1806  0.4669  0.2228
 8984TIP3    H148443   3.083   4.309   1.008 -1.5075 -2.2367 -0.5050
 8984TIP3    H248444   2.933   4.328   1.005 -1.0534  1.7175 -0.5517
 8985TIP3   OH248445   0.967   0.799   5.032  0.2451  0.2927 -0.4547
 8985TIP3    H148446   0.968   0.708   5.063  1.4041  0.3083 -0.4450
 8985TIP3    H248447   0.978   0.851   5.111 -1.6818  0.5034 -0.2929
 8986TIP3   OH248448   2.325   3.602  16.131 -0.4789  1.1055 -0.3934
 8986TIP3    H148449   2.406   3.647  16.154 -1.0270  1.5768  0.6480
 8986TIP3    H248450   2.304   3.635  16.043 -0.0322  1.6762 -0.2897
 8987TIP3   OH248451   3.048   5.367   3.244 -0.3484 -0.0501  0.6985
 8987TIP3    H148452   3.094   5.384   3.327  2.0561 -1.9932 -0.1630
 8987TIP3    H248453   3.053   5.450   3.197  1.0262  0.1860  1.2339
 8988TIP3   OH248454   3.285   4.141  16.766 -0.3437 -0.0834 -0.3260
 8988TIP3    H148455   3.361   4.194  16.743  0.0987 -0.7287 -0.3436
 8988TIP3    H248456   3.269   4.162  16.859  0.9763 -1.3253  0.1951
 8989TIP3   OH248457   0.305   2.926  11.595 -0.0470  0.5487 -0.0976
 8989TIP3    H148458   0.216   2.891  11.592 -0.3730  1.4237 -0.5831
 8989TIP3    H248459   0.329   2.938  11.503  0.4481  0.6325  0.0413
 8990TIP3   OH248460   4.343   3.836   3.460  0.0634 -0.5074 -0.6515
 8990TIP3    H148461   4.319   3.761   3.406  1.1194 -0.4033 -1.2888
 8990TIP3    H248462   4.308   3.912   3.414  0.9340 -0.4217 -1.1933
 8991TIP3   OH248463   2.062   1.037   0.779 -0.0539  0.3354 -0.0423
 8991TIP3    H148464   2.024   1.020   0.866 -0.3602  0.5513 -0.1355
 8991TIP3    H248465   2.045   0.956   0.730  2.0749 -0.6437  0.7885
 8992TIP3   OH248466   5.440   4.790  11.667 -0.6514  0.4158 -0.5052
 8992TIP3    H148467   5.444   4.833  11.581  1.1100 -1.2591 -1.3083
 8992TIP3    H248468   5.532   4.782  11.693 -0.9144 -3.0650 -0.5085
 8993TIP3   OH248469   4.317   4.830   1.510  0.8387  0.1074 -0.2039
 8993TIP3    H148470   4.387   4.890   1.536  1.0431 -0.3521  0.3130
 8993TIP3    H248471   4.251   4.886   1.468  1.4309  0.5665 -0.5279
 8994TIP3   OH248472   3.976   6.209  13.466  0.4431 -0.0289 -0.1094
 8994TIP3    H148473   4.059   6.189  13.510  0.5359 -1.0511 -0.7403
 8994TIP3    H248474   3.966   6.140  13.400 -0.2624  0.8411 -0.9227
 8995TIP3   OH248475   0.607   4.637  14.839  0.3968  0.1995  0.2605
 8995TIP3    H148476   0.528   4.646  14.892  0.0914 -2.1012  0.2524
 8995TIP3    H248477   0.678   4.629  14.903  0.1588 -1.4474  0.3514
 8996TIP3   OH248478   4.888   4.787   1.313 -0.2043  0.0914 -0.6444
 8996TIP3    H148479   4.935   4.848   1.370 -0.7357 -0.3188  0.2442
 8996TIP3    H248480   4.885   4.705   1.363 -0.9536 -0.1818 -1.1360
 8997TIP3   OH248481   4.619   1.845   3.831 -0.1708 -0.1015  0.0249
 8997TIP3    H148482   4.652   1.931   3.857  1.0790 -0.8167  0.7838
 8997TIP3    H248483   4.552   1.824   3.896 -1.4113  0.8702 -0.9106
 8998TIP3   OH248484   3.863   4.174  11.764  0.1645 -0.4198  0.7192
 8998TIP3    H148485   3.937   4.115  11.774  2.2275  2.0153  0.3920
 8998TIP3    H248486   3.856   4.189  11.669 -0.7032 -0.5759  0.7521
 8999TIP3   OH248487   1.836   0.138  14.070 -0.7664 -0.2356  0.2953
 8999TIP3    H148488   1.918   0.178  14.041 -1.4841  1.6167  0.7487
 8999TIP3    H248489   1.827   0.060  14.015 -0.3054  1.2751 -1.9854
 9000TIP3   OH248490   2.170   0.311  16.009 -0.4090 -0.1407  0.5363
 9000TIP3    H148491   2.174   0.219  15.983  0.7455 -0.0674  0.4281
 9000TIP3    H248492   2.135   0.357  15.933 -2.2186 -0.6566  1.0397
 9001TIP3   OH248493   2.753   4.719   1.774 -0.1044 -0.0688 -0.1217
 9001TIP3    H148494   2.747   4.814   1.767 -1.5654 -0.1899 -0.8446
 9001TIP3    H248495   2.723   4.699   1.862 -1.7142  0.0205 -0.6259
 9002TIP3   OH248496   0.319   5.443  15.447 -0.0718  0.0693 -0.2809
 9002TIP3    H148497   0.292   5.430  15.357 -0.1136  1.3457 -0.4694
 9002TIP3    H248498   0.274   5.524  15.474  0.0557 -0.2221  0.8236
 9003TIP3   OH248499   5.978   6.630   0.066 -0.2267 -0.2440  0.0813
 9003TIP3    H148500   6.057   6.634   0.011 -0.3595 -0.4335 -0.1265
 9003TIP3    H248501   5.994   6.693   0.136 -0.6935  1.1374 -1.0268
 9004TIP3   OH248502   4.900   1.648   0.380  0.2079  0.0780  0.6417
 9004TIP3    H148503   4.857   1.716   0.431 -0.5148 -0.9342  1.4071
 9004TIP3    H248504   4.942   1.695   0.308 -0.7063  1.2721  0.8683
 9005TIP3   OH248505   5.795   5.057   5.141 -0.1102 -0.0499 -0.5488
 9005TIP3    H148506   5.805   5.016   5.055 -1.6975  1.3266 -1.4228
 9005TIP3    H248507   5.829   5.145   5.130 -0.0071  0.0216  0.3257
 9006TIP3   OH248508   3.961   4.458  15.323 -0.2071  0.1354 -0.3864
 9006TIP3    H148509   3.941   4.396  15.253 -0.7919  1.3565 -1.3343
 9006TIP3    H248510   4.026   4.517  15.285 -0.2460  0.5739  0.2258
 9007TIP3   OH248511   1.401   2.357   1.780 -0.0228 -0.2654  0.0190
 9007TIP3    H148512   1.399   2.437   1.832  0.7706 -0.5762  0.5283
 9007TIP3    H248513   1.309   2.337   1.762 -0.2469  0.4063  0.4302
 9008TIP3   OH248514   2.157   2.489   2.290 -0.2261 -0.0192  0.0932
 9008TIP3    H148515   2.192   2.403   2.315  2.2470  0.7682 -0.4935
 9008TIP3    H248516   2.077   2.469   2.242  1.6233 -2.1858 -2.2503
 9009TIP3   OH248517   6.339   0.725   0.849 -0.2736  0.3649 -0.0149
 9009TIP3    H148518   6.404   0.660   0.878 -0.4969 -0.1411 -0.6421
 9009TIP3    H248519   6.270   0.720   0.916 -0.2771 -0.0306 -0.0443
 9010TIP3   OH248520   1.369   0.561  11.640 -0.1888 -0.2868  0.2190
 9010TIP3    H148521   1.323   0.477  11.647  0.2044 -0.4102  1.5181
 9010TIP3    H248522   1.426   0.563  11.717 -0.0344  1.0741  0.0791
 9011TIP3   OH248523   0.503   6.409   6.521 -0.4579 -0.4186  0.4218
 9011TIP3    H148524   0.555   6.347   6.471 -0.0600  0.0332  0.2672
 9011TIP3    H248525   0.413   6.397   6.490 -0.4336 -1.1346  0.6224
 9012TIP3   OH248526   6.399   2.458  12.291  0.0282 -0.2145 -0.3723
 9012TIP3    H148527   6.346   2.425  12.363 -0.6312 -0.3866 -0.9295
 9012TIP3    H248528   6.483   2.413  12.301 -0.9288 -2.2672 -1.2628
 9013TIP3   OH248529   0.351   2.898   4.752 -0.8739 -1.1759 -0.5462
 9013TIP3    H148530   0.306   2.817   4.729 -1.2822 -0.9931 -0.3868
 9013TIP3    H248531   0.356   2.896   4.848 -0.8908 -1.0076 -0.5416
 9014TIP3   OH248532   5.873   4.008   2.010 -0.0634  0.3898  0.3970
 9014TIP3    H148533   5.930   4.077   1.975  0.5508 -0.6673 -0.7078
 9014TIP3    H248534   5.867   3.944   1.940  0.7904 -1.5345  2.0413
 9015TIP3   OH248535   6.579   3.185  16.546 -0.5403 -0.3275  0.5799
 9015TIP3    H148536   6.666   3.145  16.550 -0.6537 -0.6998 -0.4825
 9015TIP3    H248537   6.585   3.262  16.603  0.8238  0.2619 -0.3234
 9016TIP3   OH248538   3.611   2.042  13.888 -0.3926  0.2287 -0.3592
 9016TIP3    H148539   3.547   2.043  13.817 -0.3920  0.8007 -0.3546
 9016TIP3    H248540   3.685   2.092  13.855  0.8249 -1.9694 -1.0675
 9017TIP3   OH248541   0.717   0.591   3.716 -0.1053  0.1424  0.2099
 9017TIP3    H148542   0.764   0.514   3.749  2.3695  1.6407  0.2854
 9017TIP3    H248543   0.760   0.665   3.758 -0.5507  1.7478 -2.1240
 9018TIP3   OH248544   3.774   0.902  14.594 -0.3672  0.7383  0.0643
 9018TIP3    H148545   3.779   0.897  14.690  0.1772  3.0462  0.1930
 9018TIP3    H248546   3.814   0.986  14.573  1.8947 -0.8745 -2.3969
 9019TIP3   OH248547   0.691   1.412  11.823 -0.0355  0.5687  0.1683
 9019TIP3    H148548   0.624   1.369  11.769  0.6078 -0.2858  0.0336
 9019TIP3    H248549   0.692   1.503  11.793 -1.2556  0.6275  0.2928
 9020TIP3   OH248550   3.781   4.791   1.966  0.1346  0.0786  0.3127
 9020TIP3    H148551   3.807   4.705   1.998  0.9308  0.5386  0.9422
 9020TIP3    H248552   3.719   4.824   2.030 -0.6044 -0.2593 -0.2261
 9021TIP3   OH248553   2.266   5.547   6.284 -0.2355  0.3203 -0.3016
 9021TIP3    H148554   2.353   5.586   6.285 -0.0258 -0.1327 -0.9249
 9021TIP3    H248555   2.213   5.607   6.230 -0.2277  0.4126 -0.2070
 9022TIP3   OH248556   3.764   1.435  15.245  0.2268  0.5489  0.0292
 9022TIP3    H148557   3.736   1.469  15.160 -0.2081  0.2782  0.0608
 9022TIP3    H248558   3.794   1.346  15.227  2.3785  1.2962 -0.2300
 9023TIP3   OH248559   6.059   6.550  17.042  0.1195  0.6027  0.0435
 9023TIP3    H148560   6.003   6.534  16.966  0.6435 -0.3319 -0.1544
 9023TIP3    H248561   6.147   6.529  17.012  0.4479  1.0871  0.6532
 9024TIP3   OH248562   4.574   2.905   5.009 -0.7022  0.3925  0.4249
 9024TIP3    H148563   4.639   2.917   5.078 -1.7752  0.8177  1.3650
 9024TIP3    H248564   4.490   2.927   5.050 -1.5976 -1.3233 -0.4254
 9025TIP3   OH248565   6.725   2.861   0.625  0.3387  0.0351  0.1569
 9025TIP3    H148566   6.637   2.887   0.652  0.3037  1.5687 -1.3477
 9025TIP3    H248567   6.741   2.909   0.544  2.2105 -0.9405 -0.0923
 9026TIP3   OH248568   5.299   4.558  16.978 -0.1185 -0.6022 -0.2694
 9026TIP3    H148569   5.207   4.583  16.983  0.4446  1.5266  0.1583
 9026TIP3    H248570   5.319   4.519  17.063 -0.4126 -0.2937 -0.0611
 9027TIP3   OH248571   1.021   1.231  12.690  0.2100 -0.1300  0.1422
 9027TIP3    H148572   1.056   1.200  12.607  0.5080  0.4235  0.0540
 9027TIP3    H248573   1.044   1.163  12.753  0.9236 -0.0592 -0.0329
 9028TIP3   OH248574   5.711   4.252  11.854  0.2701 -0.1111 -0.0342
 9028TIP3    H148575   5.694   4.216  11.940  2.4163  0.4228  0.6392
 9028TIP3    H248576   5.652   4.204  11.796 -1.2339 -0.4325  1.7153
 9029TIP3   OH248577   2.631   3.223  10.769 -0.2618  0.3241 -0.0329
 9029TIP3    H148578   2.607   3.132  10.750 -1.2722  0.2860  1.3782
 9029TIP3    H248579   2.550   3.264  10.798 -0.0128  1.9394 -1.5795
 9030TIP3   OH248580   2.255   5.649   3.335 -0.9049  0.3346  0.1945
 9030TIP3    H148581   2.340   5.627   3.373 -0.5169  0.2153 -0.7326
 9030TIP3    H248582   2.260   5.744   3.320 -1.5689  0.6161  1.6960
 9031TIP3   OH248583   2.537   0.413  14.093 -0.2811 -0.3054  0.3248
 9031TIP3    H148584   2.616   0.468  14.093 -0.7120  0.3734 -1.7970
 9031TIP3    H248585   2.467   0.471  14.123 -0.2085 -0.5580  0.9957
 9032TIP3   OH248586   0.108   5.697   3.526 -0.0992  0.3795 -0.5971
 9032TIP3    H148587   0.131   5.781   3.487 -1.0845  0.1910 -1.6167
 9032TIP3    H248588   0.094   5.715   3.619 -1.0675  1.4939 -0.9502
 9033TIP3   OH248589   1.202   0.029  11.269  0.4961 -0.3794  0.0181
 9033TIP3    H148590   1.218  -0.035  11.339  0.2875 -0.8497 -0.3642
 9033TIP3    H248591   1.289   0.047  11.233  0.6859  0.3453  0.8132
 9034TIP3   OH248592   2.167   2.735  11.190  0.2615  0.1224 -0.8124
 9034TIP3    H148593   2.172   2.819  11.235 -1.5022  0.5671 -1.3908
 9034TIP3    H248594   2.251   2.693  11.207  1.4216  2.2884 -1.0543
 9035TIP3   OH248595   6.572   4.642   2.751  0.3598 -0.9282 -0.0676
 9035TIP3    H148596   6.627   4.717   2.727 -0.4599 -0.2973  0.0113
 9035TIP3    H248597   6.586   4.632   2.846 -1.2237  0.5080  0.3212
 9036TIP3   OH248598   2.567   2.678   1.705 -0.2632  0.3117  0.7659
 9036TIP3    H148599   2.593   2.672   1.613 -1.4525  1.2431  0.3586
 9036TIP3    H248600   2.612   2.605   1.747 -0.2254 -0.5150 -0.6758
 9037TIP3   OH248601   1.550   5.271   3.145  0.2387  0.1445  0.6164
 9037TIP3    H148602   1.632   5.238   3.109 -0.6459 -0.2630 -1.0775
 9037TIP3    H248603   1.482   5.225   3.096 -1.0068  0.7926  1.7048
 9038TIP3   OH248604   4.284   6.306   5.190  0.1714 -0.4106  0.0044
 9038TIP3    H148605   4.278   6.315   5.285  1.6017 -0.9832  0.1632
 9038TIP3    H248606   4.357   6.245   5.176  2.1120  2.1484 -1.5579
 9039TIP3   OH248607   0.422   2.017   5.765 -0.1372 -0.1776 -0.2607
 9039TIP3    H148608   0.489   2.036   5.831 -0.8228  0.5624  0.2267
 9039TIP3    H248609   0.461   2.045   5.682  1.0579 -1.8762 -0.3005
 9040TIP3   OH248610   2.748   5.740  11.321 -1.0653 -0.2204  0.0258
 9040TIP3    H148611   2.823   5.699  11.364 -0.8694 -0.3305 -0.4136
 9040TIP3    H248612   2.785   5.782  11.244 -1.7044 -1.7478 -1.1460
 9041TIP3   OH248613   4.706   2.551   3.576  0.1663 -0.2726 -0.2679
 9041TIP3    H148614   4.668   2.482   3.522 -0.4843 -0.1109 -0.0220
 9041TIP3    H248615   4.760   2.602   3.516 -0.9948  0.2322 -0.8812
 9042TIP3   OH248616   1.728   0.357  13.696  0.3789  0.1132 -0.2670
 9042TIP3    H148617   1.659   0.418  13.724  0.1615  0.1584 -0.8867
 9042TIP3    H248618   1.695   0.271  13.720  0.7876  0.2501  0.8202
 9043TIP3   OH248619   3.854   4.259  15.155  0.0549 -0.0945  0.1862
 9043TIP3    H148620   3.892   4.280  15.070  1.3418 -1.2118  0.4691
 9043TIP3    H248621   3.900   4.180  15.183 -0.9576 -0.2282  1.5366
 9044TIP3   OH248622   1.546   0.319  12.893  0.4862 -0.3238 -0.8934
 9044TIP3    H148623   1.490   0.376  12.840 -1.5477 -1.1418  0.2996
 9044TIP3    H248624   1.569   0.372  12.969  1.2402 -0.0420 -1.3072
 9045TIP3   OH248625   2.928   4.523   2.309 -0.1328 -0.5691 -0.1631
 9045TIP3    H148626   2.873   4.551   2.383 -0.6094 -1.3102 -0.2420
 9045TIP3    H248627   3.013   4.505   2.349  0.1448  0.8394 -0.0798
 9046TIP3   OH248628   3.313   1.683  15.020 -0.2934 -0.0734  0.7177
 9046TIP3    H148629   3.305   1.597  14.978  2.3850  0.6462 -1.4210
 9046TIP3    H248630   3.264   1.742  14.962 -0.5026  0.1698  1.1403
 9047TIP3   OH248631   0.809   2.240  16.227 -0.0549 -0.4648  0.1298
 9047TIP3    H148632   0.727   2.289  16.228  0.0637 -0.2574 -0.2259
 9047TIP3    H248633   0.812   2.200  16.140  0.7270  0.3862 -0.2447
 9048TIP3   OH248634   0.451   1.515  17.287  0.3917 -0.0920 -0.3861
 9048TIP3    H148635   0.413   1.431  17.311 -2.5227  1.7326  1.6607
 9048TIP3    H248636   0.386   1.557  17.230  0.1711  2.1879  1.4367
 9049TIP3   OH248637   4.295   5.282  13.979 -0.3467  0.3131 -0.2074
 9049TIP3    H148638   4.278   5.188  13.969 -0.0125  0.5258 -3.1434
 9049TIP3    H248639   4.376   5.287  14.029  0.0927 -0.9961 -0.7728
 9050TIP3   OH248640   1.979   6.200  11.821  0.5147  0.5048  0.1253
 9050TIP3    H148641   1.894   6.182  11.779  0.7882  0.6402 -0.4973
 9050TIP3    H248642   1.973   6.292  11.846  0.3696  0.4381  0.3389
 9051TIP3   OH248643   6.106   0.800   1.833  0.6725 -0.3525 -0.1725
 9051TIP3    H148644   6.169   0.799   1.905 -0.8072  2.1406  1.2200
 9051TIP3    H248645   6.138   0.867   1.773  1.1069 -1.4158 -1.1624
 9052TIP3   OH248646   6.182   2.736   6.147 -0.8353  0.2773 -0.0382
 9052TIP3    H148647   6.245   2.741   6.218 -1.5982  0.0703  0.6650
 9052TIP3    H248648   6.233   2.751   6.068  0.1645 -0.3703  0.4844
 9053TIP3   OH248649   3.208   0.244  12.478  0.3137  0.0515 -0.5950
 9053TIP3    H148650   3.151   0.188  12.426  0.1050 -0.1794 -0.1222
 9053TIP3    H248651   3.274   0.185  12.515  1.9820  0.5892 -2.6252
 9054TIP3   OH248652   0.911   0.433  16.302 -0.1188  0.1434  0.2000
 9054TIP3    H148653   0.871   0.361  16.350  1.2243 -1.5359 -1.1067
 9054TIP3    H248654   0.838   0.476  16.258 -0.9091 -0.6531  0.7011
 9055TIP3   OH248655   2.657   3.295  12.407 -0.0198 -0.2393 -0.3834
 9055TIP3    H148656   2.724   3.356  12.377 -1.2117  0.1373 -2.3129
 9055TIP3    H248657   2.632   3.328  12.494  2.1102 -0.2618  0.2742
 9056TIP3   OH248658   1.069   2.738   3.930  0.5680  0.6569  0.1129
 9056TIP3    H148659   0.989   2.790   3.922 -0.2505 -0.5964 -0.0074
 9056TIP3    H248660   1.093   2.746   4.022 -0.2860  0.1898  0.3857
 9057TIP3   OH248661   6.135   6.406   1.908  0.2165 -0.6146 -0.8482
 9057TIP3    H148662   6.040   6.412   1.914  0.2683  1.8430 -2.1283
 9057TIP3    H248663   6.151   6.339   1.840 -0.5390 -2.5493  0.8363
 9058TIP3   OH248664   6.233   1.179   4.779 -0.8215  0.0716 -0.5864
 9058TIP3    H148665   6.291   1.105   4.797 -1.2330 -0.3788 -1.0688
 9058TIP3    H248666   6.146   1.139   4.769 -0.5618  0.1617 -4.1172
 9059TIP3   OH248667   3.432   6.762   1.490 -0.0589  0.0113 -0.3857
 9059TIP3    H148668   3.449   6.738   1.399  0.9333  0.8675 -0.4372
 9059TIP3    H248669   3.445   6.857   1.492 -3.3776  0.5174 -0.0752
 9060TIP3   OH248670   6.180   2.919   3.037  0.2858  0.2188 -0.2110
 9060TIP3    H148671   6.116   2.980   3.075  0.5936  0.5766 -0.2648
 9060TIP3    H248672   6.260   2.970   3.030  0.7529 -0.4083  0.4354
 9061TIP3   OH248673   5.821   6.369  15.074  0.1445 -0.3564  0.2573
 9061TIP3    H148674   5.915   6.379  15.089  0.7234 -1.6667 -2.1944
 9061TIP3    H248675   5.803   6.424  14.998 -1.6029  1.8800  2.2238
 9062TIP3   OH248676   6.100   5.823   2.729  0.3373 -0.0067 -0.3446
 9062TIP3    H148677   6.117   5.786   2.642 -0.3571  0.8877 -0.8745
 9062TIP3    H248678   6.179   5.872   2.751  1.1687 -1.6042  0.2581
 9063TIP3   OH248679   4.346   1.819   1.695 -0.1960  0.3526 -0.2927
 9063TIP3    H148680   4.277   1.846   1.634 -0.1176 -2.0668 -1.4884
 9063TIP3    H248681   4.419   1.877   1.676 -1.1191  1.4262 -0.5972
 9064TIP3   OH248682   2.200   6.466  11.753  0.0083  0.2855  0.6414
 9064TIP3    H148683   2.256   6.389  11.761  1.9056  1.3510 -1.7595
 9064TIP3    H248684   2.157   6.473  11.838  0.3821 -2.9475  1.1682
 9065TIP3   OH248685   5.257   3.094  12.325  0.2921 -0.0732  0.4394
 9065TIP3    H148686   5.219   3.008  12.307  0.9007 -0.4272  0.8089
 9065TIP3    H248687   5.236   3.110  12.417  0.9810 -0.2532  0.6350
 9066TIP3   OH248688   6.071   6.446   2.874  0.8150  0.1221 -0.3940
 9066TIP3    H148689   6.152   6.396   2.887 -0.4006 -2.0356 -1.0318
 9066TIP3    H248690   6.070   6.466   2.780  0.3050 -0.3508 -0.4855
 9067TIP3   OH248691   5.120   0.224   6.224 -0.5413  0.3412 -0.6554
 9067TIP3    H148692   5.174   0.172   6.284  0.8179  0.8092 -1.4483
 9067TIP3    H248693   5.105   0.306   6.270  0.0010  0.4746 -0.7144
 9068TIP3   OH248694   1.483   4.192   2.347 -0.0856 -0.0050 -0.0417
 9068TIP3    H148695   1.575   4.210   2.329 -0.5721 -0.0885 -2.9107
 9068TIP3    H248696   1.438   4.275   2.330 -0.5029  0.1200  1.6556
 9069TIP3   OH248697   5.454   1.426  16.003 -0.6118 -0.1150  0.5694
 9069TIP3    H148698   5.515   1.379  16.060 -1.3819 -0.6316  0.9710
 9069TIP3    H248699   5.511   1.471  15.940  0.1745 -0.8792  0.7125
 9070TIP3   OH248700   1.573   0.750  17.015 -0.1527 -0.7673 -0.2067
 9070TIP3    H148701   1.630   0.794  16.951 -0.6896 -1.8872 -1.4844
 9070TIP3    H248702   1.631   0.727  17.088  0.4272  0.7278 -0.1803
 9071TIP3   OH248703   4.429   2.282   2.904  0.5249 -0.5635  0.0268
 9071TIP3    H148704   4.419   2.289   2.809  0.2082  0.2948  0.1156
 9071TIP3    H248705   4.523   2.272   2.917  0.6438 -0.0346 -0.3524
 9072TIP3   OH248706   4.985   2.118  13.747  0.3257  0.4642 -0.7889
 9072TIP3    H148707   5.070   2.098  13.708  1.3688  0.5669  1.3664
 9072TIP3    H248708   4.981   2.063  13.825 -0.5683  2.2040  0.4276
 9073TIP3   OH248709   2.058   2.553  13.299 -0.0076  0.4095 -0.1238
 9073TIP3    H148710   2.053   2.641  13.261 -0.7870  0.3015 -0.2862
 9073TIP3    H248711   1.992   2.553  13.367 -0.2675 -0.1711 -0.3717
 9074TIP3   OH248712   3.688   0.675   0.024  0.5472  0.2066 -0.4583
 9074TIP3    H148713   3.686   0.732  -0.054  0.8389  0.7970 -0.0423
 9074TIP3    H248714   3.683   0.586  -0.011  2.4096  0.3955 -1.2684
 9075TIP3   OH248715   3.729   0.037  14.214  0.0151 -0.4774 -0.2333
 9075TIP3    H148716   3.738  -0.047  14.259  0.7928  0.5211  1.5171
 9075TIP3    H248717   3.727   0.102  14.284  1.5299  1.1461 -1.6430
 9076TIP3   OH248718   1.041   1.450  14.509  0.0818  0.1789  0.2017
 9076TIP3    H148719   1.127   1.471  14.472 -0.8688  2.1097 -0.9706
 9076TIP3    H248720   1.038   1.498  14.592  0.2227 -0.0978  0.3697
 9077TIP3   OH248721   0.518   4.346  15.042  0.0192 -0.1329 -0.0621
 9077TIP3    H148722   0.523   4.297  15.125  1.3898 -0.5717 -0.3898
 9077TIP3    H248723   0.470   4.425  15.065  0.7980 -0.0225  1.2835
 9078TIP3   OH248724   3.055   3.232   6.028 -0.0244 -0.1061  0.4284
 9078TIP3    H148725   3.017   3.213   5.943  0.7067  1.5777 -0.2900
 9078TIP3    H248726   2.981   3.232   6.089 -0.3344 -3.0037  0.1063
 9079TIP3   OH248727   5.112   4.006   4.967 -0.2010  0.2195 -0.4025
 9079TIP3    H148728   5.063   4.058   4.903  0.9370  0.4702 -1.0890
 9079TIP3    H248729   5.201   4.040   4.961  0.5522 -1.8022 -0.8502
 9080TIP3   OH248730   3.504   6.688   0.406 -0.8106  0.5820 -0.6683
 9080TIP3    H148731   3.461   6.770   0.382 -1.2971  0.4312 -0.3121
 9080TIP3    H248732   3.591   6.714   0.434 -1.1219  1.0257 -0.1115
 9081TIP3   OH248733   3.631   5.749   4.822  0.5652  0.5169  0.1024
 9081TIP3    H148734   3.645   5.691   4.897  1.4518 -1.7206 -1.7171
 9081TIP3    H248735   3.556   5.710   4.776 -0.3085  2.1695  0.0940
 9082TIP3   OH248736   4.932   5.934   2.729 -0.0469 -0.3675 -0.0626
 9082TIP3    H148737   5.003   5.901   2.674 -0.8687 -3.8672  0.8951
 9082TIP3    H248738   4.923   5.869   2.798 -1.6606  1.9822  2.0201
 9083TIP3   OH248739   5.128   6.256   4.115  0.6025 -0.1674  0.3076
 9083TIP3    H148740   5.092   6.303   4.040 -1.5064 -1.7064  0.3192
 9083TIP3    H248741   5.104   6.310   4.190  0.1368 -0.1029  0.1174
 9084TIP3   OH248742   3.495   1.776   6.017  0.4874  0.1322 -0.0654
 9084TIP3    H148743   3.561   1.811   6.078  0.8078 -2.6247  1.2632
 9084TIP3    H248744   3.445   1.714   6.070 -2.1034  0.9039 -1.5257
 9085TIP3   OH248745   4.532   0.709   1.214 -0.3414  0.6117  0.2475
 9085TIP3    H148746   4.627   0.718   1.219 -0.1627  0.2892 -1.8750
 9085TIP3    H248747   4.498   0.787   1.259  0.8966  0.3360  1.7065
 9086TIP3   OH248748   1.283   0.961   2.543 -0.7774 -0.2136 -0.4233
 9086TIP3    H148749   1.330   0.880   2.520 -1.6088 -1.1329  1.0325
 9086TIP3    H248750   1.191   0.938   2.536 -1.0182  0.6915 -0.2420
 9087TIP3   OH248751   0.317   2.074  11.950  0.1381  0.1638 -0.3891
 9087TIP3    H148752   0.222   2.084  11.937  0.0192 -1.5375 -1.0060
 9087TIP3    H248753   0.354   2.094  11.864  0.4040  1.4540  0.0164
 9088TIP3   OH248754   3.490   6.791  11.562  0.2328 -0.5222 -0.1004
 9088TIP3    H148755   3.433   6.828  11.630 -0.0522  1.0715 -1.1803
 9088TIP3    H248756   3.449   6.818  11.480  1.4306 -1.1222 -0.9007
 9089TIP3   OH248757   6.552   5.455  15.355  0.2439 -0.5701  0.2146
 9089TIP3    H148758   6.539   5.500  15.439 -0.9446 -1.0562  0.2992
 9089TIP3    H248759   6.465   5.449  15.317  0.5644 -1.6941 -0.3688
 9090TIP3   OH248760   2.844   0.764   3.370  0.2307 -0.5247 -0.2668
 9090TIP3    H148761   2.868   0.747   3.279 -0.3538  0.4189 -0.6023
 9090TIP3    H248762   2.816   0.855   3.371 -0.1777 -0.6531  0.7783
 9091TIP3   OH248763   3.883   4.337  15.774 -1.1124  0.4147  0.2580
 9091TIP3    H148764   3.867   4.244  15.761 -0.0489  0.1320  0.8348
 9091TIP3    H248765   3.800   4.380  15.756 -0.9240 -0.3758 -2.7572
 9092TIP3   OH248766   2.720   5.284   2.637  0.1999  0.1666 -0.6594
 9092TIP3    H148767   2.730   5.315   2.727  2.2871  0.5498 -1.0051
 9092TIP3    H248768   2.660   5.210   2.644 -1.0404  1.2784  0.8031
 9093TIP3   OH248769   4.125   6.816  11.966  0.2036 -0.0567  0.3569
 9093TIP3    H148770   4.052   6.776  12.012  0.5089  0.4021  1.2561
 9093TIP3    H248771   4.166   6.873  12.031 -0.4783  2.0631 -1.0194
 9094TIP3   OH248772   1.486   5.213   5.093  0.0672 -0.5869  0.6063
 9094TIP3    H148773   1.536   5.237   5.171  0.0150  0.4375  0.3252
 9094TIP3    H248774   1.501   5.284   5.032 -0.1502 -1.2342 -0.2117
 9095TIP3   OH248775   2.927   4.504   6.139  0.3307 -0.1755 -0.2102
 9095TIP3    H148776   2.960   4.550   6.062 -0.6409  1.8319  0.5377
 9095TIP3    H248777   2.832   4.499   6.126  0.4140 -2.1254 -0.3336
 9096TIP3   OH248778   6.052   6.201   4.951  0.2337 -0.2992 -0.0760
 9096TIP3    H148779   6.072   6.195   4.858  2.2364 -0.1537  0.3298
 9096TIP3    H248780   6.017   6.290   4.962  1.1803  0.1301 -0.4783
 9097TIP3   OH248781   5.601   5.800  12.156 -0.2022  0.4395 -0.1345
 9097TIP3    H148782   5.651   5.749  12.220  2.5299  0.6333 -2.0347
 9097TIP3    H248783   5.619   5.891  12.180  0.1279  0.5113 -0.6593
 9098TIP3   OH248784   2.207   2.783   3.290 -0.0987 -0.3466 -0.1657
 9098TIP3    H148785   2.194   2.824   3.376  1.7523  1.7706 -0.8372
 9098TIP3    H248786   2.249   2.699   3.310 -0.8483 -0.4469  1.0533
 9099TIP3   OH248787   1.375   3.316   3.309 -0.7848  0.1584  0.2211
 9099TIP3    H148788   1.293   3.357   3.335 -0.6562  0.4899  0.1143
 9099TIP3    H248789   1.430   3.321   3.388 -0.5181  0.8428 -0.0092
 9100TIP3   OH248790   3.322   5.879   5.640 -0.0728 -0.1485  0.1476
 9100TIP3    H148791   3.262   5.860   5.712  1.5060  0.0864  1.5584
 9100TIP3    H248792   3.299   5.815   5.572  1.9233 -4.0487  2.9408
 9101TIP3   OH248793   1.610   4.026  13.528 -0.0531  0.1983 -0.3642
 9101TIP3    H148794   1.663   4.074  13.591  1.6429 -2.5637  0.3999
 9101TIP3    H248795   1.526   4.014  13.573  1.0222 -1.4392  1.2857
 9102TIP3   OH248796   2.677   2.384  13.442 -0.2628 -0.4744 -0.0701
 9102TIP3    H148797   2.608   2.371  13.507  0.4882 -0.0315  0.8260
 9102TIP3    H248798   2.756   2.348  13.484  0.7936  2.3039  0.3875
 9103TIP3   OH248799   1.755   0.374  17.190 -0.0910  0.6061 -0.2934
 9103TIP3    H148800   1.686   0.314  17.219 -0.3450  0.6522 -0.8034
 9103TIP3    H248801   1.834   0.320  17.185 -0.0359  0.6009  0.5036
 9104TIP3   OH248802   5.418   1.381  13.111  0.1684 -0.5071  0.1962
 9104TIP3    H148803   5.381   1.326  13.181  0.7030 -0.3229  0.6228
 9104TIP3    H248804   5.381   1.468  13.127  1.1597 -0.2203  0.8965
 9105TIP3   OH248805   6.075   3.547   0.129 -0.0746  0.1155 -0.0954
 9105TIP3    H148806   6.056   3.626   0.078 -0.3197  0.7987  1.0540
 9105TIP3    H248807   6.152   3.570   0.182 -0.3362 -0.3162  0.4736
 9106TIP3   OH248808   0.337   0.919   2.831 -0.7318  0.0569 -0.1245
 9106TIP3    H148809   0.384   0.970   2.766 -1.3834 -1.3245 -1.7183
 9106TIP3    H248810   0.381   0.834   2.832 -0.8707 -0.0149  1.0794
 9107TIP3   OH248811   2.305   0.769  14.271 -0.5643 -0.9053  0.3414
 9107TIP3    H148812   2.278   0.810  14.353  0.7935  0.8864 -0.0860
 9107TIP3    H248813   2.252   0.811  14.204 -1.8302 -2.5226  0.2835
 9108TIP3   OH248814   3.661   2.573  13.641 -0.5205  0.1853 -0.4663
 9108TIP3    H148815   3.748   2.605  13.617 -0.1488 -0.0838  0.4951
 9108TIP3    H248816   3.605   2.598  13.567  0.2787  0.7631 -0.8867
 9109TIP3   OH248817   2.972   5.026   4.465  0.0990  0.0799 -0.3353
 9109TIP3    H148818   2.923   5.100   4.502 -1.5799 -1.1938  0.0895
 9109TIP3    H248819   2.924   5.003   4.385  0.8006 -0.3195 -0.6417
 9110TIP3   OH248820   6.249   0.995  16.832 -0.0522  0.3916  0.2082
 9110TIP3    H148821   6.269   1.079  16.790 -2.7338  1.1394  0.3049
 9110TIP3    H248822   6.256   0.930  16.762 -1.7460  1.2449 -0.7791
 9111TIP3   OH248823   4.254   0.122   5.602  0.0125  0.5129  0.3687
 9111TIP3    H148824   4.230   0.061   5.533 -1.1218  0.8622  0.4534
 9111TIP3    H248825   4.285   0.067   5.674  2.9982  0.1968 -1.0653
 9112TIP3   OH248826   1.333   5.329  11.873  0.6727  0.2841 -0.4230
 9112TIP3    H148827   1.341   5.394  11.944  1.8102  0.8178 -1.0117
 9112TIP3    H248828   1.241   5.306  11.872 -0.2201  3.5991 -1.6625
 9113TIP3   OH248829   1.587   4.445  16.471  0.2906  0.1885  0.2146
 9113TIP3    H148830   1.498   4.445  16.507  0.3571 -0.6739  0.4007
 9113TIP3    H248831   1.575   4.426  16.378  0.2608  0.2338  0.2093
 9114TIP3   OH248832   1.356   6.367   1.441 -0.4123  0.0317 -0.2020
 9114TIP3    H148833   1.436   6.383   1.492 -0.2343 -0.0387 -0.4587
 9114TIP3    H248834   1.329   6.453   1.410 -0.1862 -0.0029 -0.4906
 9115TIP3   OH248835   4.594   3.207  10.537  0.5561 -0.2030 -0.0868
 9115TIP3    H148836   4.618   3.125  10.494  1.5641  0.4621 -0.8174
 9115TIP3    H248837   4.621   3.275  10.475  0.5319  0.7101  0.8984
 9116TIP3   OH248838   6.692   0.947  13.611 -0.3367  0.6072 -0.3099
 9116TIP3    H148839   6.678   0.860  13.573 -2.3006  0.5830  0.3849
 9116TIP3    H248840   6.662   1.008  13.543  1.5936  0.7877 -1.0308
 9117TIP3   OH248841   6.149   4.128   2.829  0.0713 -0.0150 -1.0715
 9117TIP3    H148842   6.129   4.119   2.922 -1.5534  0.9862 -1.3176
 9117TIP3    H248843   6.244   4.115   2.824  0.0055 -1.1810  0.5724
 9118TIP3   OH248844   0.049   1.820   1.313  0.3885 -0.3613 -0.3343
 9118TIP3    H148845   0.086   1.875   1.383  0.3142  0.4220 -0.8962
 9118TIP3    H248846  -0.023   1.873   1.277  0.0087 -1.0338 -0.5716
 9119TIP3   OH248847   4.760   1.950  12.532 -0.4567 -0.9016 -0.5853
 9119TIP3    H148848   4.798   1.968  12.618 -2.1601 -2.9582  0.6487
 9119TIP3    H248849   4.738   2.037  12.497 -1.8183 -0.1401  2.0326
 9120TIP3   OH248850   0.328   6.162   3.457 -0.9419  0.2509 -0.1727
 9120TIP3    H148851   0.328   6.161   3.552  0.8644  0.5495 -0.1427
 9120TIP3    H248852   0.396   6.225   3.433  1.6494 -2.8748 -1.6051
 9121TIP3   OH248853   6.629   5.242  10.821 -0.2533  0.7361  0.6512
 9121TIP3    H148854   6.682   5.199  10.753  0.0602  0.3926  1.1131
 9121TIP3    H248855   6.541   5.244  10.784 -0.2363 -0.1265  0.5446
 9122TIP3   OH248856   2.199   0.953  14.113  0.1932 -0.1352 -0.6552
 9122TIP3    H148857   2.151   1.016  14.059 -0.4105 -0.2158 -0.2270
 9122TIP3    H248858   2.286   0.990  14.122  0.4309 -0.3309 -2.0362
 9123TIP3   OH248859   1.469   1.437  17.196 -0.3800 -0.3403  0.0159
 9123TIP3    H148860   1.505   1.377  17.262  0.2508 -1.5940 -1.4277
 9123TIP3    H248861   1.375   1.433  17.210 -0.2342 -0.2261  1.1422
 9124TIP3   OH248862   2.435   2.006  13.335  0.4216 -0.0071 -0.4341
 9124TIP3    H148863   2.345   1.989  13.364  0.9235 -0.2923  0.9965
 9124TIP3    H248864   2.454   2.094  13.365 -0.4767  1.3390 -3.5849
 9125TIP3   OH248865   5.053   4.256   1.911 -0.5654 -0.1337  0.0397
 9125TIP3    H148866   4.962   4.248   1.940 -1.4553  1.6391 -2.0848
 9125TIP3    H248867   5.053   4.220   1.822  0.6344  0.6674 -0.2958
 9126TIP3   OH248868   0.121   4.952  14.195  0.3229 -0.5370  0.6059
 9126TIP3    H148869   0.094   4.980  14.282 -1.7874  1.9669 -0.7558
 9126TIP3    H248870   0.106   5.029  14.140  1.7612 -2.0107 -1.9396
 9127TIP3   OH248871   4.515   6.239   6.734  0.0866 -0.2397 -0.4568
 9127TIP3    H148872   4.578   6.226   6.663  0.3269 -0.2625 -0.2411
 9127TIP3    H248873   4.434   6.265   6.690 -0.3555 -2.2201 -0.9012
 9128TIP3   OH248874   4.016   3.861   4.292 -0.3340  0.1708 -0.3580
 9128TIP3    H148875   3.922   3.849   4.307 -0.3880  0.3782 -0.5200
 9128TIP3    H248876   4.036   3.946   4.331 -0.4646  0.6950 -1.3919
 9129TIP3   OH248877   3.355   5.451  15.629  0.7335 -0.7027  0.5904
 9129TIP3    H148878   3.424   5.509  15.599  1.6166 -0.3386  3.1609
 9129TIP3    H248879   3.325   5.490  15.712 -1.7581 -1.4768  0.1020
 9130TIP3   OH248880   4.449   3.955   3.922 -0.5694 -0.1644 -0.0062
 9130TIP3    H148881   4.439   3.958   4.017 -0.5604  2.4514 -0.0447
 9130TIP3    H248882   4.390   3.886   3.893 -2.8281  1.0382  1.6467
 9131TIP3   OH248883   5.011   5.312  11.689 -0.2946 -0.7600 -0.6693
 9131TIP3    H148884   5.018   5.317  11.593  0.1622 -3.2268 -0.8077
 9131TIP3    H248885   4.922   5.281  11.705 -0.5927  0.2952 -0.2562
 9132TIP3   OH248886   3.097   1.970  15.448 -0.1246 -0.0565 -0.1143
 9132TIP3    H148887   3.081   1.956  15.354 -0.1891  0.4645 -0.1805
 9132TIP3    H248888   3.171   2.029  15.451  0.0803 -0.3303  0.1698
 9133TIP3   OH248889   2.547   4.855  15.182 -0.0893  0.5878  0.3303
 9133TIP3    H148890   2.569   4.782  15.240  1.2877  1.6741  1.2281
 9133TIP3    H248891   2.459   4.836  15.150 -0.5117 -0.4744  2.0983
 9134TIP3   OH248892   4.525   4.907  16.086  0.1091 -0.6638  0.0499
 9134TIP3    H148893   4.568   4.829  16.050 -2.4199 -1.1270 -2.1501
 9134TIP3    H248894   4.476   4.874  16.161 -1.2122 -1.3075 -1.0663
 9135TIP3   OH248895   0.858   2.620  12.173 -0.2239  0.5754  0.3075
 9135TIP3    H148896   0.940   2.572  12.183 -0.7669 -0.2417  0.9167
 9135TIP3    H248897   0.863   2.657  12.085 -0.6988 -2.3689 -1.0319
 9136TIP3   OH248898   0.211   2.820  15.280 -0.6584 -0.5184 -0.1632
 9136TIP3    H148899   0.262   2.758  15.230 -1.8210 -1.7970  0.2133
 9136TIP3    H248900   0.269   2.896  15.291  0.1804 -0.8820 -1.9916
 9137TIP3   OH248901   3.927   0.305  11.696 -0.1893 -0.0405 -0.1269
 9137TIP3    H148902   4.019   0.330  11.709 -0.2860  0.5135 -0.4666
 9137TIP3    H248903   3.878   0.365  11.753 -0.3892  0.1499 -0.4991
 9138TIP3   OH248904   5.533   4.658   0.811  0.3534 -0.3353  0.1591
 9138TIP3    H148905   5.590   4.694   0.744  0.3949 -1.2031 -0.2829
 9138TIP3    H248906   5.445   4.664   0.774  0.3351 -0.4691  0.1819
 9139TIP3   OH248907   5.747   0.670   6.575  0.3665 -0.2025 -0.4843
 9139TIP3    H148908   5.812   0.714   6.629 -2.4917  0.0185  2.9378
 9139TIP3    H248909   5.794   0.649   6.494  4.1848  1.3906  1.1786
 9140TIP3   OH248910   4.387   5.777  15.267  0.4806  0.2995 -0.1549
 9140TIP3    H148911   4.431   5.802  15.348  2.4136 -3.5184  0.0528
 9140TIP3    H248912   4.297   5.759  15.294  0.3109  2.0300  0.5335
 9141TIP3   OH248913   2.863   3.025   0.160  0.6377 -0.1536  0.1491
 9141TIP3    H148914   2.953   2.996   0.177  0.9309  0.4949 -0.2542
 9141TIP3    H248915   2.839   2.983   0.078 -0.3370 -2.3158  1.5163
 9142TIP3   OH248916   0.797   3.728  14.152  0.7933  0.3263  0.0657
 9142TIP3    H148917   0.785   3.636  14.129  2.2245  0.2127 -0.2399
 9142TIP3    H248918   0.872   3.757  14.101  0.4542  1.6290  0.2758
 9143TIP3   OH248919   4.474   1.868  12.181  0.1951  0.3199 -0.4188
 9143TIP3    H148920   4.519   1.787  12.206  0.4830  1.3082  2.4084
 9143TIP3    H248921   4.544   1.933  12.176 -0.1554  0.5989 -1.8099
 9144TIP3   OH248922   3.833   5.200   0.008  0.1195  0.2224 -0.0294
 9144TIP3    H148923   3.760   5.260  -0.009  0.2975  0.2257 -0.8087
 9144TIP3    H248924   3.847   5.205   0.103 -0.1924  1.0453 -0.0216
 9145TIP3   OH248925   4.294   1.437  13.934 -0.5791  0.3904  0.5541
 9145TIP3    H148926   4.352   1.482  13.995 -2.0901  1.1557  1.4641
 9145TIP3    H248927   4.335   1.449  13.848  0.5738  0.9556  1.1777
 9146TIP3   OH248928   0.456   3.163   3.378 -0.2062 -0.9971 -0.2153
 9146TIP3    H148929   0.419   3.091   3.327  1.1333 -1.0611 -1.1219
 9146TIP3    H248930   0.451   3.133   3.469  4.2255 -4.1869 -0.8012
 9147TIP3   OH248931   3.234   3.766   2.645 -0.3727  0.1620  0.2033
 9147TIP3    H148932   3.229   3.745   2.552  0.7849  1.0120 -0.0701
 9147TIP3    H248933   3.319   3.732   2.672 -0.3480  0.6568  0.7485
 9148TIP3   OH248934   4.365   2.058   3.051 -0.4307  0.2993 -0.0020
 9148TIP3    H148935   4.366   1.980   2.995  2.4480  0.4908 -0.3204
 9148TIP3    H248936   4.383   2.130   2.990 -3.1974  1.2530  0.2712
 9149TIP3   OH248937   4.348   2.968  16.766 -0.6674  0.8142 -0.8111
 9149TIP3    H148938   4.342   3.063  16.767 -0.7089  0.8073  0.7794
 9149TIP3    H248939   4.260   2.938  16.745 -0.3007  1.1416 -2.8925
 9150TIP3   OH248940   5.516   5.318   3.296  0.1767  0.2219  0.2739
 9150TIP3    H148941   5.469   5.276   3.368  0.4680  0.0766  0.3782
 9150TIP3    H248942   5.455   5.383   3.262 -1.4338 -2.1990 -1.7370
 9151TIP3   OH248943   6.311   1.324  13.473 -0.5387 -0.3826 -0.0417
 9151TIP3    H148944   6.252   1.249  13.471 -2.7341  1.3191 -1.5118
 9151TIP3    H248945   6.317   1.353  13.382  1.4902  0.3323  0.2838
 9152TIP3   OH248946   5.750   6.799   3.307  0.5065 -0.0091  0.1777
 9152TIP3    H148947   5.818   6.809   3.373 -1.2033  2.1391  1.6774
 9152TIP3    H248948   5.695   6.877   3.316 -1.1281 -0.7983 -2.2111
 9153TIP3   OH248949   5.896   4.188  10.856 -0.1143  0.0190  0.1348
 9153TIP3    H148950   5.888   4.097  10.886  0.2282 -0.3578 -0.8980
 9153TIP3    H248951   5.831   4.196  10.786 -1.8752  1.2916  1.8728
 9154TIP3   OH248952   2.256   1.699   1.210 -0.2649 -0.4264 -0.4494
 9154TIP3    H148953   2.266   1.782   1.257 -1.0720  0.3165 -1.5727
 9154TIP3    H248954   2.293   1.634   1.270  0.8167  0.7923  0.2452
 9155TIP3   OH248955   3.165   1.036   6.490 -0.3844  0.3721  0.4189
 9155TIP3    H148956   3.143   0.964   6.431 -0.1555  0.9726 -0.4008
 9155TIP3    H248957   3.213   0.994   6.561 -0.0651 -0.2618 -0.1614
 9156TIP3   OH248958   3.800   4.344  16.753  0.1612  0.2907 -0.2823
 9156TIP3    H148959   3.791   4.256  16.789  0.3386  0.4757  0.2288
 9156TIP3    H248960   3.745   4.345  16.675 -2.4743  0.7347  1.5328
 9157TIP3   OH248961   5.805   0.267  14.141  0.2394 -0.6414  1.0508
 9157TIP3    H148962   5.719   0.300  14.166 -0.5260 -0.4369 -1.7206
 9157TIP3    H248963   5.789   0.178  14.108  0.8562 -0.1149 -0.7530
 9158TIP3   OH248964   4.034   2.104  12.760  0.3223 -1.0455 -0.0419
 9158TIP3    H148965   4.050   2.154  12.680  0.1028 -0.5107  0.2375
 9158TIP3    H248966   4.104   2.133  12.820 -0.7712  0.1639  0.6713
 9159TIP3   OH248967   2.646   0.785   0.706  0.9033 -0.1338  0.2243
 9159TIP3    H148968   2.693   0.854   0.753 -0.6984  0.4402  1.0055
 9159TIP3    H248969   2.590   0.745   0.772  1.2344 -1.6810 -0.4052
 9160TIP3   OH248970   0.746   1.510   1.540  0.0089  0.1183  0.1052
 9160TIP3    H148971   0.716   1.538   1.453 -0.4892 -0.3860  0.1091
 9160TIP3    H248972   0.695   1.431   1.558 -0.1699  0.4531  1.0382
 9161TIP3   OH248973   6.507   5.882   3.640 -0.1701  0.1489  0.1069
 9161TIP3    H148974   6.557   5.881   3.722  2.1225 -1.4293 -1.2461
 9161TIP3    H248975   6.468   5.795   3.634 -0.4871  0.3211 -0.3484
 9162TIP3   OH248976   6.818   1.469  17.024 -0.7906 -0.3387 -0.1982
 9162TIP3    H148977   6.730   1.468  16.986  0.7870 -0.4972 -4.0469
 9162TIP3    H248978   6.872   1.420  16.962  2.2142  0.5431  1.5991
 9163TIP3   OH248979   3.553   6.410   5.875 -0.5820 -0.0429  0.1283
 9163TIP3    H148980   3.476   6.354   5.883 -0.3008 -0.4507  0.0058
 9163TIP3    H248981   3.589   6.415   5.963 -0.4780 -0.2384  0.0958
 9164TIP3   OH248982   1.909   4.536  10.670 -0.3275  0.1414 -0.1950
 9164TIP3    H148983   1.981   4.546  10.608 -0.9213  1.1939 -0.7333
 9164TIP3    H248984   1.950   4.511  10.752  0.5247 -0.6507 -0.8550
 9165TIP3   OH248985   1.732   3.695  13.224 -0.4495 -0.0427 -0.5942
 9165TIP3    H148986   1.779   3.617  13.254  0.5714  1.1666  0.9790
 9165TIP3    H248987   1.801   3.756  13.199 -1.2495  0.2682 -2.1128
 9166TIP3   OH248988   4.618   4.812  12.917  0.1277 -0.2322  0.4035
 9166TIP3    H148989   4.555   4.770  12.859  0.4866 -0.1625 -0.0414
 9166TIP3    H248990   4.614   4.905  12.894  0.1264 -0.1770  0.6296
 9167TIP3   OH248991   3.385   4.557  11.819  0.4323 -0.0689  0.0383
 9167TIP3    H148992   3.408   4.468  11.848 -2.0777 -0.6989  0.2427
 9167TIP3    H248993   3.309   4.544  11.762 -1.4111  2.1246  1.9167
 9168TIP3   OH248994   6.704   6.536  14.710  0.2804 -0.1206  0.0691
 9168TIP3    H148995   6.680   6.572  14.624  2.2790  0.4345 -0.2908
 9168TIP3    H248996   6.652   6.586  14.773 -0.5771  0.0418 -0.7599
 9169TIP3   OH248997   0.557   3.242   6.446  0.5503  0.2745 -0.0972
 9169TIP3    H148998   0.592   3.321   6.488  0.5258  0.1143  0.2254
 9169TIP3    H248999   0.464   3.260   6.434  0.6362  0.4833 -0.4561
 9170TIP3   OH249000   2.209   4.028   4.283  0.0620 -0.3238 -0.0983
 9170TIP3    H149001   2.274   4.029   4.353  0.6706 -0.0728 -0.6758
 9170TIP3    H249002   2.223   3.944   4.239  0.0433 -0.2303 -0.2796
 9171TIP3   OH249003   6.192   0.705   4.227  0.2155  0.1553 -0.1343
 9171TIP3    H149004   6.099   0.727   4.235  0.3105 -0.2585  2.6582
 9171TIP3    H249005   6.234   0.787   4.199 -0.7910  0.7966  0.2057
 9172TIP3   OH249006   4.818   3.394   0.239 -0.6390  0.0534  0.1541
 9172TIP3    H149007   4.853   3.316   0.281  0.9124  0.0499 -1.0940
 9172TIP3    H249008   4.751   3.426   0.299  1.2946 -0.1098  2.4712
 9173TIP3   OH249009   5.476   2.630   3.437 -0.2528 -0.0685 -0.3802
 9173TIP3    H149010   5.388   2.610   3.468 -1.0648  1.7970 -1.3804
 9173TIP3    H249011   5.534   2.577   3.492 -2.0051 -1.4547  0.1482
 9174TIP3   OH249012   3.451   1.031  16.952  0.0300  0.1263  0.0978
 9174TIP3    H149013   3.430   1.072  16.868  0.4869  0.6199  0.2219
 9174TIP3    H249014   3.420   1.094  17.017 -0.0701 -0.1316  0.2974
 9175TIP3   OH249015   4.076   2.505  12.191 -0.2972  0.3338 -0.1683
 9175TIP3    H149016   4.006   2.566  12.165 -1.6014 -1.6127 -1.3329
 9175TIP3    H249017   4.031   2.435  12.238  1.1249  0.0082  0.7456
 9176TIP3   OH249018   2.710   3.244   2.822  0.2225  0.2623 -0.5808
 9176TIP3    H149019   2.725   3.176   2.888  0.1940 -2.0787 -2.9061
 9176TIP3    H249020   2.615   3.255   2.821  0.2781  0.8951  0.3151
 9177TIP3   OH249021   6.619   4.419  10.853 -0.3613  0.4407  0.2917
 9177TIP3    H149022   6.631   4.358  10.780  3.6478 -0.7189  1.7959
 9177TIP3    H249023   6.673   4.494  10.830 -0.6661  0.9263  1.1465
 9178TIP3   OH249024   6.141   2.643   3.845 -0.2731 -0.0681 -0.1568
 9178TIP3    H149025   6.194   2.606   3.774 -0.1478  0.2118 -0.2078
 9178TIP3    H249026   6.122   2.568   3.902  0.3401 -0.1362 -0.0361
 9179TIP3   OH249027   0.451   5.690   2.299 -0.0045 -0.4364 -0.2733
 9179TIP3    H149028   0.533   5.642   2.308  1.3116  2.0702  1.5871
 9179TIP3    H249029   0.405   5.674   2.381 -0.6756 -0.5221 -0.6647
 9180TIP3   OH249030   3.169   0.858  15.116  0.1435  0.1214 -0.4089
 9180TIP3    H149031   3.200   0.949  15.117  0.1225  0.1208  0.4417
 9180TIP3    H249032   3.212   0.818  15.192 -2.5329  0.3168  1.2776
 9181TIP3   OH249033   4.385   4.093  14.861 -0.4078  0.3659 -0.1101
 9181TIP3    H149034   4.441   4.161  14.824 -0.4422  0.1608 -0.5425
 9181TIP3    H249035   4.298   4.133  14.864 -0.3471  0.4866  0.0291
 9182TIP3   OH249036   2.836   2.517  16.827  0.1577  0.3028  0.2642
 9182TIP3    H149037   2.819   2.554  16.740 -0.1926  0.4331  0.3875
 9182TIP3    H249038   2.914   2.462  16.815 -0.3410 -0.2946 -0.3106
 9183TIP3   OH249039   1.718   2.193  10.495 -0.2943  0.2576 -0.4090
 9183TIP3    H149040   1.642   2.162  10.447  1.3145 -3.3019 -0.8287
 9183TIP3    H249041   1.737   2.279  10.459 -1.7451 -0.5076 -3.0757
 9184TIP3   OH249042   4.461   0.545  16.844  0.7641  0.3241 -0.2549
 9184TIP3    H149043   4.420   0.625  16.877 -1.0504 -0.6682 -0.0167
 9184TIP3    H249044   4.451   0.550  16.749 -1.4973 -0.7147 -0.0948
 9185TIP3   OH249045   4.973   5.548   2.711 -0.2668 -0.3280  0.3648
 9185TIP3    H149046   5.032   5.472   2.702 -0.0407 -0.2403  1.0912
 9185TIP3    H249047   5.024   5.621   2.677 -0.2549 -0.3845  0.2562
 9186TIP3   OH249048   2.064   1.529   1.978 -0.2006 -0.1217  0.5065
 9186TIP3    H149049   2.029   1.501   1.893  1.2666  1.7040 -0.7648
 9186TIP3    H249050   2.107   1.451   2.013  3.1260  0.1445 -2.5754
 9187TIP3   OH249051   2.085   2.809   3.859 -0.2840 -0.3241  0.8933
 9187TIP3    H149052   2.144   2.882   3.842 -0.4562 -0.3860 -0.0134
 9187TIP3    H249053   1.997   2.847   3.849 -0.3760 -0.6039  0.6254
 9188TIP3   OH249054   4.637   6.615  11.596 -0.0724  0.3126  0.4614
 9188TIP3    H149055   4.552   6.613  11.552  0.1776 -0.3309 -0.0166
 9188TIP3    H249056   4.697   6.652  11.531  0.0519  0.5695  0.7206
 9189TIP3   OH249057   2.198   1.516  15.776  0.3904  0.5101 -0.2854
 9189TIP3    H149058   2.247   1.548  15.852  0.6140  2.5190 -1.2476
 9189TIP3    H249059   2.107   1.511  15.807  0.9947 -2.4795  1.2584
 9190TIP3   OH249060   0.592   4.753  12.628 -0.5389 -0.1888  0.5628
 9190TIP3    H149061   0.624   4.665  12.610  1.5280  0.0888  2.7468
 9190TIP3    H249062   0.499   4.741  12.648 -0.3705 -1.8114  0.4307
 9191TIP3   OH249063   6.096   2.008   0.296  0.6938  0.3968 -0.4856
 9191TIP3    H149064   6.059   2.090   0.329  1.0414  0.5195 -0.3985
 9191TIP3    H249065   6.095   2.018   0.201 -1.1945 -0.3439 -0.5611
 9192TIP3   OH249066   0.693   4.905  13.878 -0.2356  0.1393 -0.1392
 9192TIP3    H149067   0.676   4.990  13.920  2.5693  0.5894  0.1602
 9192TIP3    H249068   0.704   4.844  13.950 -1.5626 -0.3704 -0.3504
 9193TIP3   OH249069   0.989   0.651   6.002 -0.3956  0.4109 -0.1360
 9193TIP3    H149070   1.021   0.573   5.958 -2.2316  1.2204 -3.0270
 9193TIP3    H249071   0.970   0.623   6.091 -2.2629 -2.7930 -1.4728
 9194TIP3   OH249072   4.075   6.047   3.975 -0.0645 -0.3370  0.3894
 9194TIP3    H149073   4.047   6.111   3.909 -3.7690  0.1449  2.2866
 9194TIP3    H249074   4.130   6.097   4.035  1.3456 -0.2177 -0.9635
 9195TIP3   OH249075   3.595   6.658  10.996  0.1120 -0.7669 -0.3714
 9195TIP3    H149076   3.690   6.656  11.010 -0.2107 -1.7562  1.7824
 9195TIP3    H249077   3.576   6.576  10.950  0.2636 -0.6884 -0.5754
 9196TIP3   OH249078   4.432   2.537  16.009  0.3731  0.0890  0.0728
 9196TIP3    H149079   4.418   2.493  16.092  1.4923 -0.3822  0.0157
 9196TIP3    H249080   4.421   2.630  16.029  0.7585 -0.0154  0.7660
 9197TIP3   OH249081   1.346   4.931  14.957 -0.2788 -0.4448 -0.1929
 9197TIP3    H149082   1.336   5.026  14.949 -0.7199 -0.5932 -1.7037
 9197TIP3    H249083   1.392   4.906  14.877 -1.7296 -1.7116 -0.6441
 9198TIP3   OH249084   2.513   6.512  12.734 -0.2992  0.3549  0.4765
 9198TIP3    H149085   2.594   6.466  12.716 -0.4967  0.1809  0.0096
 9198TIP3    H249086   2.532   6.604  12.714 -0.4308  0.2054 -0.3596
 9199TIP3   OH249087   0.363   2.365  13.114  0.3304 -0.0633 -0.1048
 9199TIP3    H149088   0.293   2.307  13.143  0.6103  0.0218  0.7596
 9199TIP3    H249089   0.385   2.335  13.026 -0.2577 -0.5819 -0.0737
 9200TIP3   OH249090   2.425   5.898   4.273 -0.2918  0.2637  0.0235
 9200TIP3    H149091   2.508   5.897   4.321  0.2390 -0.2448 -0.8840
 9200TIP3    H249092   2.368   5.839   4.322 -0.2174  0.8327  0.8082
 9201TIP3   OH249093   1.077   3.669  15.603  0.0690 -0.2342  0.0599
 9201TIP3    H149094   1.039   3.621  15.677 -0.9432  1.5100  0.6841
 9201TIP3    H249095   1.169   3.640  15.601 -0.0765 -0.8584  1.5189
 9202TIP3   OH249096   1.979   4.768   0.779  0.2483  0.3929 -0.2848
 9202TIP3    H149097   1.965   4.771   0.684  2.3795  0.9210 -0.6126
 9202TIP3    H249098   1.978   4.860   0.806 -1.1065  0.2002  0.3279
 9203TIP3   OH249099   6.678   0.309   1.875  0.0152 -0.3653  0.8234
 9203TIP3    H149100   6.591   0.334   1.845  0.6180  2.1935  1.1006
 9203TIP3    H249101   6.681   0.336   1.967  1.3492  0.2806  0.6103
 9204TIP3   OH249102   2.749   4.780  14.943  0.1462 -0.5408 -0.4721
 9204TIP3    H149103   2.667   4.810  14.981  0.9418  0.3400  0.6080
 9204TIP3    H249104   2.754   4.687  14.965 -0.7496 -0.6927 -0.9085
 9205TIP3   OH249105   5.245   6.490   0.782 -0.8435  0.0945  0.3212
 9205TIP3    H149106   5.169   6.541   0.811 -1.6762  0.8557 -2.9613
 9205TIP3    H249107   5.230   6.476   0.688  2.6514 -0.4974 -0.2188
 9206TIP3   OH249108   5.407   5.604   1.510  0.0936 -0.2122 -0.1745
 9206TIP3    H149109   5.327   5.576   1.465  0.8430 -1.3654 -0.8033
 9206TIP3    H249110   5.451   5.522   1.533  1.0886  0.4249  0.1935
 9207TIP3   OH249111   4.354   5.604  16.475  0.3353 -0.0676 -0.1224
 9207TIP3    H149112   4.304   5.645  16.404  0.9526  0.5818 -0.1882
 9207TIP3    H249113   4.352   5.510  16.455 -3.0460 -0.3490  1.2475
 9208TIP3   OH249114   1.748   1.833   5.874  0.1273  0.1971  0.3760
 9208TIP3    H149115   1.781   1.743   5.875 -0.8886 -0.2039 -0.6303
 9208TIP3    H249116   1.820   1.885   5.838  0.0125 -0.5310 -0.9521
 9209TIP3   OH249117   2.380   4.575  14.575  0.3827  0.6617 -0.1845
 9209TIP3    H149118   2.444   4.540  14.513  0.5487  1.6936 -0.6107
 9209TIP3    H249119   2.394   4.525  14.656  0.2834 -0.5735 -0.9123
 9210TIP3   OH249120   4.105   0.247   4.093  0.7781  0.7910  0.4480
 9210TIP3    H149121   4.164   0.199   4.035 -1.0406 -0.8045 -0.1522
 9210TIP3    H249122   4.152   0.252   4.176  1.8293 -0.3417 -0.0551
 9211TIP3   OH249123   4.035   5.461   2.200 -0.1722 -0.1122  0.7976
 9211TIP3    H149124   4.085   5.386   2.166  0.9846  0.1853  1.8167
 9211TIP3    H249125   4.017   5.439   2.291 -2.4978 -0.4941  0.2916
 9212TIP3   OH249126   6.182   6.050   1.082 -0.0599 -0.6039 -0.4185
 9212TIP3    H149127   6.141   6.046   1.169 -0.4446 -2.8979 -0.6759
 9212TIP3    H249128   6.141   5.979   1.033 -0.3351  1.1196 -2.7246
 9213TIP3   OH249129   3.343   3.616  15.621  0.4738  0.2818 -0.0695
 9213TIP3    H149130   3.263   3.581  15.583  0.0515  0.7430  0.3921
 9213TIP3    H249131   3.315   3.692  15.673  1.0623 -0.2509  1.0433
 9214TIP3   OH249132   3.020   1.126  11.812  0.2321 -0.6584  0.1233
 9214TIP3    H149133   2.929   1.157  11.809  0.4169 -0.1046  0.1807
 9214TIP3    H249134   3.071   1.205  11.828  0.5497 -1.3092  2.3889
 9215TIP3   OH249135   2.964   6.174  12.434  0.4509 -0.1031 -0.0108
 9215TIP3    H149136   3.058   6.188  12.433  0.1206  2.4315 -3.2926
 9215TIP3    H249137   2.938   6.174  12.342 -2.7038 -1.3303  0.7871
 9216TIP3   OH249138   5.036   0.537  13.994 -0.2759 -0.4217  0.2301
 9216TIP3    H149139   4.994   0.620  14.016 -0.8611 -0.7232  0.2639
 9216TIP3    H249140   5.036   0.534  13.898  2.7328  1.1269  0.1203
 9217TIP3   OH249141   1.790   1.966   1.298  0.1440 -0.3479  0.2305
 9217TIP3    H149142   1.716   2.012   1.338 -0.5291 -0.9712 -0.2803
 9217TIP3    H249143   1.838   1.930   1.373 -0.0183  0.1409  0.5735
 9218TIP3   OH249144   5.569   2.505  13.916  0.3022 -0.1289 -0.2587
 9218TIP3    H149145   5.663   2.519  13.904  0.2363 -0.1057 -0.7668
 9218TIP3    H249146   5.531   2.522  13.829 -0.1511 -0.2973 -0.0944
 9219TIP3   OH249147   6.534   5.864  13.521 -0.3069  0.4920 -0.2685
 9219TIP3    H149148   6.489   5.898  13.444 -0.2427  0.2704 -0.4044
 9219TIP3    H249149   6.572   5.781  13.492 -3.1246 -1.3058  0.8977
 9220TIP3   OH249150   2.063   3.154  11.161  0.6793 -0.1215  0.0031
 9220TIP3    H149151   1.977   3.116  11.141 -0.0630  1.1271  0.7599
 9220TIP3    H249152   2.070   3.230  11.104  0.9184  0.2720  0.5533
 9221TIP3   OH249153   1.227   6.356  12.349 -0.0205 -0.2354  0.4676
 9221TIP3    H149154   1.292   6.424  12.333 -1.0090  0.7310  0.5278
 9221TIP3    H249155   1.258   6.311  12.427  0.5828  0.1958  0.4835
 9222TIP3   OH249156   5.910   2.567   6.038 -0.0667 -0.4395  0.1505
 9222TIP3    H149157   5.949   2.655   6.039 -0.4953 -0.2135 -1.1456
 9222TIP3    H249158   5.862   2.561   6.121 -2.5975  1.7742 -1.0669
 9223TIP3   OH249159   4.244   5.468  16.773 -0.0444 -0.2946  0.2932
 9223TIP3    H149160   4.274   5.377  16.775  0.7555 -0.0204  1.7727
 9223TIP3    H249161   4.185   5.472  16.698  2.5523 -1.1589 -1.8364
 9224TIP3   OH249162   1.261   0.668   2.665 -0.4051  0.4763 -0.5627
 9224TIP3    H149163   1.212   0.602   2.615 -1.4821  0.5693  0.3623
 9224TIP3    H249164   1.315   0.713   2.599 -2.1838  0.9397 -1.7313
 9225TIP3   OH249165   1.185   3.772  14.300 -0.0441 -0.0055  0.4817
 9225TIP3    H149166   1.130   3.785  14.224  0.6856 -1.3025 -0.2914
 9225TIP3    H249167   1.184   3.856  14.346  1.0120  1.3876 -1.9555
 9226TIP3   OH249168   5.810   1.378  17.136  0.6251  0.2842 -0.3800
 9226TIP3    H149169   5.879   1.426  17.181  0.4511  0.2677 -0.0939
 9226TIP3    H249170   5.766   1.443  17.081 -1.0886  0.9545  1.7372
 9227TIP3   OH249171   3.730   2.974  16.551  0.6919  0.2035 -0.7494
 9227TIP3    H149172   3.797   2.914  16.518  0.7257  0.0695 -0.4356
 9227TIP3    H249173   3.772   3.060  16.546  0.7696  0.1585 -0.8693
 9228TIP3   OH249174   3.629   3.040  11.868 -0.5754 -0.1531 -0.1492
 9228TIP3    H149175   3.571   3.065  11.796 -1.2389 -0.6536  0.2057
 9228TIP3    H249176   3.716   3.062  11.837 -0.8504 -0.4621 -1.1560
 9229TIP3   OH249177   3.583   1.892  11.899 -0.9348 -0.3371  0.3849
 9229TIP3    H149178   3.678   1.884  11.887 -1.1962 -1.1719 -1.3129
 9229TIP3    H249179   3.569   1.984  11.921  0.2492 -0.1778  0.5171
 9230TIP3   OH249180   6.012   0.134   4.997  0.1016 -0.2304  0.0279
 9230TIP3    H149181   5.987   0.082   5.073 -1.0935  1.2355  0.6508
 9230TIP3    H249182   6.104   0.158   5.013 -0.4664  1.0131  1.5681
 9231TIP3   OH249183   0.848   4.747   1.149  0.0334  0.0041  0.1354
 9231TIP3    H149184   0.763   4.756   1.106  0.7874  3.8365 -0.7282
 9231TIP3    H249185   0.834   4.779   1.238  0.2967 -0.5610  0.3854
 9232TIP3   OH249186   3.337   1.644   6.223 -0.2524 -0.5609  0.4354
 9232TIP3    H149187   3.284   1.599   6.289  0.8192  0.7138  2.2202
 9232TIP3    H249188   3.393   1.704   6.273  1.2411 -0.1965 -1.5635
 9233TIP3   OH249189   4.775   0.160  15.531  0.1518  0.5339  0.9843
 9233TIP3    H149190   4.758   0.204  15.615  0.8586 -0.1008  1.4604
 9233TIP3    H249191   4.713   0.201  15.471 -2.1864 -0.8128  2.3863
 9234TIP3   OH249192   5.865   3.009  12.804 -0.1257 -0.8537 -0.0542
 9234TIP3    H149193   5.881   2.955  12.881 -0.1444 -1.0220 -0.1688
 9234TIP3    H249194   5.927   3.081  12.813  1.3074 -1.9399 -0.9077
 9235TIP3   OH249195   0.993   6.363   5.377 -0.4421 -0.3068 -0.2555
 9235TIP3    H149196   0.903   6.336   5.360 -0.8543  0.2108  0.9801
 9235TIP3    H249197   1.016   6.419   5.304 -0.1670 -2.6018 -1.9711
 9236TIP3   OH249198   5.999   3.049  16.249  0.5389 -0.3663  0.3058
 9236TIP3    H149199   6.062   3.085  16.312 -2.1169  1.4193  2.0023
 9236TIP3    H249200   5.971   2.966  16.289  1.0192 -0.6674  0.0317
 9237TIP3   OH249201   6.539   0.056   4.790 -0.2407  0.4630  0.3408
 9237TIP3    H149202   6.569   0.125   4.730 -2.1241  0.9622 -0.0544
 9237TIP3    H249203   6.576   0.080   4.875 -0.2007  1.5247  0.0284
 9238TIP3   OH249204   2.059   6.393   3.149 -0.4007 -0.2284  0.7386
 9238TIP3    H149205   2.039   6.342   3.071 -1.0879 -0.0074  0.7719
 9238TIP3    H249206   2.109   6.332   3.204 -0.4845 -0.5950  0.4123
 9239TIP3   OH249207   3.727   2.659   2.105 -0.4063 -0.0313 -0.3609
 9239TIP3    H149208   3.745   2.644   2.198 -0.2320  0.9706 -0.2269
 9239TIP3    H249209   3.673   2.584   2.079  2.7943 -2.3812 -0.4692
 9240TIP3   OH249210   3.984   6.000  15.717 -0.1236 -0.2519 -0.8618
 9240TIP3    H149211   3.928   5.924  15.707  0.1016 -0.3354 -1.4645
 9240TIP3    H249212   3.928   6.075  15.698 -0.2780 -0.2815 -0.5238
 9241TIP3   OH249213   4.373   2.556  13.076 -0.1976  0.6749 -0.2794
 9241TIP3    H149214   4.311   2.510  13.020  1.9459 -0.5374 -1.7225
 9241TIP3    H249215   4.359   2.518  13.163 -0.4521 -0.6356 -0.8814
 9242TIP3   OH249216   4.685   2.569  13.533 -0.8624 -0.1677  0.2917
 9242TIP3    H149217   4.598   2.532  13.520 -0.8692  0.5119 -1.7934
 9242TIP3    H249218   4.682   2.607  13.621 -3.2253  1.3309 -0.3957
 9243TIP3   OH249219   3.209   2.726   5.185 -0.3977  0.1817  0.3852
 9243TIP3    H149220   3.257   2.705   5.105 -0.5952 -1.2404  0.6164
 9243TIP3    H249221   3.117   2.727   5.158 -0.2997  2.4488  0.0365
 9244TIP3   OH249222   4.777   3.314   6.590 -0.0904 -0.4324  0.4408
 9244TIP3    H149223   4.780   3.398   6.546  0.7795  0.7755  2.7314
 9244TIP3    H249224   4.698   3.317   6.644 -1.2144 -1.9427 -1.0442
 9245TIP3   OH249225   6.128   5.227   3.121  0.3502 -1.3007  0.1349
 9245TIP3    H149226   6.198   5.208   3.058 -1.0384 -2.1002 -1.1787
 9245TIP3    H249227   6.050   5.188   3.083 -1.0161  0.3720  1.1586
 9246TIP3   OH249228   2.085   5.203  14.956  0.2274 -0.1355 -0.3365
 9246TIP3    H149229   2.026   5.135  14.924 -0.8544 -0.3175  1.8918
 9246TIP3    H249230   2.089   5.187  15.051  0.8109  2.2349  0.0588
 9247TIP3   OH249231   4.806   0.507  12.146  0.3663 -0.0502  0.3241
 9247TIP3    H149232   4.780   0.420  12.116  1.6637 -0.4500  0.3439
 9247TIP3    H249233   4.730   0.562  12.128 -1.6653 -1.8165  3.2713
 9248TIP3   OH249234   4.587   6.735   0.289  0.6299 -0.0978  0.0647
 9248TIP3    H149235   4.494   6.728   0.268  0.6530 -0.0204 -0.0630
 9248TIP3    H249236   4.610   6.826   0.269  0.4610  0.1903  1.1838
 9249TIP3   OH249237   6.474   1.046  13.304 -0.0197  0.1474  0.0420
 9249TIP3    H149238   6.511   1.107  13.368  0.1626  0.9572 -0.8253
 9249TIP3    H249239   6.514   0.962  13.325 -0.9393  0.1199  1.8080
 9250TIP3   OH249240   2.106   3.415   0.367 -0.3610  0.0912  0.0619
 9250TIP3    H149241   2.118   3.404   0.273 -0.1160  2.8862 -0.2956
 9250TIP3    H249242   2.194   3.428   0.402 -0.5748  0.5773  0.4374
 9251TIP3   OH249243   0.001   0.445  12.199 -0.7498 -0.5073  0.2438
 9251TIP3    H149244  -0.052   0.494  12.135  0.8577  1.4431  0.3615
 9251TIP3    H249245   0.085   0.431  12.155  0.0669  0.0861  1.5835
 9252TIP3   OH249246   2.505   0.852  16.885  0.1108 -1.0485 -0.5525
 9252TIP3    H149247   2.432   0.891  16.838  1.0825  0.8919 -0.5150
 9252TIP3    H249248   2.583   0.897  16.851  0.7887  0.8213  3.2678
 9253TIP3   OH249249   6.504   4.993   1.352  0.2834 -0.1842 -0.2608
 9253TIP3    H149250   6.516   4.900   1.371  0.1683  0.1287  1.4025
 9253TIP3    H249251   6.564   5.038   1.411  0.5663  0.7987 -1.2640
 9254TIP3   OH249252   6.376   3.692   1.077 -0.5096  0.2283 -0.1760
 9254TIP3    H149253   6.299   3.639   1.098  1.1061 -1.4866  1.6441
 9254TIP3    H249254   6.439   3.671   1.146  1.2883  2.2578 -1.1393
 9255TIP3   OH249255   3.735   2.397  15.832  0.1757  0.5591  0.2000
 9255TIP3    H149256   3.701   2.387  15.921  0.1488  0.3099  0.1609
 9255TIP3    H249257   3.662   2.373  15.775 -0.2673  2.0791  0.0896
 9256TIP3   OH249258   3.411   0.132  13.837  0.1484 -0.2717  0.1714
 9256TIP3    H149259   3.438   0.040  13.843 -2.4976 -0.9620  2.5988
 9256TIP3    H249260   3.396   0.158  13.928  1.0605  2.6603 -0.4759
 9257TIP3   OH249261   6.387   0.408   3.085  0.0003 -0.8862  0.0659
 9257TIP3    H149262   6.475   0.430   3.053 -0.0984  0.0107  0.3910
 9257TIP3    H249263   6.394   0.416   3.180 -1.1638  2.0395 -0.0449
 9258TIP3   OH249264   4.217   4.018   0.730 -0.0347  0.5126  0.0152
 9258TIP3    H149265   4.193   4.018   0.823 -0.9500  0.1972 -0.2210
 9258TIP3    H249266   4.292   3.960   0.725 -0.5339 -0.1698  0.4147
 9259TIP3   OH249267   2.764   1.496   0.124  0.3246  0.7166  0.4866
 9259TIP3    H149268   2.704   1.423   0.141  0.6168  0.3702  0.0260
 9259TIP3    H249269   2.717   1.573   0.157 -0.9188  0.6187 -0.9952
 9260TIP3   OH249270   2.095   3.512   2.894  0.0020 -0.1002 -0.2993
 9260TIP3    H149271   2.064   3.482   2.808 -0.9755 -0.3741  0.1453
 9260TIP3    H249272   2.030   3.576   2.923  1.3337  1.4060 -0.5950
 9261TIP3   OH249273   4.877   4.522   5.795 -0.1865 -0.3780 -0.3443
 9261TIP3    H149274   4.827   4.599   5.766 -1.0953 -0.8743 -0.1287
 9261TIP3    H249275   4.963   4.533   5.756 -0.8084 -0.0677 -1.6720
 9262TIP3   OH249276   1.284   2.048  12.472 -0.0703 -0.4178  0.6635
 9262TIP3    H149277   1.265   2.136  12.506  1.3308  0.3697 -0.4811
 9262TIP3    H249278   1.313   1.998  12.548 -1.6539 -0.1179  1.4697
 9263TIP3   OH249279   2.773   0.429  12.314  0.0826  0.2051  0.0179
 9263TIP3    H149280   2.852   0.440  12.367 -0.7959  0.3413  1.2961
 9263TIP3    H249281   2.807   0.403  12.228  1.6369  2.4590 -0.0904
 9264TIP3   OH249282   3.266   1.764  16.737 -0.7884 -0.2682  0.4546
 9264TIP3    H149283   3.323   1.766  16.814 -1.4603  0.6598  0.9312
 9264TIP3    H249284   3.179   1.746  16.772 -1.2987  1.3225  0.0468
 9265TIP3   OH249285   3.702   1.826   0.147 -0.3147  0.0096 -0.0803
 9265TIP3    H149286   3.691   1.856   0.057 -0.6779 -0.8666 -0.3338
 9265TIP3    H249287   3.794   1.799   0.152  1.1058  4.6450  1.2268
 9266TIP3   OH249288   1.897   4.430  16.806  0.0011  0.3332 -0.2884
 9266TIP3    H149289   1.886   4.511  16.756  1.4097  0.7312  0.0241
 9266TIP3    H249290   1.813   4.385  16.798 -0.2316  1.0218 -1.8983
 9267TIP3   OH249291   5.563   1.218   5.026  0.4164 -0.4952 -0.0773
 9267TIP3    H149292   5.634   1.203   4.963  0.3290  0.6642 -0.4640
 9267TIP3    H249293   5.489   1.170   4.990 -0.3744  2.1813 -2.2439
 9268TIP3   OH249294   5.645   0.029   5.544  0.4916 -0.3751  0.4621
 9268TIP3    H149295   5.605  -0.025   5.613  0.9547 -0.8661  0.3424
 9268TIP3    H249296   5.703   0.088   5.592 -1.6015  1.4831  0.8135
 9269TIP3   OH249297   5.238   2.815   3.807 -0.0427  0.0606  0.3930
 9269TIP3    H149298   5.214   2.742   3.864  1.2622 -1.4290 -0.9265
 9269TIP3    H249299   5.169   2.817   3.741  0.5622 -0.7924 -0.2822
 9270TIP3   OH249300   5.034   2.359  13.901  0.4692 -0.0427 -0.1776
 9270TIP3    H149301   5.005   2.270  13.879 -0.0630 -0.3283  1.6315
 9270TIP3    H249302   5.126   2.360  13.876  0.8742 -1.5912  1.1864
 9271TIP3   OH249303   1.082   1.946  16.291 -0.3807  0.4967  0.3164
 9271TIP3    H149304   1.087   2.000  16.212 -0.5043  0.6749  0.4312
 9271TIP3    H249305   1.066   2.008  16.362  1.8650  0.5712  0.7783
 9272TIP3   OH249306   6.363   6.016  11.581  0.0614 -0.1264  0.3076
 9272TIP3    H149307   6.268   6.018  11.594 -0.0427 -0.0944 -0.4617
 9272TIP3    H249308   6.394   5.952  11.645 -0.4780 -0.1619  0.5393
 9273TIP3   OH249309   6.475   0.545   2.774 -0.1269 -0.0077  0.2972
 9273TIP3    H149310   6.423   0.616   2.736 -1.0137 -0.7168  0.1828
 9273TIP3    H249311   6.452   0.468   2.723  2.5001  0.0475 -1.0114
 9274TIP3   OH249312   0.310   2.349  17.041 -0.1562  0.1214  0.0933
 9274TIP3    H149313   0.263   2.433  17.046 -1.8347 -0.7459 -0.7662
 9274TIP3    H249314   0.263   2.291  17.100  0.7596 -0.3416  0.3779
 9275TIP3   OH249315   4.708   1.760   0.562  0.3600  0.1382  0.2281
 9275TIP3    H149316   4.674   1.671   0.575 -1.8055  1.1962  2.1224
 9275TIP3    H249317   4.751   1.782   0.645  1.1420  0.7665 -0.3363
 9276TIP3   OH249318   5.797   3.037  12.536 -0.1834  0.6063 -0.8680
 9276TIP3    H149319   5.804   3.130  12.515  0.5456  1.2563  2.0402
 9276TIP3    H249320   5.811   3.032  12.631 -0.5919 -2.4287 -0.8999
 9277TIP3   OH249321   5.483   2.787  11.843 -0.4780 -0.1867  1.1082
 9277TIP3    H149322   5.453   2.854  11.904 -0.8847  2.1385 -1.5055
 9277TIP3    H249323   5.408   2.773  11.785  0.9398  0.1501 -0.8679
 9278TIP3   OH249324   3.888   1.925  13.369 -0.5147 -0.4980 -0.4623
 9278TIP3    H149325   3.946   1.854  13.342  1.4629  0.2133  1.7305
 9278TIP3    H249326   3.831   1.886  13.435  1.2838  0.1446  1.5325
 9279TIP3   OH249327   3.525   5.386  15.361  0.2570  0.2887  0.1764
 9279TIP3    H149328   3.513   5.312  15.421  0.3551 -0.5549 -0.8415
 9279TIP3    H249329   3.575   5.450  15.412  1.3812 -0.9193  0.5986
 9280TIP3   OH249330   2.958   2.650  13.180  0.6699 -0.2825  0.5043
 9280TIP3    H149331   2.994   2.596  13.109 -0.7995 -0.0817 -0.4144
 9280TIP3    H249332   3.007   2.732  13.175  0.1836 -0.0489 -0.6782
 9281TIP3   OH249333   0.404   2.190  12.905 -0.3619  0.2078 -0.4678
 9281TIP3    H149334   0.436   2.172  12.817  0.3653 -1.6704  0.1577
 9281TIP3    H249335   0.337   2.123  12.920  0.6048 -0.4710  0.9686
 9282TIP3   OH249336   1.801   3.879  16.063  0.0299 -0.0923 -0.3993
 9282TIP3    H149337   1.707   3.863  16.073  0.1210 -0.3423  0.0620
 9282TIP3    H249338   1.819   3.953  16.122 -0.2197  1.1477 -1.8443
 9283TIP3   OH249339   5.263   1.472   2.000 -0.3987 -0.2325 -0.8548
 9283TIP3    H149340   5.224   1.549   2.041 -0.1185 -0.0023 -1.0102
 9283TIP3    H249341   5.345   1.458   2.048 -1.0058 -1.1310 -0.0782
 9284TIP3   OH249342   5.079   3.012  14.931 -0.2517  0.0449  0.0523
 9284TIP3    H149343   5.013   3.081  14.934  0.0575  0.3133  0.9776
 9284TIP3    H249344   5.031   2.934  14.905 -0.7909  0.3975 -0.0141
 9285TIP3   OH249345   5.560   1.278  16.237 -0.2032  0.0316 -0.0827
 9285TIP3    H149346   5.530   1.188  16.246  1.6568 -0.4665  1.3824
 9285TIP3    H249347   5.655   1.273  16.243 -0.1633  2.3479  2.4524
 9286TIP3   OH249348   4.784   3.571  14.538  0.0973 -0.2948 -1.1246
 9286TIP3    H149349   4.766   3.528  14.455  1.0182 -0.9141 -1.0122
 9286TIP3    H249350   4.853   3.635  14.517  0.1444 -0.2706 -0.8953
 9287TIP3   OH249351   2.382   0.275  12.350 -0.0619 -0.0935  0.3620
 9287TIP3    H149352   2.421   0.282  12.263  0.5390  0.4007  0.6732
 9287TIP3    H249353   2.334   0.192  12.348  1.1176 -0.7665  0.0260
 9288TIP3   OH249354   1.228   4.250  15.278  0.0530  0.2464 -0.4829
 9288TIP3    H149355   1.207   4.171  15.328  1.4769  0.6648  0.8372
 9288TIP3    H249356   1.318   4.237  15.251 -0.0554  0.9597 -1.1810
 9289TIP3   OH249357   2.008   5.005   3.030  0.0247  0.5574 -0.3983
 9289TIP3    H149358   1.984   5.035   3.118 -1.0908 -1.1137 -0.1055
 9289TIP3    H249359   1.925   4.989   2.986  0.5821  0.9731 -1.6276
 9290TIP3   OH249360   1.988   4.127  15.964 -0.3615  0.0551 -0.3219
 9290TIP3    H149361   1.922   4.063  15.990 -0.2487  0.5242  1.1784
 9290TIP3    H249362   2.055   4.122  16.032  0.9243 -0.0758 -1.5727
 9291TIP3   OH249363   2.216   0.227  14.752 -0.3473  0.0019  0.1951
 9291TIP3    H149364   2.124   0.204  14.761 -0.1668 -1.2749 -0.9568
 9291TIP3    H249365   2.217   0.303  14.694 -0.5626 -1.4070 -1.7072
 9292TIP3   OH249366   4.032   4.518   1.758 -0.5921  0.1385 -0.6079
 9292TIP3    H149367   3.939   4.495   1.752 -0.8203  1.0535 -0.5479
 9292TIP3    H249368   4.033   4.607   1.793  0.3400 -0.2018  0.2420
 9293TIP3   OH249369   1.710   4.054  16.479 -0.0297 -0.1215 -0.3769
 9293TIP3    H149370   1.678   4.036  16.568  0.2196  2.6852  0.3117
 9293TIP3    H249371   1.778   3.988  16.465 -0.4838 -0.9783  1.2773
 9294TIP3   OH249372   2.940   6.018   4.179  0.1340 -0.6637  0.0113
 9294TIP3    H149373   2.991   5.957   4.126  0.9896  0.3260 -0.3239
 9294TIP3    H249374   2.903   6.079   4.115  1.3869  0.6971  0.5473
 9295TIP3   OH249375   3.101   4.316   2.707 -0.0144 -0.1731 -0.0415
 9295TIP3    H149376   3.062   4.397   2.741 -0.3075 -1.3044  2.3958
 9295TIP3    H249377   3.180   4.345   2.661  0.4372  1.4234  1.6695
 9296TIP3   OH249378   3.313   4.183   5.559  0.3943  0.0544  0.0136
 9296TIP3    H149379   3.276   4.111   5.610 -0.2029 -0.6282 -1.3420
 9296TIP3    H249380   3.341   4.247   5.624 -2.1347  0.0891  1.1409
 9297TIP3   OH249381   0.940   5.054  16.699  0.7298 -0.1102  0.6964
 9297TIP3    H149382   0.911   4.964  16.691  0.3982  0.2073 -2.2282
 9297TIP3    H249383   1.020   5.059  16.647  1.2445  1.0719  1.5664
 9298TIP3   OH249384   2.353   0.164  13.390 -0.0525 -0.5561 -0.0242
 9298TIP3    H149385   2.373   0.139  13.300  0.7006 -1.5512  0.4095
 9298TIP3    H249386   2.437   0.189  13.428 -0.4882  0.6235  0.1710
 9299TIP3   OH249387   0.305   3.372  16.633 -0.7096 -0.0079  0.7237
 9299TIP3    H149388   0.326   3.341  16.720  0.7870 -2.2641 -0.3987
 9299TIP3    H249389   0.369   3.442  16.616  1.4710 -2.0997  0.0340
 9300TIP3   OH249390   2.535   5.847   0.004  0.3428  0.3646 -0.1717
 9300TIP3    H149391   2.572   5.763   0.031 -0.8199 -0.2590 -0.5214
 9300TIP3    H249392   2.536   5.845  -0.092 -2.3867 -0.4654 -0.2112
 9301TIP3   OH249393   6.193   1.105   3.517  0.3301 -0.2921 -0.1867
 9301TIP3    H149394   6.192   1.026   3.463  0.2583  1.3440 -2.6655
 9301TIP3    H249395   6.279   1.105   3.559  0.2973 -1.6927 -0.0852
 9302TIP3   OH249396   3.491   4.862   0.939 -0.7705 -0.2107  0.1786
 9302TIP3    H149397   3.577   4.883   0.903 -1.4066 -0.0173 -1.2973
 9302TIP3    H249398   3.490   4.903   1.025  0.0964  0.9830 -0.3596
 9303TIP3   OH249399   1.190   0.033  14.293  0.1652  0.6272 -0.2288
 9303TIP3    H149400   1.158   0.119  14.265  0.1240  0.3751 -0.9543
 9303TIP3    H249401   1.123   0.000  14.353 -0.6287  0.3788 -1.2432
 9304TIP3   OH249402   1.173   2.135  13.106 -0.0432  0.0751 -0.4852
 9304TIP3    H149403   1.224   2.209  13.073  2.3341 -1.9834 -1.4937
 9304TIP3    H249404   1.223   2.101  13.180 -1.0287 -0.6720 -0.1395
 9305TIP3   OH249405   6.467   3.323   4.156 -0.1820 -0.1777  0.3738
 9305TIP3    H149406   6.376   3.348   4.171  0.4737  1.2961  2.0119
 9305TIP3    H249407   6.461   3.244   4.101 -2.5098 -1.6106  2.5529
 9306TIP3   OH249408   1.263   1.373  12.409 -0.2396  0.4004  0.0707
 9306TIP3    H149409   1.312   1.300  12.446 -1.7902 -0.5136  0.3687
 9306TIP3    H249410   1.301   1.450  12.451  1.8208 -0.1659 -0.7178
 9307TIP3   OH249411   1.108   4.763  15.244 -0.0332 -0.1490 -0.2234
 9307TIP3    H149412   1.119   4.701  15.316  0.6710  1.1389  0.8061
 9307TIP3    H249413   1.197   4.777  15.210 -0.1863  0.2930 -0.4495
 9308TIP3   OH249414   2.427   6.360  14.253  0.2653 -0.0717 -0.2895
 9308TIP3    H149415   2.456   6.450  14.270  0.6888  0.2656 -2.5597
 9308TIP3    H249416   2.374   6.367  14.173  0.8387 -1.9297 -0.8558
 9309TIP3   OH249417   3.859   1.164  14.482 -0.2468 -0.4880  0.1438
 9309TIP3    H149418   3.777   1.203  14.455 -0.0500 -0.2873 -0.1653
 9309TIP3    H249419   3.916   1.172  14.406 -0.5914 -2.5077 -0.3426
 9310TIP3   OH249420   0.157   5.838   3.015 -1.0162  0.4769 -0.7704
 9310TIP3    H149421   0.110   5.811   3.095  1.1788 -1.7010 -0.1640
 9310TIP3    H249422   0.178   5.930   3.030  0.8660 -0.3252  1.9953
 9311TIP3   OH249423   4.704   2.618  11.411  0.0485 -0.5175 -0.7068
 9311TIP3    H149424   4.654   2.698  11.429  0.1636 -0.6586  0.2595
 9311TIP3    H249425   4.709   2.614  11.315 -1.3430 -0.2165 -0.8058
 9312TIP3   OH249426   5.497   2.404  11.678 -0.3162 -0.2355  0.0970
 9312TIP3    H149427   5.491   2.332  11.615 -0.9597  0.6314 -0.8347
 9312TIP3    H249428   5.559   2.372  11.744 -0.1776 -1.4316 -0.5903
 9313TIP3   OH249429   2.708   6.620  13.625 -0.2935  0.1033  0.0094
 9313TIP3    H149430   2.706   6.630  13.530  0.5126 -0.4201 -0.0651
 9313TIP3    H249431   2.780   6.675  13.654  0.5723 -1.0884  0.1395
 9314TIP3   OH249432   1.599   1.905   1.710 -0.1217 -0.0890  0.3077
 9314TIP3    H149433   1.611   1.825   1.762 -2.3504 -0.6791 -0.0426
 9314TIP3    H249434   1.505   1.912   1.698  0.1349  1.9032 -0.7948
 9315TIP3   OH249435   4.330   5.120   5.177  0.3076 -0.3777 -0.4931
 9315TIP3    H149436   4.354   5.212   5.170  1.7264 -0.7497 -0.6734
 9315TIP3    H249437   4.239   5.121   5.207  0.7624  1.0844  0.9359
 9316TIP3   OH249438   0.903   2.157   4.690 -0.0191  0.1634 -0.5041
 9316TIP3    H149439   0.824   2.195   4.652  0.8399  1.9335 -0.5720
 9316TIP3    H249440   0.880   2.141   4.782 -0.8627 -0.5318 -0.8287
 9317TIP3   OH249441   4.612   6.422  15.520  0.0871 -0.3103  0.2596
 9317TIP3    H149442   4.610   6.421  15.424  0.6597 -0.3955  0.2456
 9317TIP3    H249443   4.579   6.335  15.545 -0.0372 -0.2982  0.1413
 9318TIP3   OH249444   4.741   4.304  11.224 -0.2478  0.2244  0.4780
 9318TIP3    H149445   4.692   4.286  11.304 -0.7175 -1.5072 -0.1727
 9318TIP3    H249446   4.826   4.265  11.238 -0.6788 -1.0040 -0.2600
 9319TIP3   OH249447   4.508   6.743   6.250 -0.3135  0.6701 -0.1982
 9319TIP3    H149448   4.491   6.650   6.266 -0.9471  0.8649  0.2740
 9319TIP3    H249449   4.429   6.787   6.281 -0.3975  1.2900 -1.2767
 9320TIP3   OH249450   2.601   4.853  12.881  0.5786 -0.3435 -0.7157
 9320TIP3    H149451   2.543   4.903  12.824 -1.5995 -1.5631  0.3605
 9320TIP3    H249452   2.647   4.793  12.821  0.9462  0.7984 -1.6017
 9321TIP3   OH249453   0.695   6.660  14.704  0.5909 -0.4684  0.2448
 9321TIP3    H149454   0.706   6.567  14.687  0.7999 -0.5035  0.5685
 9321TIP3    H249455   0.760   6.680  14.772  1.0503  0.0727 -0.3507
 9322TIP3   OH249456   5.882   1.001   1.648 -0.4036  0.1357  0.6387
 9322TIP3    H149457   5.789   0.993   1.672 -0.4003 -0.9842  0.3440
 9322TIP3    H249458   5.902   0.917   1.606  0.8199  0.2700  0.9509
 9323TIP3   OH249459   3.839   0.921  16.645 -0.6384 -0.2642 -0.4113
 9323TIP3    H149460   3.866   0.836  16.610  1.9916  0.1217  0.5196
 9323TIP3    H249461   3.801   0.967  16.570 -1.6359 -2.0623 -1.0368
 9324TIP3   OH249462   0.375   2.532  16.006  0.0106 -0.7446  0.0391
 9324TIP3    H149463   0.291   2.579  16.001 -0.6262 -1.6219  2.0815
 9324TIP3    H249464   0.440   2.595  15.975 -1.2838  0.2321 -0.7586
 9325TIP3   OH249465   0.189   4.686  11.724  0.4401  0.2718 -0.2444
 9325TIP3    H149466   0.260   4.646  11.775 -0.8351  0.7550  1.9232
 9325TIP3    H249467   0.133   4.612  11.700  0.4869  0.1847 -0.0864
 9326TIP3   OH249468   6.805   4.301  15.777  0.2480 -0.0217  0.0528
 9326TIP3    H149469   6.838   4.371  15.834 -2.0127  1.2503 -0.1262
 9326TIP3    H249470   6.877   4.239  15.770  1.4862  1.1403  2.1302
 9327TIP3   OH249471   6.510   5.105  15.760 -0.1637 -0.0840 -0.0234
 9327TIP3    H149472   6.438   5.044  15.771  0.5451 -0.7559  0.9490
 9327TIP3    H249473   6.524   5.143  15.846 -1.7908  2.8535 -0.9932
 9328TIP3   OH249474   1.830   5.959   4.152  0.4150  0.2925  0.1997
 9328TIP3    H149475   1.804   6.003   4.071 -0.9945 -2.1861 -0.7496
 9328TIP3    H249476   1.747   5.944   4.198  1.0641  0.3325  1.4098
 9329TIP3   OH249477   1.229   0.272   0.989 -0.4480 -0.3448 -0.6648
 9329TIP3    H149478   1.192   0.354   0.956 -1.9309  0.0622  1.9276
 9329TIP3    H249479   1.265   0.295   1.075 -0.9412 -2.4285  0.1211
 9330TIP3   OH249480   3.671   1.264   1.558  0.1951 -0.1419  0.1461
 9330TIP3    H149481   3.681   1.185   1.504 -0.8614 -0.0044 -0.2496
 9330TIP3    H249482   3.580   1.262   1.588  0.1752  0.9027  0.1746
 9331TIP3   OH249483   3.467   6.533  16.201  0.0690 -0.5143 -0.0211
 9331TIP3    H149484   3.416   6.531  16.120  0.3212  0.3245 -0.2088
 9331TIP3    H249485   3.417   6.479  16.262 -0.1094 -1.1648 -0.7421
 9332TIP3   OH249486   2.861   0.784   3.721  0.1056  0.5481  0.6636
 9332TIP3    H149487   2.900   0.790   3.633  0.2871  0.6625  0.7517
 9332TIP3    H249488   2.802   0.859   3.725  0.7416  1.0366  0.9569
 9333TIP3   OH249489   1.249   3.119   4.371 -0.4952 -0.2967  0.2939
 9333TIP3    H149490   1.253   3.057   4.444 -1.7294 -0.0316  0.6014
 9333TIP3    H249491   1.171   3.171   4.389  1.4881  2.5971  1.0649
 9334TIP3   OH249492   0.291   1.338   5.081  0.5579 -0.2711 -0.3273
 9334TIP3    H149493   0.247   1.356   5.164  2.0767  0.6660  0.2989
 9334TIP3    H249494   0.220   1.330   5.017 -0.6461 -1.4677  1.1348
 9335TIP3   OH249495   1.477   0.326   5.834  0.8691 -0.2296  0.3479
 9335TIP3    H149496   1.438   0.318   5.747 -0.7345  0.8776  0.9571
 9335TIP3    H249497   1.458   0.242   5.876 -0.2660  0.0467  0.4014
 9336TIP3   OH249498   4.285   5.331   5.787  0.1489 -0.5675 -0.1932
 9336TIP3    H149499   4.355   5.357   5.847 -0.7671  0.0359  0.6485
 9336TIP3    H249500   4.276   5.237   5.801  1.5452 -0.8492 -1.1383
 9337TIP3   OH249501   2.435   5.059   1.823  0.3045 -0.6842  0.6112
 9337TIP3    H149502   2.372   5.076   1.754  1.4568  1.2272 -0.0065
 9337TIP3    H249503   2.515   5.033   1.777  1.0952  0.6425  1.1956
 9338TIP3   OH249504   1.839   2.054   4.490 -0.3378 -0.3933  0.3312
 9338TIP3    H149505   1.903   2.096   4.433 -1.2294 -1.3423 -1.4063
 9338TIP3    H249506   1.758   2.103   4.476 -0.9310 -1.5525 -0.3390
 9339TIP3   OH249507   2.039   4.260   6.288 -0.3457  0.4573 -0.4496
 9339TIP3    H149508   2.028   4.342   6.241 -1.1451 -0.7303 -2.4319
 9339TIP3    H249509   2.129   4.233   6.270 -0.3696  0.4586 -0.5747
 9340TIP3   OH249510   3.140   6.700  11.183  0.1493  0.1342  0.3194
 9340TIP3    H149511   3.097   6.776  11.144  0.2455  0.8245  1.5275
 9340TIP3    H249512   3.102   6.625  11.138 -2.2448  0.7310  1.2605
 9341TIP3   OH249513   2.397   2.376  15.420  0.0663  0.4889 -0.4107
 9341TIP3    H149514   2.486   2.340  15.423 -0.4264 -0.9170 -2.0940
 9341TIP3    H249515   2.410   2.470  15.433  1.7280  0.2155  0.1420
 9342TIP3   OH249516   4.493   5.310   3.843 -0.1681 -0.3666  0.3446
 9342TIP3    H149517   4.582   5.312   3.808  0.2954  2.8252  1.5250
 9342TIP3    H249518   4.437   5.323   3.767  0.5067  0.3865 -0.0250
 9343TIP3   OH249519   2.201   3.721   6.568  0.4793 -0.1212  0.2488
 9343TIP3    H149520   2.146   3.656   6.524 -1.3019 -0.5011  2.8793
 9343TIP3    H249521   2.143   3.797   6.580  0.5232 -0.4743  2.9468
 9344TIP3   OH249522   2.421   0.254   3.773 -0.4246  0.6152  0.1019
 9344TIP3    H149523   2.357   0.281   3.839 -1.1542  1.3827 -0.9081
 9344TIP3    H249524   2.498   0.230   3.824 -0.1333  3.5203  1.1293
 9345TIP3   OH249525   2.280   3.648   0.031 -0.1168  0.1650  0.4891
 9345TIP3    H149526   2.314   3.720  -0.022  1.6883  0.4149  1.9214
 9345TIP3    H249527   2.308   3.569  -0.015  0.7467  0.3866  0.6166
 9346TIP3   OH249528   0.589   3.506  16.115 -0.2255 -0.1605  0.0860
 9346TIP3    H149529   0.671   3.524  16.163 -0.0893 -2.1776  0.6388
 9346TIP3    H249530   0.583   3.577  16.051  0.8687  1.2045  1.4593
 9347TIP3   OH249531   2.003   6.083  11.148 -0.5913 -0.5675 -0.0710
 9347TIP3    H149532   1.985   6.131  11.068  0.4279 -0.6688 -0.3754
 9347TIP3    H249533   1.982   6.144  11.219  3.8447  1.6086 -0.4529
 9348TIP3   OH249534   3.273   6.589   0.051 -0.3057 -0.7153 -0.5856
 9348TIP3    H149535   3.220   6.549  -0.017 -0.6115 -0.5898 -0.4248
 9348TIP3    H249536   3.262   6.532   0.127 -0.0318 -0.8113 -0.6173
 9349TIP3   OH249537   3.943   0.429   4.608  0.4946  0.0174 -0.4161
 9349TIP3    H149538   3.920   0.374   4.533  1.1848  1.7517 -1.9455
 9349TIP3    H249539   3.988   0.369   4.668 -1.3662 -1.7198 -0.6960
 9350TIP3   OH249540   1.314   0.999  15.776  0.2990  0.3457  0.8030
 9350TIP3    H149541   1.230   1.038  15.801  0.8912  1.5084  1.0031
 9350TIP3    H249542   1.375   1.029  15.843  1.2436  0.9235 -0.3011
 9351TIP3   OH249543   2.878   0.548   5.783 -0.2976 -0.3797  0.5054
 9351TIP3    H149544   2.850   0.578   5.870  0.7382  1.7422  0.1491
 9351TIP3    H249545   2.968   0.578   5.775 -0.0806 -1.3595 -0.9630
 9352TIP3   OH249546   5.140   4.146  16.501 -0.6318 -0.3910  0.1887
 9352TIP3    H149547   5.213   4.162  16.561 -0.9952  2.0469  0.0434
 9352TIP3    H249548   5.179   4.144  16.414 -0.5354 -0.6500  0.2382
 9353TIP3   OH249549   5.868   2.511   4.674  0.5291  0.0264  1.0659
 9353TIP3    H149550   5.783   2.519   4.716  1.0484  0.5133  2.0414
 9353TIP3    H249551   5.898   2.423   4.697  0.9074  0.3713  1.9035
 9354TIP3   OH249552   5.038   1.662   3.982  0.1649  0.0738  0.4644
 9354TIP3    H149553   4.983   1.645   3.905 -1.2399  2.4907  0.8525
 9354TIP3    H249554   5.000   1.609   4.051 -1.5043  1.4259  0.6234
 9355TIP3   OH249555   4.119   0.799   5.568  0.0803 -0.0756 -0.1750
 9355TIP3    H149556   4.181   0.861   5.529  0.3629 -0.6188 -0.5951
 9355TIP3    H249557   4.050   0.789   5.502  0.9748 -1.6278 -0.8992
 9356TIP3   OH249558   0.464   0.725  14.457  0.1734 -0.2173 -0.1024
 9356TIP3    H149559   0.384   0.672  14.456 -0.6117  0.8821  1.8539
 9356TIP3    H249560   0.439   0.807  14.414  0.2658  0.1121  0.4739
 9357TIP3   OH249561   5.722   2.121  11.312 -0.5813 -0.0743 -0.5497
 9357TIP3    H149562   5.652   2.059  11.290 -0.6516 -0.5166  0.9269
 9357TIP3    H249563   5.733   2.113  11.406  1.7426 -0.2767 -0.8286
 9358TIP3   OH249564   6.619   4.405   1.158 -0.0350 -0.0534 -0.4301
 9358TIP3    H149565   6.656   4.317   1.172 -2.1408 -1.1051 -1.2818
 9358TIP3    H249566   6.528   4.389   1.134 -0.5547  2.4085 -0.1950
 9359TIP3   OH249567   1.366   0.332   0.519 -0.4270 -0.1608  0.2350
 9359TIP3    H149568   1.462   0.326   0.528 -0.5567 -0.7789  1.2613
 9359TIP3    H249569   1.343   0.412   0.565 -0.2555  0.7869 -1.2835
 9360TIP3   OH249570   0.565   5.983  13.506 -0.2655  0.4507 -0.2370
 9360TIP3    H149571   0.492   5.945  13.555 -1.2053  0.5235 -1.5511
 9360TIP3    H249572   0.598   6.053  13.563  0.0463 -0.8614  1.2208
 9361TIP3   OH249573   3.297   5.533  14.499  0.3328 -0.3109 -0.1188
 9361TIP3    H149574   3.229   5.466  14.509  0.1453 -0.2264 -0.8087
 9361TIP3    H249575   3.264   5.609  14.546  1.1282 -1.1116  1.8135
 9362TIP3   OH249576   3.784   2.755   4.123  0.1039  0.2118  0.1043
 9362TIP3    H149577   3.846   2.812   4.169  0.4953  1.7729 -2.2827
 9362TIP3    H249578   3.819   2.667   4.134  0.1832  0.5488  2.7664
 9363TIP3   OH249579   4.538   6.017  14.451  0.3684  0.4115 -0.4305
 9363TIP3    H149580   4.544   5.970  14.368  4.1048 -1.5107  0.7869
 9363TIP3    H249581   4.579   6.101  14.434  0.8926  0.1231 -0.6258
 9364TIP3   OH249582   2.109   5.414  13.135 -0.4973 -0.3533  0.3943
 9364TIP3    H149583   2.116   5.338  13.077  1.4194 -1.4070  1.9766
 9364TIP3    H249584   2.084   5.378  13.220  0.6214  0.7605  1.2119
 9365TIP3   OH249585   5.057   6.042  12.003 -0.1745 -0.1980  0.2017
 9365TIP3    H149586   5.128   6.096  11.968 -0.1508  1.3465  2.4864
 9365TIP3    H249587   4.977   6.090  11.983 -0.4348 -1.0100 -0.7299
 9366TIP3   OH249588   5.455   0.682   1.933 -0.2773 -0.4394  0.5293
 9366TIP3    H149589   5.514   0.691   1.858  0.6654  1.3515  1.4551
 9366TIP3    H249590   5.494   0.613   1.987 -0.2157 -0.7767  0.0508
 9367TIP3   OH249591   2.647   4.490  13.014 -0.0823 -0.1969  0.3607
 9367TIP3    H149592   2.661   4.519  12.924 -1.8501 -2.4675 -0.7182
 9367TIP3    H249593   2.582   4.551  13.049 -0.1671  0.0723 -0.2553
 9368TIP3   OH249594   1.601   4.084  17.144 -0.2304  0.7198  0.5269
 9368TIP3    H149595   1.609   4.172  17.108 -0.0783  1.2679  1.8540
 9368TIP3    H249596   1.507   4.065  17.140 -0.1879  0.6980 -0.3311
 9369TIP3   OH249597   0.710   4.506  13.958  0.2328 -0.1951 -0.2734
 9369TIP3    H149598   0.619   4.478  13.963  0.5563 -1.2236  0.1118
 9369TIP3    H249599   0.730   4.506  13.864 -0.1832  0.0907 -0.3604
 9370TIP3   OH249600   2.135   0.035   4.553  0.2288  0.1405 -0.5621
 9370TIP3    H149601   2.094   0.096   4.613 -0.4262 -0.7604 -0.0880
 9370TIP3    H249602   2.118   0.071   4.466 -0.8742  0.1965 -0.3259
 9371TIP3   OH249603   6.184   1.727   1.783 -0.7830  0.1888  0.4044
 9371TIP3    H149604   6.232   1.763   1.858  2.9559  0.2420 -1.8828
 9371TIP3    H249605   6.224   1.641   1.767  0.0362  1.0891 -2.8197
 9372TIP3   OH249606   1.183   0.757   2.922  0.1494 -0.0911 -0.0262
 9372TIP3    H149607   1.254   0.720   2.974  1.6342 -0.2165 -2.0995
 9372TIP3    H249608   1.187   0.710   2.838 -1.9637  0.3447 -0.4007
 9373TIP3   OH249609   4.680   5.634  11.468  0.2884  0.2739  0.7488
 9373TIP3    H149610   4.636   5.660  11.387 -0.0614  0.8982  1.1359
 9373TIP3    H249611   4.610   5.604  11.525  0.6667 -1.3338  0.3927
 9374TIP3   OH249612   6.284   0.900   3.346  0.1899  0.6164  0.3526
 9374TIP3    H149613   6.377   0.879   3.335  0.2526  0.2560  1.5985
 9374TIP3    H249614   6.266   0.962   3.275  1.4505  0.8953  0.2583
 9375TIP3   OH249615   3.623   3.551   3.714 -0.6396 -0.7411  0.9271
 9375TIP3    H149616   3.542   3.588   3.748 -0.5983  0.6654 -0.4231
 9375TIP3    H249617   3.656   3.495   3.784 -2.0730 -0.2628  2.0031
 9376TIP3   OH249618   4.599   6.304   3.453 -0.1837  0.5967 -0.2596
 9376TIP3    H149619   4.558   6.385   3.421 -0.7405  1.1799  1.8228
 9376TIP3    H249620   4.643   6.331   3.534 -0.3154 -1.1610  0.4104
 9377TIP3   OH249621   4.979   5.459   0.651 -0.3949 -0.0484 -0.4776
 9377TIP3    H149622   4.892   5.420   0.651 -0.9792  1.2037 -1.5716
 9377TIP3    H249623   4.964   5.552   0.634  1.0728  0.4055  0.5246
 9378TIP3   OH249624   0.255   3.571   0.406  0.9026  0.0803 -0.5207
 9378TIP3    H149625   0.348   3.551   0.405  1.1362  1.0884  0.2274
 9378TIP3    H249626   0.226   3.555   0.316  1.6989 -0.6661 -0.6505
 9379TIP3   OH249627   5.901   5.533  14.538  0.1348  0.3415  0.4305
 9379TIP3    H149628   5.895   5.610  14.595 -1.8900  0.1524  0.5087
 9379TIP3    H249629   5.842   5.553  14.465 -0.2743 -1.0547  0.3676
 9380TIP3   OH249630   0.004   5.126  15.153  0.0991 -0.3661 -0.5072
 9380TIP3    H149631  -0.004   5.222  15.154 -1.7378 -0.4791 -1.6176
 9380TIP3    H249632  -0.006   5.103  15.060 -0.7961 -1.7114 -0.0827
 9381TIP3   OH249633   6.615   1.764  13.887 -0.8470 -0.4901 -0.5565
 9381TIP3    H149634   6.645   1.696  13.826  2.1518  0.8797 -0.7170
 9381TIP3    H249635   6.550   1.814  13.837 -0.0718 -0.7608 -1.8707
 9382TIP3   OH249636   3.239   6.362   5.662 -0.2402  0.0616 -0.1121
 9382TIP3    H149637   3.263   6.301   5.592  1.9892  1.6258 -0.7602
 9382TIP3    H249638   3.280   6.325   5.741  1.4752  0.9123 -0.5844
 9383TIP3   OH249639   1.978   3.688   1.856  0.0928 -0.0831  0.0888
 9383TIP3    H149640   2.064   3.672   1.897  0.3294  0.2378 -0.2788
 9383TIP3    H249641   1.995   3.679   1.762 -0.6673 -1.8615  0.0994
 9384TIP3   OH249642   0.640   3.060   1.227  0.5199  0.1871  0.0811
 9384TIP3    H149643   0.654   3.100   1.313  0.7827  1.7497 -0.6775
 9384TIP3    H249644   0.693   2.980   1.229  2.2295  1.3058  0.6037
 9385TIP3   OH249645   2.087   3.055  11.727 -0.4917  0.1406 -0.7094
 9385TIP3    H149646   2.033   2.976  11.719  0.0776 -0.3725  0.4411
 9385TIP3    H249647   2.031   3.119  11.771 -0.9925  0.4241 -1.7470
 9386TIP3   OH249648   6.220   4.197  13.834  0.4411 -0.0953 -0.2861
 9386TIP3    H149649   6.178   4.276  13.868 -3.0959 -1.0540 -2.2045
 9386TIP3    H249650   6.257   4.224  13.750 -0.0101 -0.2553 -0.5381
 9387TIP3   OH249651   5.703   0.019   1.871 -0.1228  0.1771  0.7106
 9387TIP3    H149652   5.737  -0.064   1.838 -0.4950  0.0667  0.5973
 9387TIP3    H249653   5.621  -0.004   1.914 -1.2673  0.7472 -1.1035
 9388TIP3   OH249654   1.861   2.290  12.744  0.3068 -0.6332 -0.1755
 9388TIP3    H149655   1.909   2.207  12.747  1.8996  0.2276 -0.8176
 9388TIP3    H249656   1.787   2.273  12.686  0.6412 -1.5941 -0.3289
 9389TIP3   OH249657   0.382   6.697  12.359  0.4245  0.8754 -0.1373
 9389TIP3    H149658   0.320   6.626  12.376 -1.8594  2.7345 -0.5416
 9389TIP3    H249659   0.367   6.722  12.268  1.7669  1.3444 -0.2411
 9390TIP3   OH249660   1.795   1.753  15.817 -0.0179  0.7274 -0.1504
 9390TIP3    H149661   1.738   1.827  15.837 -3.2914 -1.6284 -0.2431
 9390TIP3    H249662   1.768   1.726  15.729  1.7967  0.0019 -0.5013
 9391TIP3   OH249663   0.211   5.575   4.121  0.1774 -0.5020 -0.1355
 9391TIP3    H149664   0.196   5.657   4.074 -1.7820  0.0936  1.4679
 9391TIP3    H249665   0.167   5.587   4.205  0.5412 -2.9050  0.4302
 9392TIP3   OH249666   4.389   2.810  16.060 -0.8209 -0.6504 -0.6686
 9392TIP3    H149667   4.384   2.875  15.991 -2.7703  0.0373  0.0749
 9392TIP3    H249668   4.306   2.820  16.108 -0.7985 -3.1038 -0.0489
 9393TIP3   OH249669   6.302   4.504   4.679  0.4071  0.5684 -0.2149
 9393TIP3    H149670   6.387   4.482   4.642  1.3162  1.7996  1.0788
 9393TIP3    H249671   6.281   4.431   4.738  0.3473  0.0552 -0.8665
 9394TIP3   OH249672   1.987   5.989  13.792  0.0035  0.2964 -0.0858
 9394TIP3    H149673   1.978   6.084  13.800 -1.1515  0.1642  0.2882
 9394TIP3    H249674   1.904   5.960  13.756  1.0767 -0.3668 -2.0966
 9395TIP3   OH249675   2.677   4.682  11.237  0.6307  0.0945 -0.0086
 9395TIP3    H149676   2.651   4.648  11.151  0.8429  0.9387 -0.4057
 9395TIP3    H249677   2.608   4.744  11.259  0.6033 -0.0850  0.4147
 9396TIP3   OH249678   1.928   0.262  12.218  0.3939  0.2258 -0.1012
 9396TIP3    H149679   1.977   0.326  12.270  1.5642 -0.4392 -0.3685
 9396TIP3    H249680   1.889   0.203  12.283  0.2875  0.5136  0.0983
 9397TIP3   OH249681   2.165   3.278   4.530  0.3351 -0.6308 -0.4100
 9397TIP3    H149682   2.156   3.371   4.508  1.3732 -0.7220 -1.2515
 9397TIP3    H249683   2.078   3.253   4.562  0.1367  0.7062  0.1504
 9398TIP3   OH249684   3.315   2.572  11.238  0.3370  0.3040  0.0641
 9398TIP3    H149685   3.376   2.569  11.313  0.2026  2.1682  0.2657
 9398TIP3    H249686   3.372   2.583  11.162  0.2878  1.9421  0.2429
 9399TIP3   OH249687   1.277   2.543   6.229 -0.3266 -0.9090 -0.2624
 9399TIP3    H149688   1.193   2.529   6.272 -0.6455  1.0077 -0.1996
 9399TIP3    H249689   1.342   2.526   6.298 -0.7878  0.7154  0.6133
 9400TIP3   OH249690   6.739   4.270   0.654  0.2462  0.3273  0.2621
 9400TIP3    H149691   6.726   4.263   0.559  0.8886  0.6590  0.1493
 9400TIP3    H249692   6.790   4.350   0.666 -0.8581  0.9420  0.9909
 9401TIP3   OH249693   5.847   6.528   2.405  0.2106 -0.6231 -0.4291
 9401TIP3    H149694   5.756   6.534   2.435 -0.1331 -3.1683 -0.8663
 9401TIP3    H249695   5.872   6.438   2.423  2.5980  0.0078 -0.5111
 9402TIP3   OH249696   5.238   5.461   4.496  0.2002 -0.0290 -0.6665
 9402TIP3    H149697   5.184   5.506   4.431 -0.8548 -2.6678 -1.6714
 9402TIP3    H249698   5.310   5.424   4.445  0.6263 -0.1509  0.0243
 9403TIP3   OH249699   3.888   3.761  12.041 -0.1072 -0.4115 -0.2443
 9403TIP3    H149700   3.857   3.849  12.064 -2.7063 -1.0116 -1.2621
 9403TIP3    H249701   3.875   3.711  12.122  1.1591  0.0659  0.2672
 9404TIP3   OH249702   0.138   5.330   5.051 -0.2115 -0.0400 -0.4615
 9404TIP3    H149703   0.201   5.273   5.007  0.8893  1.4748 -0.8750
 9404TIP3    H249704   0.169   5.335   5.141 -0.7676 -0.7114 -0.2203
 9405TIP3   OH249705   1.893   4.979   1.269 -0.4676  0.1719 -0.3098
 9405TIP3    H149706   1.828   5.003   1.336 -0.2898  1.6036 -0.6370
 9405TIP3    H249707   1.841   4.940   1.199 -1.2878  3.2830 -1.5166
 9406TIP3   OH249708   0.381   4.473   2.945  0.4411  0.7564  0.3827
 9406TIP3    H149709   0.342   4.496   3.029  0.2030  0.1609  0.4422
 9406TIP3    H249710   0.475   4.489   2.956  0.5486 -0.2844  1.0992
 9407TIP3   OH249711   0.254   2.721  16.732  0.0910  0.1856  0.4656
 9407TIP3    H149712   0.202   2.785  16.683  0.2642  0.1503  0.2330
 9407TIP3    H249713   0.273   2.652  16.669 -0.1619 -0.1312  0.7365
 9408TIP3   OH249714   1.194   2.851   4.451  0.4733  0.2470 -0.5664
 9408TIP3    H149715   1.134   2.778   4.437  0.8496 -0.0580 -0.6046
 9408TIP3    H249716   1.281   2.812   4.443  0.6759  0.8136 -1.1796
 9409TIP3   OH249717   5.692   0.774  14.940 -0.3615 -0.4021 -0.2566
 9409TIP3    H149718   5.663   0.863  14.919 -1.2841  0.0923  2.8867
 9409TIP3    H249719   5.617   0.719  14.918 -1.3521  0.1213  1.6492
 9410TIP3   OH249720   6.680   3.716  16.440  0.3101  0.7081 -0.3119
 9410TIP3    H149721   6.598   3.673  16.464  0.7809  0.6408  1.2540
 9410TIP3    H249722   6.653   3.791  16.386 -0.8771  1.2928  1.0321
 9411TIP3   OH249723   1.145   3.719  15.331 -0.4199  0.8553  0.2474
 9411TIP3    H149724   1.169   3.628  15.311 -1.1252  0.9785 -1.2819
 9411TIP3    H249725   1.144   3.723  15.426  0.5615 -0.4950  0.3365
 9412TIP3   OH249726   2.525   5.383   1.724 -0.2446 -1.0142  0.2774
 9412TIP3    H149727   2.516   5.334   1.806 -1.6284 -0.4102  0.4886
 9412TIP3    H249728   2.619   5.379   1.705  0.0750 -1.2861  1.8081
 9413TIP3   OH249729   2.279   5.110  13.006 -0.1138  0.6679 -0.4699
 9413TIP3    H149730   2.210   5.091  13.070  0.7037  0.5780  0.4049
 9413TIP3    H249731   2.359   5.077  13.048  0.7420  2.4842 -0.6535
 9414TIP3   OH249732   2.310   5.102  17.035  0.0163 -0.0230  0.0706
 9414TIP3    H149733   2.265   5.017  17.034 -2.0960  1.0803 -0.3933
 9414TIP3    H249734   2.379   5.093  16.969  0.9159 -1.9298  1.1999
 9415TIP3   OH249735   0.232   0.064   3.198  0.4660  0.1873  0.2476
 9415TIP3    H149736   0.184   0.025   3.125  0.9028  2.6825 -1.4090
 9415TIP3    H249737   0.321   0.028   3.190  0.7544  1.1268 -1.0277
 9416TIP3   OH249738   4.551   6.058   3.907  0.1608  0.4501  0.6492
 9416TIP3    H149739   4.535   5.965   3.892  0.2582  0.4679  0.4229
 9416TIP3    H249740   4.478   6.102   3.863 -0.4149  0.4446  1.5936
 9417TIP3   OH249741   5.327   3.019  13.275  0.1696 -0.2503 -0.0610
 9417TIP3    H149742   5.304   3.069  13.353  2.7188  1.2537 -0.2219
 9417TIP3    H249743   5.361   2.936  13.308  0.6129  0.1165  0.3993
 9418TIP3   OH249744   4.379   4.646   4.432  0.2238 -0.0237 -0.0426
 9418TIP3    H149745   4.426   4.603   4.360  1.2337 -0.0817  0.6407
 9418TIP3    H249746   4.335   4.720   4.390 -1.0201 -1.3368 -1.1070
 9419TIP3   OH249747   0.888   3.055  10.859 -0.1610 -0.2809 -0.1773
 9419TIP3    H149748   0.826   2.984  10.874 -1.5070  0.8241 -0.3855
 9419TIP3    H249749   0.916   3.043  10.768  0.5165 -1.2334  0.1542
 9420TIP3   OH249750   1.885   3.971   1.034  0.2734  0.0347  0.4085
 9420TIP3    H149751   1.848   3.883   1.043  0.4875 -0.0893  0.0921
 9420TIP3    H249752   1.827   4.016   0.972  0.6670 -0.1689 -0.1095
 9421TIP3   OH249753   6.767   3.176   5.869  0.3452  0.3177  0.2689
 9421TIP3    H149754   6.780   3.097   5.920  0.2160  0.0627 -0.0917
 9421TIP3    H249755   6.782   3.150   5.778  0.8521  0.8317  0.1985
 9422TIP3   OH249756   3.614   0.400  12.042  0.5905 -0.8099  0.2241
 9422TIP3    H149757   3.548   0.371  12.105  1.0955 -2.0036  0.2164
 9422TIP3    H249758   3.620   0.328  11.978  2.5038 -1.1084  0.7114
 9423TIP3   OH249759   6.736   5.921   1.311 -0.1189 -0.0964 -0.0411
 9423TIP3    H149760   6.812   5.864   1.300 -0.6990 -0.5904 -1.4822
 9423TIP3    H249761   6.731   5.971   1.230  0.3698  2.0394  1.1783
 9424TIP3   OH249762   1.505   4.210  15.299 -0.3022  0.3506 -0.8819
 9424TIP3    H149763   1.556   4.143  15.344 -1.9249 -0.3726 -0.1126
 9424TIP3    H249764   1.506   4.183  15.207 -1.7700 -1.2888 -0.4444
 9425TIP3   OH249765   5.144   6.121   2.510 -0.2547  0.0451  0.1976
 9425TIP3    H149766   5.056   6.094   2.482  0.0075  0.7418 -1.3754
 9425TIP3    H249767   5.149   6.213   2.486  0.7123  0.1444  0.7867
 9426TIP3   OH249768   0.539   5.592   2.907  0.8174 -0.3877  0.7410
 9426TIP3    H149769   0.601   5.524   2.879 -1.5089 -2.0058 -0.7170
 9426TIP3    H249770   0.539   5.586   3.003  0.8678 -2.2825  0.6546
 9427TIP3   OH249771   6.129   1.104  13.408 -0.9091  0.2762 -0.2041
 9427TIP3    H149772   6.118   1.090  13.502 -2.0670  0.4458 -0.3102
 9427TIP3    H249773   6.067   1.043  13.367 -0.3248  0.1203 -0.8611
 9428TIP3   OH249774   1.072   6.631   0.877  0.1522 -0.1755  0.3487
 9428TIP3    H149775   1.114   6.699   0.929 -1.1091  0.9586 -0.0862
 9428TIP3    H249776   1.144   6.576   0.845  1.3188  1.9451 -0.7108
 9429TIP3   OH249777   0.796   6.477  12.109  0.3170 -1.1215 -0.0141
 9429TIP3    H149778   0.721   6.482  12.168 -0.6373 -0.1092 -1.2745
 9429TIP3    H249779   0.765   6.425  12.035 -0.0009  1.4227 -1.7209
 9430TIP3   OH249780   4.142   4.353  15.937 -0.1501  0.2060 -0.1033
 9430TIP3    H149781   4.139   4.315  16.025 -0.8521  1.5698  0.4883
 9430TIP3    H249782   4.051   4.350  15.907  0.4856 -2.7401 -1.9110
 9431TIP3   OH249783   5.588   4.863   4.325  0.3087 -0.0695 -0.0049
 9431TIP3    H149784   5.601   4.951   4.290  0.9306 -0.1069  0.1224
 9431TIP3    H249785   5.603   4.872   4.419  0.1578 -0.2696  0.0393
 9432TIP3   OH249786   2.041   3.465  16.977 -0.1881 -0.1767  0.0064
 9432TIP3    H149787   2.025   3.438  16.887 -0.1530  0.0264 -0.0610
 9432TIP3    H249788   2.129   3.503  16.975 -0.2846  0.0485  0.0762
 9433TIP3   OH249789   6.208   0.626   6.985  0.0748 -0.4424 -0.6574
 9433TIP3    H149790   6.271   0.578   7.039  0.5646  0.3734 -0.4885
 9433TIP3    H249791   6.124   0.583   7.001  0.5041 -1.2125 -0.4831
 9434TIP3   OH249792   2.573   0.218  16.452 -0.0426 -0.2252 -0.3034
 9434TIP3    H149793   2.587   0.126  16.475 -1.9476 -0.3496  0.4324
 9434TIP3    H249794   2.616   0.268  16.522 -2.1544 -0.5886  1.2869
 9435TIP3   OH249795   1.997   4.144  13.591 -0.0720 -0.0724 -0.0812
 9435TIP3    H149796   1.907   4.119  13.615 -0.5521  0.2538 -1.5185
 9435TIP3    H249797   2.018   4.089  13.516  1.2634 -0.7631  0.7829
 9436TIP3   OH249798   3.842   3.346   4.570  0.2435 -0.1110 -0.0935
 9436TIP3    H149799   3.887   3.381   4.493 -2.2068  1.4549 -0.8563
 9436TIP3    H249800   3.910   3.346   4.638  1.6619  1.3207 -1.4362
 9437TIP3   OH249801   1.705   1.423   1.982  0.4908 -0.1105  0.5498
 9437TIP3    H149802   1.755   1.342   1.989 -0.7052 -0.9924 -0.7202
 9437TIP3    H249803   1.622   1.396   1.942 -0.4668  1.5230  1.3624
 9438TIP3   OH249804   4.757   6.141  15.511  0.3808  0.3301  0.2505
 9438TIP3    H149805   4.737   6.051  15.485  1.1125 -0.1194  1.2067
 9438TIP3    H249806   4.827   6.168  15.453  1.0688 -0.1870  0.8361
 9439TIP3   OH249807   1.991   3.641  15.743  0.1694  0.2148  0.1936
 9439TIP3    H149808   1.926   3.606  15.803  0.5138 -0.0390  0.4224
 9439TIP3    H249809   2.030   3.563  15.703  0.5036  0.3569  0.2440
 9440TIP3   OH249810   3.056   3.363   1.475  0.0260  0.4772 -0.0789
 9440TIP3    H149811   3.147   3.335   1.489  0.0737  1.1138  0.8496
 9440TIP3    H249812   3.029   3.402   1.557 -0.8780  0.9126 -0.5734
 9441TIP3   OH249813   3.908   1.651   4.546 -0.6534  0.1656  0.0058
 9441TIP3    H149814   3.867   1.715   4.488  0.9836  0.1410 -1.2261
 9441TIP3    H249815   3.938   1.703   4.621 -0.0568  0.7108 -0.6047
 9442TIP3   OH249816   4.779   1.847  16.782  0.3636  0.0699 -0.1350
 9442TIP3    H149817   4.684   1.862  16.790  0.3205 -0.5561  0.5612
 9442TIP3    H249818   4.797   1.776  16.843  1.6420  1.6057  1.3309
 9443TIP3   OH249819   6.206   2.188   6.118  0.2144  0.3538  0.4662
 9443TIP3    H149820   6.189   2.282   6.122 -0.0391  0.3039  0.5842
 9443TIP3    H249821   6.294   2.178   6.155 -0.4871  0.3449  2.1766
 9444TIP3   OH249822   6.674   1.470   6.870 -0.3168  0.2383 -0.1337
 9444TIP3    H149823   6.753   1.524   6.877  0.9911 -1.6939  0.4883
 9444TIP3    H249824   6.617   1.503   6.939 -0.0621  1.6295 -0.5596
 9445TIP3   OH249825   0.619   3.260   3.699  0.4137  0.2103  0.1959
 9445TIP3    H149826   0.666   3.272   3.617  0.4496 -4.0604 -0.5532
 9445TIP3    H249827   0.535   3.303   3.685  0.9106  0.6321 -1.6029
 9446TIP3   OH249828   6.225   4.119   4.301 -0.2676 -0.3630  0.3838
 9446TIP3    H149829   6.269   4.136   4.217  0.0904  0.9672  0.8349
 9446TIP3    H249830   6.220   4.024   4.306  0.3755 -0.4702 -0.8115
 9447TIP3   OH249831   1.205   0.415   5.264  0.5609  0.3225  0.3276
 9447TIP3    H149832   1.250   0.363   5.197  1.0900  1.8081 -0.4980
 9447TIP3    H249833   1.274   0.439   5.326  0.2717 -0.1542  0.8379
 9448TIP3   OH249834   6.091   6.231  16.908  0.1263  0.4818  0.0376
 9448TIP3    H149835   6.002   6.221  16.942  0.4096 -1.1711  0.3209
 9448TIP3    H249836   6.107   6.151  16.859  1.5659  0.6530  0.2129
 9449TIP3   OH249837   4.273   0.813   5.820  0.1989 -0.2826  0.1281
 9449TIP3    H149838   4.211   0.745   5.846  0.3758 -0.6801 -0.4832
 9449TIP3    H249839   4.234   0.852   5.742  0.4502 -0.1631  0.0639
 9450TIP3   OH249840   6.095   1.728   0.706  0.2912 -0.3857  0.1843
 9450TIP3    H149841   6.110   1.639   0.740 -0.6532 -0.0451  1.5409
 9450TIP3    H249842   6.026   1.718   0.640  3.1490 -1.2759 -2.8040
 9451TIP3   OH249843   5.043   1.589   3.393  0.3203 -0.3443  0.4695
 9451TIP3    H149844   4.986   1.633   3.331  0.5656 -0.3629  0.2317
 9451TIP3    H249845   4.987   1.570   3.468  0.0601 -0.1991  0.3107
 9452TIP3   OH249846   3.613   3.346   2.721 -0.1661  0.4188  0.2671
 9452TIP3    H149847   3.708   3.356   2.727 -0.1531  0.3221  0.2262
 9452TIP3    H249848   3.600   3.265   2.672 -0.2599 -0.2069  1.3225
 9453TIP3   OH249849   4.296   3.293   2.700 -1.0294  0.6670 -0.1478
 9453TIP3    H149850   4.244   3.373   2.711 -0.2476  1.1497  0.1545
 9453TIP3    H249851   4.387   3.323   2.710 -0.7553 -0.3333  0.4223
 9454TIP3   OH249852   0.837   2.214   0.160 -0.2619  0.4719  0.1683
 9454TIP3    H149853   0.931   2.228   0.173 -0.2768  2.0264 -1.1374
 9454TIP3    H249854   0.810   2.161   0.234  2.0092 -1.6250 -0.4313
 9455TIP3   OH249855   2.129   1.782  11.790  0.1170 -0.3379 -0.4644
 9455TIP3    H149856   2.160   1.692  11.779 -1.3590 -0.7594 -1.3949
 9455TIP3    H249857   2.159   1.827  11.712 -0.7234 -0.4948 -0.8832
 9456TIP3   OH249858   2.190   5.999   1.561  0.1238 -0.8896  0.0043
 9456TIP3    H149859   2.215   6.075   1.508 -0.1261 -0.9749 -0.2383
 9456TIP3    H249860   2.217   6.022   1.650  0.7613 -0.8468 -0.2002
 9457TIP3   OH249861   2.885   1.297  16.873  0.3370 -0.2774 -0.0488
 9457TIP3    H149862   2.805   1.273  16.825 -0.5395  0.4832  1.0068
 9457TIP3    H249863   2.900   1.223  16.932 -0.1391  0.0036  0.4285
 9458TIP3   OH249864   4.720   6.760   2.313  0.2316  0.0861 -0.3362
 9458TIP3    H149865   4.782   6.802   2.253  1.8491 -1.9720 -0.1868
 9458TIP3    H249866   4.740   6.667   2.306 -0.6738 -0.3316  2.1625
 9459TIP3   OH249867   4.344   1.166  16.125 -0.2287 -0.0250  0.3602
 9459TIP3    H149868   4.311   1.220  16.053  1.9233  0.5928 -0.2237
 9459TIP3    H249869   4.353   1.227  16.198  1.6526  0.3150 -0.1292
 9460TIP3   OH249870   2.503   3.791   0.659 -0.7415  0.3644  0.4078
 9460TIP3    H149871   2.440   3.855   0.692 -0.2119 -0.0173  2.2361
 9460TIP3    H249872   2.584   3.810   0.707  0.1828  0.0464 -1.0021
 9461TIP3   OH249873   2.205   4.613   3.518 -0.2167 -0.0936 -0.0055
 9461TIP3    H149874   2.125   4.638   3.564 -1.0752  1.0636 -2.0145
 9461TIP3    H249875   2.174   4.585   3.432  1.5687  0.9951 -1.0394
 9462TIP3   OH249876   0.894   0.130   4.279 -0.1670  0.2520  0.2904
 9462TIP3    H149877   0.922   0.191   4.348 -2.3274  0.7168  0.7830
 9462TIP3    H249878   0.846   0.062   4.326 -1.3692  0.3924 -0.7302
 9463TIP3   OH249879   0.283   3.713   2.180 -0.2913 -0.1888  0.1387
 9463TIP3    H149880   0.289   3.718   2.085  0.8319  0.9439  0.2480
 9463TIP3    H249881   0.256   3.624   2.198 -1.3064 -0.1792 -1.2820
 9464TIP3   OH249882   2.342   6.339  15.032  0.1429 -0.0302 -0.0874
 9464TIP3    H149883   2.344   6.308  14.941 -0.9952 -1.4194  0.3349
 9464TIP3    H249884   2.293   6.271  15.079  1.6407  0.1237  1.7741
 9465TIP3   OH249885   6.742   4.609   3.577  0.4126  0.3142  0.4415
 9465TIP3    H149886   6.675   4.647   3.520  0.4333 -2.0905 -1.2533
 9465TIP3    H249887   6.692   4.573   3.651  0.1789  1.5137  0.8802
 9466TIP3   OH249888   0.829   3.423  15.209  0.5618  0.2421  0.0121
 9466TIP3    H149889   0.741   3.426  15.249  0.2585  1.0414 -0.7084
 9466TIP3    H249890   0.812   3.425  15.115  1.4527  3.4790 -0.1306
 9467TIP3   OH249891   1.378   0.725   0.180  0.1015  0.2809 -0.5331
 9467TIP3    H149892   1.420   0.639   0.179 -0.4096  0.0302 -1.5645
 9467TIP3    H249893   1.287   0.707   0.155 -0.6460  0.8032  1.7505
 9468TIP3   OH249894   4.441   0.213   0.650  0.3229 -0.0151 -0.5602
 9468TIP3    H149895   4.445   0.245   0.560  1.1546  3.9170  0.7926
 9468TIP3    H249896   4.405   0.286   0.700 -0.1725 -2.1543  2.3166
 9469TIP3   OH249897   1.188   3.023   1.298  0.2416 -0.5124 -0.8984
 9469TIP3    H149898   1.148   3.074   1.369  1.1304 -0.8363 -0.1402
 9469TIP3    H249899   1.142   3.051   1.219 -0.5067  0.1427 -0.2441
 9470TIP3   OH249900   0.687   5.637  10.902 -0.2718 -0.7236 -0.1576
 9470TIP3    H149901   0.776   5.614  10.929  0.0343  0.8510  0.2071
 9470TIP3    H249902   0.675   5.590  10.819  1.4192  0.1296 -0.9222
 9471TIP3   OH249903   2.176   0.410  11.316 -0.0252 -0.4591  0.1626
 9471TIP3    H149904   2.163   0.491  11.366  4.4417  0.7525 -0.4331
 9471TIP3    H249905   2.134   0.427  11.232 -1.1993  0.2971  0.8860
 9472TIP3   OH249906   6.098   3.464  13.829  0.4463  0.1273  0.0860
 9472TIP3    H149907   6.115   3.401  13.759 -0.9826 -0.7200  0.4761
 9472TIP3    H249908   6.054   3.414  13.897 -0.6396  1.5015  0.4355
 9473TIP3   OH249909   6.114   1.075   1.767 -0.0356  0.1658  0.1358
 9473TIP3    H149910   6.025   1.056   1.737  0.0159 -1.4304  0.9270
 9473TIP3    H249911   6.103   1.147   1.829 -0.6803  0.5012 -0.3568
 9474TIP3   OH249912   0.322   4.304   5.569  1.0982  0.1187 -0.0964
 9474TIP3    H149913   0.390   4.239   5.582 -1.3265 -2.5196  0.0224
 9474TIP3    H249914   0.301   4.335   5.657  2.0885  0.9316 -0.1331
 9475TIP3   OH249915   0.073   2.875  16.205  0.7401 -0.2480 -0.1283
 9475TIP3    H149916   0.087   2.939  16.136  0.0565 -0.3323 -0.3507
 9475TIP3    H249917   0.136   2.806  16.187  0.9438 -0.0082 -0.3417
 9476TIP3   OH249918   4.729   3.809   4.426 -0.3306 -0.5584  0.1197
 9476TIP3    H149919   4.817   3.826   4.393 -0.3713  1.7239  1.1320
 9476TIP3    H249920   4.719   3.714   4.420  0.8306 -0.5344 -3.4387
 9477TIP3   OH249921   2.795   3.415  14.423 -0.2301 -0.4044 -0.1979
 9477TIP3    H149922   2.716   3.365  14.403 -0.2319 -0.1108 -0.9313
 9477TIP3    H249923   2.779   3.501  14.385 -0.3751  0.2822  1.3706
 9478TIP3   OH249924   5.382   6.491   3.666 -0.5665 -0.1049 -0.1841
 9478TIP3    H149925   5.416   6.550   3.598  0.8452  1.1103  1.5168
 9478TIP3    H249926   5.457   6.435   3.688 -1.2942 -1.1365 -0.2935
 9479TIP3   OH249927   3.368   4.420   2.647  0.0224 -0.3771 -0.1736
 9479TIP3    H149928   3.459   4.391   2.650  0.1716  0.1294  0.2717
 9479TIP3    H249929   3.365   4.494   2.706 -0.9359 -1.1076  0.7100
 9480TIP3   OH249930   5.490   5.353  14.127 -0.2361  0.2412  0.1086
 9480TIP3    H149931   5.560   5.401  14.082  0.8848 -0.3253  1.2118
 9480TIP3    H249932   5.410   5.382  14.084  0.7051  0.5859 -1.4620
 9481TIP3   OH249933   6.559   0.978   0.777  1.2249 -0.2382 -0.1326
 9481TIP3    H149934   6.519   0.907   0.827  0.6500  0.3579  0.2705
 9481TIP3    H249935   6.546   0.954   0.686  0.3977 -0.3128 -0.0026
 9482TIP3   OH249936   2.776   5.670  12.835  0.3954  1.1243 -0.2997
 9482TIP3    H149937   2.778   5.580  12.867  0.4821  0.6470 -1.6047
 9482TIP3    H249938   2.796   5.723  12.912 -0.9574  0.1138  0.7767
 9483TIP3   OH249939   3.600   2.052   3.872  0.2039  0.4916  0.1386
 9483TIP3    H149940   3.690   2.060   3.903  0.5804  0.4909 -0.9435
 9483TIP3    H249941   3.607   2.044   3.777 -0.9842  1.3414 -0.0379
 9484TIP3   OH249942   3.425   1.087   0.605  0.1880  0.1341 -0.0291
 9484TIP3    H149943   3.343   1.118   0.644  0.1429  0.6965 -0.5683
 9484TIP3    H249944   3.491   1.103   0.672  0.0147  0.5748  0.0407
 9485TIP3   OH249945   5.249   2.128   5.379 -0.4799 -0.3812 -0.3820
 9485TIP3    H149946   5.318   2.110   5.443  0.0375 -0.6178 -1.0013
 9485TIP3    H249947   5.276   2.080   5.300 -0.8025  0.3897 -0.9718
 9486TIP3   OH249948   0.380   2.747  12.402  0.3059 -0.0603  0.5039
 9486TIP3    H149949   0.470   2.715  12.397  0.6098  1.0181 -1.3837
 9486TIP3    H249950   0.347   2.740  12.313 -1.9503 -1.6897  1.4164
 9487TIP3   OH249951   2.064   6.465  11.524  0.6406 -0.3499  0.5736
 9487TIP3    H149952   2.107   6.448  11.607  0.1276  0.6400  1.0574
 9487TIP3    H249953   2.015   6.546  11.539  0.7085 -0.0515 -0.7467
 9488TIP3   OH249954   0.322   1.428  14.935  0.2069  0.2574  0.7352
 9488TIP3    H149955   0.250   1.477  14.895  0.1906 -1.3591 -1.2760
 9488TIP3    H249956   0.282   1.384  15.010 -0.7552 -0.0685  0.0374
 9489TIP3   OH249957   4.098   0.324   3.131  0.0079  0.2262 -0.6416
 9489TIP3    H149958   4.041   0.387   3.175  0.6487  1.0416 -0.9788
 9489TIP3    H249959   4.166   0.304   3.196 -0.2840 -0.2547 -0.4754
 9490TIP3   OH249960   6.506   0.391  12.993  0.2129 -0.2877  0.3496
 9490TIP3    H149961   6.447   0.427  12.927  1.2637  0.0872 -0.4087
 9490TIP3    H249962   6.539   0.468  13.040  0.2142 -0.4815  0.6712
 9491TIP3   OH249963   6.088   2.103   1.471  0.4207  0.4181  0.4385
 9491TIP3    H149964   6.176   2.069   1.482 -0.1767 -1.5813 -0.6366
 9491TIP3    H249965   6.054   2.113   1.560  0.2695 -2.8651  0.8338
 9492TIP3   OH249966   2.641   4.180  12.816  0.0539  0.2880 -0.3445
 9492TIP3    H149967   2.560   4.164  12.865 -0.2761  0.1183 -0.9375
 9492TIP3    H249968   2.620   4.154  12.726  1.3534 -1.5839 -0.1330
 9493TIP3   OH249969   6.784   6.722   3.588 -0.3430  0.0624 -0.1880
 9493TIP3    H149970   6.781   6.795   3.526 -2.2914 -0.8951 -1.2358
 9493TIP3    H249971   6.711   6.738   3.648 -1.8130 -1.9059 -1.4270
 9494TIP3   OH249972   6.804   0.820  14.045  0.0040  0.2960 -0.0520
 9494TIP3    H149973   6.785   0.914  14.043 -2.3079 -0.1055  1.0911
 9494TIP3    H249974   6.783   0.790  13.956  0.1712  0.7617 -0.2481
 9495TIP3   OH249975   1.874   3.629   2.136 -0.8047 -0.8790 -0.6051
 9495TIP3    H149976   1.850   3.720   2.154 -0.9534 -1.0160 -0.0956
 9495TIP3    H249977   1.951   3.634   2.081 -1.5480 -0.4261 -1.6196
 9496TIP3   OH249978   4.612   0.452   1.924 -0.2497  0.1238  0.8457
 9496TIP3    H149979   4.700   0.485   1.908 -0.6730  1.1164  0.4967
 9496TIP3    H249980   4.581   0.422   1.839  0.2973 -1.6066  1.2464
 9497TIP3   OH249981   3.618   3.088  10.817 -0.1301 -0.1836 -0.6360
 9497TIP3    H149982   3.559   3.013  10.806 -1.5736  0.6544  1.0424
 9497TIP3    H249983   3.560   3.164  10.814  0.7588  0.6293  1.6634
 9498TIP3   OH249984   4.589   3.933  15.951  0.1237  0.2458  0.0045
 9498TIP3    H149985   4.497   3.910  15.941  0.4419 -0.8043 -0.5174
 9498TIP3    H249986   4.620   3.879  16.024  0.6230 -0.2852 -0.5910
 9499TIP3   OH249987   1.106   2.924  11.872  0.1673 -0.0676 -0.0421
 9499TIP3    H149988   1.038   2.863  11.900  1.3263 -0.7747  1.2980
 9499TIP3    H249989   1.125   2.900  11.781 -1.4870  0.2572 -0.4768
 9500TIP3   OH249990   1.555   4.425  10.962 -0.1215 -0.0060  0.1265
 9500TIP3    H149991   1.603   4.390  10.887  0.7879 -0.1240  0.7478
 9500TIP3    H249992   1.538   4.348  11.016 -0.5083  0.1212  0.1830
 9501TIP3   OH249993   1.901   1.917  14.550  0.0917 -0.7289  0.8223
 9501TIP3    H149994   1.839   1.909  14.622  0.2244  2.2092  1.3453
 9501TIP3    H249995   1.986   1.900  14.589  0.1088  0.3493  1.2771
 9502TIP3   OH249996   3.911   2.359  17.086 -0.2965  0.1110  0.5546
 9502TIP3    H149997   3.972   2.294  17.052 -1.9597 -1.0297 -0.3009
 9502TIP3    H249998   3.849   2.373  17.015  1.3382  4.4357 -0.2176
 9503TIP3   OH249999   1.977   0.076  14.710  0.4883 -0.0703  0.7081
 9503TIP3    H150000   1.996   0.008  14.775  0.1602 -0.2297  0.6367
 9503TIP3    H250001   1.882   0.088  14.714  0.0561 -2.2090 -1.8509
 9504TIP3   OH250002   1.986   0.732   4.717 -0.3232 -0.5251  0.1681
 9504TIP3    H150003   2.026   0.790   4.782 -1.0666  1.8376 -1.4430
 9504TIP3    H250004   1.892   0.736   4.737 -0.4466 -0.6547 -0.3962
 9505TIP3   OH250005   2.249   1.515  12.357 -0.2709 -0.5610  0.2902
 9505TIP3    H150006   2.278   1.517  12.265 -0.1934 -1.4907  0.2924
 9505TIP3    H250007   2.299   1.585  12.399 -0.5002  0.0463 -0.4326
 9506TIP3   OH250008   1.053   4.757   4.738 -0.1198  0.3117 -0.2815
 9506TIP3    H150009   1.111   4.680   4.737 -0.4962  0.0196  0.1739
 9506TIP3    H250010   0.995   4.742   4.812 -1.5603  0.0263 -1.4456
 9507TIP3   OH250011   2.445   0.066  13.148  0.4292  0.0457  0.1340
 9507TIP3    H150012   2.525   0.049  13.098  0.0448 -1.9001  0.1660
 9507TIP3    H250013   2.386  -0.005  13.124 -0.4689  0.1896  1.8504
 9508TIP3   OH250014   4.091   4.056   1.734  0.7274  0.2109  0.0182
 9508TIP3    H150015   4.035   4.060   1.811  0.5331  1.3299 -0.1818
 9508TIP3    H250016   4.076   4.138   1.688  0.7652 -0.4854 -1.2704
 9509TIP3   OH250017   0.733   4.495   5.651 -0.1330 -0.1441 -0.1630
 9509TIP3    H150018   0.683   4.529   5.725 -0.1370  1.4971 -0.8943
 9509TIP3    H250019   0.674   4.504   5.576 -0.0055 -1.4807 -0.4410
 9510TIP3   OH250020   1.333   3.612   0.537 -0.3434  0.4409  0.3836
 9510TIP3    H150021   1.392   3.583   0.468  0.2667  1.1802  0.5923
 9510TIP3    H250022   1.351   3.552   0.610 -0.4923  0.1026  0.1459
 9511TIP3   OH250023   0.059   1.672  17.256  0.3181  0.0947 -0.3246
 9511TIP3    H150024   0.040   1.626  17.175 -1.3129  0.7934 -0.3694
 9511TIP3    H250025   0.095   1.756  17.228 -1.1675  0.7316 -0.3662
 9512TIP3   OH250026   5.209   6.099  14.421  0.2987 -0.1642  0.2159
 9512TIP3    H150027   5.189   6.095  14.327  0.2814 -0.5353  0.2366
 9512TIP3    H250028   5.303   6.082  14.426  0.7538  2.0608  0.0802
 9513TIP3   OH250029   1.687   1.874  14.120  0.2289  0.3451 -0.3602
 9513TIP3    H150030   1.696   1.969  14.113 -0.9403  0.6509  1.7580
 9513TIP3    H250031   1.754   1.848  14.182 -0.7351  0.0639  0.5769
 9514TIP3   OH250032   6.231   3.863  15.591 -0.0395 -0.5677 -0.0439
 9514TIP3    H150033   6.212   3.858  15.497  0.6511  0.3720 -0.2463
 9514TIP3    H250034   6.326   3.874  15.596  0.0347 -1.4976  0.8097
 9515TIP3   OH250035   6.392   1.858  13.802  0.0859 -0.5686 -0.3267
 9515TIP3    H150036   6.320   1.921  13.807 -0.8631 -1.6965  0.3261
 9515TIP3    H250037   6.349   1.773  13.795  1.3445 -1.4064  1.8527
 9516TIP3   OH250038   2.041   3.580  11.355 -0.0051 -0.0639 -0.5999
 9516TIP3    H150039   2.063   3.547  11.268 -0.4619  0.3528 -0.8722
 9516TIP3    H250040   2.084   3.665  11.360 -1.4640  0.7185 -1.1053
 9517TIP3   OH250041   5.354   2.713  16.502  0.5873  0.3182  0.1034
 9517TIP3    H150042   5.272   2.749  16.467  0.7872  0.0480 -0.6749
 9517TIP3    H250043   5.409   2.790  16.519  0.6997  0.4315 -0.7399
 9518TIP3   OH250044   5.617   4.335   2.138  0.6412  0.1976  0.0626
 9518TIP3    H150045   5.534   4.317   2.182  1.3039  0.0648  1.2603
 9518TIP3    H250046   5.596   4.331   2.044 -0.5841 -0.3608  0.3621
 9519TIP3   OH250047   5.197   2.938  16.168  0.1450 -0.0041  0.5384
 9519TIP3    H150048   5.128   2.994  16.203  0.9435  0.5980  1.1674
 9519TIP3    H250049   5.174   2.850  16.197 -0.8175  0.0663  0.0106
 9520TIP3   OH250050   2.723   6.343   0.849 -0.0530 -0.1050  0.2149
 9520TIP3    H150051   2.747   6.335   0.757  0.3421  0.8113  0.2292
 9520TIP3    H250052   2.685   6.431   0.856  2.2998  0.8667  1.4436
 9521TIP3   OH250053   3.150   6.470   0.325 -0.3314 -0.0839  0.5705
 9521TIP3    H150054   3.219   6.452   0.388  0.3586  2.4689  0.6229
 9521TIP3    H250055   3.101   6.543   0.364 -0.6701  0.6800 -1.2361
 9522TIP3   OH250056   5.089   3.048   2.096  0.3669 -0.3733  0.3401
 9522TIP3    H150057   5.137   3.068   2.177  0.2114  0.9629  0.1088
 9522TIP3    H250058   5.114   2.958   2.076  1.3833 -0.3021  1.2087
 9523TIP3   OH250059   6.055   2.828   2.088 -0.5637  0.2244  0.5415
 9523TIP3    H150060   6.106   2.848   2.010  0.3986 -0.0835  1.0888
 9523TIP3    H250061   6.024   2.739   2.075 -0.0895  0.0405  0.6841
 9524TIP3   OH250062   4.285   3.708  15.680 -0.5015 -0.4344  0.7460
 9524TIP3    H150063   4.277   3.743  15.591  2.4887 -0.0766  0.5597
 9524TIP3    H250064   4.274   3.785  15.736 -0.0225 -0.2528  0.5915
 9525TIP3   OH250065   4.498   3.022  13.423  0.5827  0.0983 -0.0409
 9525TIP3    H150066   4.472   3.033  13.515 -0.1811  0.6135 -0.3230
 9525TIP3    H250067   4.577   2.968  13.428  0.3390 -0.1892  0.9000
 9526TIP3   OH250068   5.242   5.570   3.705  0.6945  0.4765  0.2917
 9526TIP3    H150069   5.298   5.579   3.627  0.9525 -0.5732  0.3514
 9526TIP3    H250070   5.163   5.619   3.683  0.5434 -0.2657 -0.8549
 9527TIP3   OH250071   2.691   1.544  17.148 -0.1833 -0.3863  0.5325
 9527TIP3    H150072   2.616   1.598  17.122  2.3830  2.3884 -1.4278
 9527TIP3    H250073   2.711   1.572  17.238  0.3746  1.0713 -0.0377
 9528TIP3   OH250074   3.103   3.983  11.728  0.2057 -0.6016  0.1597
 9528TIP3    H150075   3.092   4.062  11.780  0.7114 -0.3019 -0.1913
 9528TIP3    H250076   3.048   3.997  11.651  1.6308  0.1364 -0.7269
 9529TIP3   OH250077   1.007   4.192  12.270  0.0543  0.5300  0.0187
 9529TIP3    H150078   1.058   4.162  12.346 -0.4189 -0.8025 -0.1829
 9529TIP3    H250079   0.921   4.213  12.306  0.3895  1.7302  0.1656
 9530TIP3   OH250080   0.086   2.040   6.749  0.7011 -0.4753  0.0695
 9530TIP3    H150081   0.118   1.962   6.704 -1.3710 -2.5014  2.0266
 9530TIP3    H250082   0.060   2.099   6.678  3.9805 -0.7343 -1.4740
 9531TIP3   OH250083   6.373   6.463   6.178  0.0249 -0.1263  0.1661
 9531TIP3    H150084   6.452   6.516   6.170  0.3710 -0.8526 -1.4234
 9531TIP3    H250085   6.301   6.525   6.164  0.3927  0.1375 -0.5936
 9532TIP3   OH250086   2.882   1.180   5.096  0.0691  0.3461  0.3864
 9532TIP3    H150087   2.862   1.273   5.090  0.6441  0.3736 -1.2295
 9532TIP3    H250088   2.836   1.141   5.021 -0.1393 -0.6646  1.0345
 9533TIP3   OH250089   6.144   0.726  12.305 -0.0280 -0.8017 -0.0349
 9533TIP3    H150090   6.125   0.732  12.211  1.6018 -0.9539 -0.4010
 9533TIP3    H250091   6.178   0.813  12.328 -1.4707 -0.4102  0.6804
 9534TIP3   OH250092   3.197   6.248  13.111  0.0871 -0.1290 -0.5435
 9534TIP3    H150093   3.282   6.289  13.128 -0.2072  0.2093  0.0868
 9534TIP3    H250094   3.200   6.165  13.159  0.4053 -0.5366 -1.2499
 9535TIP3   OH250095   6.069   2.293   0.371  0.1595  0.1343  0.5784
 9535TIP3    H150096   6.163   2.276   0.374  0.2300  0.5538  0.7931
 9535TIP3    H250097   6.058   2.353   0.297 -0.0214 -0.4073  0.1601
 9536TIP3   OH250098   2.179   5.548   4.100  0.2262 -0.5087 -0.0478
 9536TIP3    H150099   2.246   5.509   4.043  0.5360  0.3164 -0.2544
 9536TIP3    H250100   2.202   5.641   4.103  0.1033 -0.5176  1.2934
 9537TIP3   OH250101   0.290   4.029   3.704  0.4450  0.3087  0.0432
 9537TIP3    H150102   0.361   4.051   3.643  0.4355  2.3442  0.7128
 9537TIP3    H250103   0.323   4.058   3.790  0.6067 -2.8089  1.1157
 9538TIP3   OH250104   2.377   0.141   5.598  0.3942 -0.0610 -0.2590
 9538TIP3    H150105   2.337   0.130   5.684  1.0168  0.6069  0.1263
 9538TIP3    H250106   2.446   0.076   5.594 -0.8172 -1.3237 -0.9899
 9539TIP3   OH250107   6.254   1.513  16.331  0.1234 -0.0623  0.1689
 9539TIP3    H150108   6.168   1.486  16.298 -0.4638 -0.3440  1.8960
 9539TIP3    H250109   6.316   1.480  16.266 -1.0352 -0.2792 -0.8409
 9540TIP3   OH250110   1.079   1.037  12.051 -0.5211  0.0155  0.5335
 9540TIP3    H150111   1.004   0.979  12.036 -0.0328 -0.4515 -0.1984
 9540TIP3    H250112   1.116   1.050  11.964  0.0608  0.4967  0.8511
 9541TIP3   OH250113   4.218   3.599  13.708  0.0199 -0.1647  0.1962
 9541TIP3    H150114   4.214   3.616  13.802  0.5638 -2.1113  0.6041
 9541TIP3    H250115   4.281   3.662  13.674  0.2713  0.1475  1.2474
 9542TIP3   OH250116   4.795   6.050  12.245 -0.0574 -0.2361 -0.0243
 9542TIP3    H150117   4.885   6.031  12.272  0.3737  0.5209 -0.8860
 9542TIP3    H250118   4.779   5.989  12.172  0.3674  0.7983 -0.9953
 9543TIP3   OH250119   1.988   4.713   3.236 -0.1147 -0.1537 -0.5404
 9543TIP3    H150120   1.963   4.803   3.217 -2.1922 -0.4165  0.7318
 9543TIP3    H250121   1.955   4.662   3.162  1.2087  0.1403 -1.3400
 9544TIP3   OH250122   5.603   5.316  16.914  0.1096  0.2510 -0.3185
 9544TIP3    H150123   5.597   5.222  16.897 -0.8825  0.1562  0.5156
 9544TIP3    H250124   5.665   5.349  16.848 -0.8352 -0.7056 -1.6889
 9545TIP3   OH250125   2.336   0.570  11.810 -0.2295 -0.1428  0.3232
 9545TIP3    H150126   2.336   0.532  11.721 -0.0310 -0.6104  0.5215
 9545TIP3    H250127   2.357   0.662  11.797  0.2966 -0.3161 -0.0734
 9546TIP3   OH250128   0.419   6.435   4.075 -0.1402 -0.2814  0.1008
 9546TIP3    H150129   0.470   6.414   4.154  0.9071  0.8091 -0.2693
 9546TIP3    H250130   0.375   6.353   4.052  0.3300 -0.8647  1.2539
 9547TIP3   OH250131   5.233   4.973  12.121  0.8120  0.2450 -0.2357
 9547TIP3    H150132   5.299   4.938  12.062  1.2210  0.1238  0.2939
 9547TIP3    H250133   5.185   5.037  12.068  0.5309 -0.5891 -0.9911
 9548TIP3   OH250134   0.602   5.256   1.681 -0.2571  0.5312 -0.2048
 9548TIP3    H150135   0.513   5.288   1.692 -0.8846 -0.9815 -0.7585
 9548TIP3    H250136   0.611   5.242   1.587 -0.1408 -1.2984  0.0609
 9549TIP3   OH250137   6.182   0.891   5.552 -0.1025 -0.1715 -0.8186
 9549TIP3    H150138   6.174   0.959   5.484 -1.3551  0.2490 -0.2622
 9549TIP3    H250139   6.221   0.937   5.627  0.1254 -0.3453 -0.8297
 9550TIP3   OH250140   0.482   4.954  15.665  0.4339  0.3993  0.2535
 9550TIP3    H150141   0.401   4.904  15.660  0.9218 -0.5536  1.6406
 9550TIP3    H250142   0.465   5.033  15.613 -1.1014 -0.1614 -0.1074
 9551TIP3   OH250143   1.951   3.737  16.855  0.0097 -0.3698 -0.0986
 9551TIP3    H150144   2.016   3.805  16.870  1.5289 -1.6242 -0.8872
 9551TIP3    H250145   1.876   3.764  16.909  1.2174  1.0130  0.9429
 9552TIP3   OH250146   1.392   4.728  16.682 -0.6041  0.1819  0.3729
 9552TIP3    H150147   1.362   4.715  16.772 -0.8066 -2.9422 -0.0877
 9552TIP3    H250148   1.338   4.668  16.630  3.0501 -2.0092 -1.1193
 9553TIP3   OH250149   5.226   5.119  12.655 -0.2507 -0.1031  0.1363
 9553TIP3    H150150   5.311   5.162  12.651 -1.0464  1.4701 -0.1857
 9553TIP3    H250151   5.206   5.096  12.564 -0.2598 -0.2954  0.1859
 9554TIP3   OH250152   3.395   3.715  14.725  0.5718 -0.0203  0.5655
 9554TIP3    H150153   3.488   3.731  14.714  0.2186  0.7324 -1.5333
 9554TIP3    H250154   3.372   3.652  14.657 -0.3852 -0.4470  1.2636
 9555TIP3   OH250155   6.151   5.015  13.826  0.2111  0.0090  0.1707
 9555TIP3    H150156   6.062   4.981  13.838  0.7639 -0.8028  2.2484
 9555TIP3    H250157   6.176   4.985  13.738 -1.4533  0.0261 -0.3325
 9556TIP3   OH250158   3.670   0.636  15.306 -0.7848 -0.0129 -0.1477
 9556TIP3    H150159   3.590   0.585  15.290  0.5265 -2.0255 -0.4056
 9556TIP3    H250160   3.702   0.604  15.390  1.0614 -0.9995 -1.1937
 9557TIP3   OH250161   0.816   0.691   3.425  0.1436  0.0179  0.4618
 9557TIP3    H150162   0.784   0.779   3.408 -0.5646 -0.3087  0.0987
 9557TIP3    H250163   0.745   0.648   3.473  0.4639 -0.3754  0.5899
 9558TIP3   OH250164   4.498   0.781   3.401 -0.0677 -0.2253 -0.4136
 9558TIP3    H150165   4.537   0.863   3.370  2.5382 -1.4447 -0.4602
 9558TIP3    H250166   4.417   0.809   3.445  0.9425  2.4156 -0.1054
 9559TIP3   OH250167   5.538   2.672  15.789  0.3703 -0.2809 -0.6805
 9559TIP3    H150168   5.477   2.745  15.798  0.0741 -0.6345  0.3145
 9559TIP3    H250169   5.499   2.602  15.841  2.4540  0.0482  1.4738
 9560TIP3   OH250170   6.042   5.851   6.601  0.1151  0.0847  0.0808
 9560TIP3    H150171   6.019   5.910   6.674  3.3965  1.4303  0.1444
 9560TIP3    H250172   6.061   5.910   6.528 -0.2415 -1.1035 -0.9764
 9561TIP3   OH250173   5.298   5.728   1.020  0.4726  0.4767  0.1816
 9561TIP3    H150174   5.316   5.796   0.955  1.0008 -0.1032 -0.2788
 9561TIP3    H250175   5.210   5.697   0.998  0.8209 -0.0177 -0.5242
 9562TIP3   OH250176   0.562   2.561   6.675 -0.3377  0.3494  0.1871
 9562TIP3    H150177   0.478   2.554   6.719  0.7099  1.6780  2.4855
 9562TIP3    H250178   0.617   2.495   6.717 -0.1317 -0.3058 -1.0894
 9563TIP3   OH250179   1.697   5.328  12.541  0.2730 -0.1195 -0.0647
 9563TIP3    H150180   1.613   5.287  12.519  0.4435 -1.0613  1.0396
 9563TIP3    H250181   1.682   5.371  12.625  0.7830  0.0894 -0.0789
 9564TIP3   OH250182   4.546   3.191  12.877  0.1140 -0.3167 -0.0911
 9564TIP3    H150183   4.471   3.162  12.826  1.2052  1.0390 -2.5561
 9564TIP3    H250184   4.519   3.276  12.913  0.6209  0.3959 -1.3727
 9565TIP3   OH250185   1.505   2.509   2.345  1.0990  0.0782  0.0780
 9565TIP3    H150186   1.429   2.556   2.379  1.7816 -0.3657  2.2848
 9565TIP3    H250187   1.511   2.537   2.254 -0.3090  1.9149  0.5099
 9566TIP3   OH250188   2.161   1.411   4.932 -0.6241  0.2380 -0.0760
 9566TIP3    H150189   2.229   1.344   4.936 -0.3578  0.5784  1.1156
 9566TIP3    H250190   2.082   1.367   4.962 -0.4716  0.4299  0.6055
 9567TIP3   OH250191   5.808   0.580   5.438 -0.2453  0.9532 -0.1621
 9567TIP3    H150192   5.889   0.598   5.485 -0.0693  0.0136 -0.1098
 9567TIP3    H250193   5.742   0.570   5.508  0.7698 -4.6090  0.2234
 9568TIP3   OH250194   5.774   6.332   3.910  0.0273 -0.3316 -0.4911
 9568TIP3    H150195   5.848   6.366   3.960  0.4928 -1.8559 -0.1379
 9568TIP3    H250196   5.802   6.245   3.882 -0.2453  0.4613 -3.3533
 9569TIP3   OH250197   5.025   6.411   3.915 -0.0818 -0.2149  0.4267
 9569TIP3    H150198   5.067   6.466   3.849 -1.2942 -0.2114 -0.3552
 9569TIP3    H250199   4.944   6.382   3.874 -1.5961  1.0195  2.4804
 9570TIP3   OH250200   1.227   6.438  13.936  0.2793  0.0093  0.0288
 9570TIP3    H150201   1.165   6.415  13.867 -1.1746  1.2827  0.8890
 9570TIP3    H250202   1.180   6.421  14.018  0.0816  3.4232  0.6986
 9571TIP3   OH250203   5.434   3.408   5.076  0.6768  0.2413  0.4552
 9571TIP3    H150204   5.395   3.431   4.992  1.9043 -0.1048 -0.2216
 9571TIP3    H250205   5.407   3.478   5.136 -2.7740 -1.0795  0.5619
 9572TIP3   OH250206   5.945   5.926  14.225 -0.2747 -0.3554  0.2221
 9572TIP3    H150207   5.858   5.896  14.251 -0.8372  0.5097 -0.6297
 9572TIP3    H250208   5.969   5.872  14.150  0.2971 -1.1729  0.9786
 9573TIP3   OH250209   5.129   2.467  16.370 -0.2271 -0.1808  0.6074
 9573TIP3    H150210   5.072   2.398  16.338 -1.7123  0.8477  0.9921
 9573TIP3    H250211   5.099   2.484  16.459  0.2328  0.8468  0.5753
 9574TIP3   OH250212   3.464   6.501  17.001  0.1663  0.0786  0.7711
 9574TIP3    H150213   3.477   6.523  16.909 -0.0938 -0.0630  0.7013
 9574TIP3    H250214   3.384   6.548  17.026  0.7745  0.9140  1.1945
 9575TIP3   OH250215   4.817   5.121   2.741 -0.8831 -1.0218  0.2258
 9575TIP3    H150216   4.751   5.081   2.797 -1.4703  1.4838  1.4148
 9575TIP3    H250217   4.766   5.165   2.672 -0.4549  0.3928  0.7892
 9576TIP3   OH250218   0.538   4.744  13.682 -0.5507 -0.5678  0.4905
 9576TIP3    H150219   0.592   4.665  13.678  2.5670  1.5728 -1.9483
 9576TIP3    H250220   0.595   4.810  13.721 -1.0839  1.9624 -2.8279
 9577TIP3   OH250221   4.961   6.254   0.795  0.0128  1.0454  0.3736
 9577TIP3    H150222   4.971   6.273   0.888  0.7362  1.1831  0.2759
 9577TIP3    H250223   4.871   6.278   0.774  0.1049  1.8252  0.8517
 9578TIP3   OH250224   0.455   2.581   4.082  0.5283  0.2090 -0.1245
 9578TIP3    H150225   0.449   2.676   4.092 -1.2230  0.2636 -1.4737
 9578TIP3    H250226   0.366   2.553   4.059  1.3735 -1.5355 -1.4495
 9579TIP3   OH250227   6.274   1.688   5.013  0.1563 -0.0802  0.9966
 9579TIP3    H150228   6.261   1.783   5.015  1.0992  0.0467  1.1289
 9579TIP3    H250229   6.219   1.658   4.940  0.5924  0.6765  0.3468
 9580TIP3   OH250230   4.426   6.481   4.663  0.1636  0.1377  0.5918
 9580TIP3    H150231   4.487   6.430   4.610 -1.6519 -1.3327 -0.1195
 9580TIP3    H250232   4.390   6.419   4.726  0.8888  1.4586  2.3503
 9581TIP3   OH250233   5.562   4.974  13.469  0.2414 -0.1618 -0.3994
 9581TIP3    H150234   5.498   4.960  13.398  1.4697 -0.3565 -1.4796
 9581TIP3    H250235   5.646   4.953  13.430  0.8345 -1.3203  1.4504
 9582TIP3   OH250236   6.265   6.064   2.800 -0.0487  0.2865 -0.2145
 9582TIP3    H150237   6.351   6.073   2.842  1.2103 -1.7090 -2.2777
 9582TIP3    H250238   6.269   6.120   2.723 -0.5830  0.0919 -0.3884
 9583TIP3   OH250239   3.479   4.282  11.884  0.2524 -0.8463  0.0501
 9583TIP3    H150240   3.462   4.191  11.858 -0.1701 -0.7187 -0.1272
 9583TIP3    H250241   3.570   4.282  11.913  1.1786 -0.6993 -2.7261
 9584TIP3   OH250242   6.503   4.978   1.804  0.2387  0.7840 -0.3696
 9584TIP3    H150243   6.411   4.991   1.828 -0.6319 -0.4680 -2.9026
 9584TIP3    H250244   6.508   4.887   1.773  2.2383  0.9812 -0.7349
 9585TIP3   OH250245   2.224   3.638   2.575 -1.2939  0.4197 -0.2184
 9585TIP3    H150246   2.232   3.589   2.493 -2.3994  0.2754 -0.2465
 9585TIP3    H250247   2.172   3.581   2.631 -0.8216  0.6699  0.4785
 9586TIP3   OH250248   3.105   4.022   4.689 -0.0597 -0.3155 -0.2421
 9586TIP3    H150249   3.161   4.098   4.673 -1.5577  0.5362 -1.5826
 9586TIP3    H250250   3.159   3.963   4.743  0.9907  1.8196  1.0940
 9587TIP3   OH250251   0.438   5.461   5.167  0.6303  0.4844 -0.7272
 9587TIP3    H150252   0.376   5.418   5.227  0.6574 -0.3781 -1.2955
 9587TIP3    H250253   0.388   5.533   5.129 -0.1106 -0.3302 -1.3376
 9588TIP3   OH250254   4.610   0.579   5.836  0.4339  0.1059 -0.3621
 9588TIP3    H150255   4.697   0.593   5.798 -0.0178  0.4957 -1.2850
 9588TIP3    H250256   4.551   0.587   5.761 -0.3712 -0.3988  0.2268
 9589TIP3   OH250257   6.247   5.581   1.053  0.3098  0.4161  1.0640
 9589TIP3    H150258   6.218   5.492   1.030  0.9016 -0.5442  3.7833
 9589TIP3    H250259   6.184   5.610   1.119  1.0744  1.3627  1.3823
 9590TIP3   OH250260   4.076   0.838   1.085  0.0699 -0.2904  0.0424
 9590TIP3    H150261   4.161   0.847   1.043 -0.5359  1.1201 -0.9074
 9590TIP3    H250262   4.034   0.924   1.074 -1.4077 -0.9169  0.6361
 9591TIP3   OH250263   2.582   5.768  14.197  0.0907 -0.5491 -0.2650
 9591TIP3    H150264   2.506   5.818  14.226  0.5899 -0.2837  0.5857
 9591TIP3    H250265   2.634   5.831  14.147  0.4195 -0.3776  0.2940
 9592TIP3   OH250266   2.630   4.252  15.029  0.0303  0.4472  0.2308
 9592TIP3    H150267   2.641   4.157  15.024 -1.9643  0.2232 -0.3720
 9592TIP3    H250268   2.536   4.264  15.046  0.4587  2.2847  1.3372
 9593TIP3   OH250269   1.178   1.843  13.983  0.4898 -0.5451 -0.3882
 9593TIP3    H150270   1.168   1.762  14.032 -0.8780 -0.3732 -0.3836
 9593TIP3    H250271   1.248   1.890  14.029 -1.0157 -0.2216  1.6005
 9594TIP3   OH250272   5.548   2.359  17.024 -0.2843 -0.1261 -0.2403
 9594TIP3    H150273   5.554   2.282  16.968 -1.5757 -0.6459  0.3098
 9594TIP3    H250274   5.608   2.422  16.986 -0.8117 -0.6367 -1.9453
 9595TIP3   OH250275   2.162   2.218  13.689  0.0645  0.5845 -0.0776
 9595TIP3    H150276   2.193   2.137  13.647  0.8055  0.7655  0.1087
 9595TIP3    H250277   2.078   2.194  13.728  0.0740  0.0182 -0.3968
 9596TIP3   OH250278   1.373   0.013   5.703  0.0595 -0.1172  0.2465
 9596TIP3    H150279   1.448   0.004   5.763 -0.0759 -0.0237  0.4294
 9596TIP3    H250280   1.403   0.074   5.636  0.3775 -0.5819 -0.0419
 9597TIP3   OH250281   2.455   3.992   2.087  0.8781 -0.7437 -0.4272
 9597TIP3    H150282   2.498   3.943   2.017  1.5832  2.7859 -2.5996
 9597TIP3    H250283   2.434   4.077   2.047  0.1038  0.8852  3.2759
 9598TIP3   OH250284   3.815   0.305  15.813 -0.4398 -0.6263  0.5082
 9598TIP3    H150285   3.807   0.283  15.720  0.8634  0.7105  0.0740
 9598TIP3    H250286   3.735   0.353  15.834  0.0936  0.6388 -0.3656
 9599TIP3   OH250287   4.766   4.983  15.049 -0.2723 -0.5612  0.0343
 9599TIP3    H150288   4.729   4.989  14.961  0.6766 -1.6970 -0.4524
 9599TIP3    H250289   4.856   4.953  15.035  0.3006  0.5283  1.3159
 9600TIP3   OH250290   1.415   1.702   2.386  0.3694 -0.8619  0.5031
 9600TIP3    H150291   1.424   1.777   2.445  1.2204  2.0348 -3.1115
 9600TIP3    H250292   1.344   1.727   2.326  1.9977 -2.0512 -1.9939
 9601TIP3   OH250293   4.934   3.905  16.279 -0.3780  0.9005  0.2139
 9601TIP3    H150294   5.001   3.880  16.215  0.3884  1.5967  0.7327
 9601TIP3    H250295   4.972   3.881  16.364 -1.5935 -0.4658  0.3846
 9602TIP3   OH250296   4.839   3.306   1.296 -0.6609  0.7079 -0.8630
 9602TIP3    H150297   4.827   3.401   1.301 -1.6501  0.5616 -0.3035
 9602TIP3    H250298   4.823   3.284   1.204  1.3929  1.3060 -1.3971
 9603TIP3   OH250299   1.520   4.099  11.966  0.2566  0.4748  0.1163
 9603TIP3    H150300   1.452   4.080  12.031  1.7475 -0.4833  1.4300
 9603TIP3    H250301   1.473   4.140  11.893 -1.7230 -0.1578  1.0073
 9604TIP3   OH250302   3.667   6.593   1.065 -0.3668 -0.7039 -0.5683
 9604TIP3    H150303   3.705   6.507   1.086  0.1306  0.5566  4.4742
 9604TIP3    H250304   3.581   6.591   1.108  0.8024  2.2621  2.0372
 9605TIP3   OH250305   4.840   5.083  12.215  0.4151 -0.4678  0.4683
 9605TIP3    H150306   4.863   5.089  12.122 -1.7158 -0.6727 -0.1010
 9605TIP3    H250307   4.878   5.161  12.255 -2.2804  1.8518 -1.3781
 9606TIP3   OH250308   5.032   1.982  14.826 -0.4530  0.5279  0.1268
 9606TIP3    H150309   5.110   1.933  14.851  0.1414  1.2872 -0.2075
 9606TIP3    H250310   5.019   1.959  14.734 -0.5947  0.4354  0.1712
 9607TIP3   OH250311   6.289   5.032  15.858  0.4520  0.6631  0.4341
 9607TIP3    H150312   6.204   4.990  15.846  1.2406 -1.2020  1.1827
 9607TIP3    H250313   6.276   5.090  15.933 -0.0605  0.0688  0.8118
 9608TIP3   OH250314   1.216   5.718  14.136  0.3271 -0.1448  0.7772
 9608TIP3    H150315   1.285   5.744  14.198  0.2830  0.2430  0.6676
 9608TIP3    H250316   1.203   5.625  14.151  1.4161 -0.3878  0.2755
 9609TIP3   OH250317   3.821   4.030  17.070  0.2926 -0.3396 -0.3673
 9609TIP3    H150318   3.821   4.071  17.157 -3.0617 -2.3749  0.6894
 9609TIP3    H250319   3.903   3.981  17.066  1.0818  0.8194  1.1333
 9610TIP3   OH250320   2.150   6.456   3.490 -0.5539 -0.2500 -0.0073
 9610TIP3    H150321   2.177   6.431   3.579  2.7028  1.0633 -0.5487
 9610TIP3    H250322   2.168   6.379   3.437 -1.1520 -0.5470  0.2142
 9611TIP3   OH250323   0.089   2.372   6.173  0.5974 -0.4783  0.3082
 9611TIP3    H150324   0.085   2.286   6.133 -0.9991  0.1857 -0.9780
 9611TIP3    H250325   0.040   2.363   6.255 -2.6127  0.0851 -1.4914
 9612TIP3   OH250326   1.373   3.189   0.839  0.2134 -0.3899  0.5707
 9612TIP3    H150327   1.389   3.117   0.899  0.3220  0.1103  1.1527
 9612TIP3    H250328   1.322   3.151   0.768  0.9520 -1.2121  0.4736
 9613TIP3   OH250329   4.283   2.315  16.145  0.3043  0.2504 -0.3428
 9613TIP3    H150330   4.327   2.231  16.133 -0.8734 -0.7298  1.8311
 9613TIP3    H250331   4.229   2.325  16.066  1.0368 -0.6727 -0.9725
 9614TIP3   OH250332   2.852   0.547   2.135 -0.3733 -0.2346 -0.5257
 9614TIP3    H150333   2.921   0.599   2.094 -0.4955  0.5801  0.2660
 9614TIP3    H250334   2.770   0.591   2.111 -0.5361 -0.5163 -0.4972
 9615TIP3   OH250335   0.800   4.655   4.528  0.6387  0.1009  0.6205
 9615TIP3    H150336   0.808   4.610   4.612 -3.3221 -0.6377  0.6794
 9615TIP3    H250337   0.713   4.693   4.529  1.1070  1.4174 -2.5553
 9616TIP3   OH250338   0.971   3.077   3.764 -0.8904 -0.2756  0.5326
 9616TIP3    H150339   1.049   3.098   3.816 -1.6341 -0.9305  1.9507
 9616TIP3    H250340   1.002   3.015   3.698  0.1064  0.6965  0.0757
 9617TIP3   OH250341   1.593   5.384  11.464 -0.4504  0.5970  0.0388
 9617TIP3    H150342   1.674   5.334  11.472 -0.4530  0.5143 -0.4694
 9617TIP3    H250343   1.620   5.475  11.475 -0.4642  0.4838  1.1020
 9618TIP3   OH250344   1.772   0.873  16.143 -0.1212  1.1733 -0.6108
 9618TIP3    H150345   1.776   0.892  16.237  0.4044 -3.0862  0.3196
 9618TIP3    H250346   1.678   0.876  16.122 -0.3679  0.5703  0.3977
 9619TIP3   OH250347   6.384   6.765  11.970  0.1034 -0.4284  0.0459
 9619TIP3    H150348   6.443   6.835  11.998 -0.2650 -0.4747  0.9638
 9619TIP3    H250349   6.298   6.793  11.999 -0.0527 -1.2397  0.3923
 9620TIP3   OH250350   6.359   0.949   4.868  0.3038  0.3832  0.2674
 9620TIP3    H150351   6.391   0.882   4.807 -0.2174  0.8639 -0.5372
 9620TIP3    H250352   6.429   0.957   4.933  0.6634 -0.4630 -0.0023
 9621TIP3   OH250353   2.718   2.670  13.387  0.1740  0.1632 -0.4871
 9621TIP3    H150354   2.781   2.713  13.445  1.1970 -0.0234 -1.4509
 9621TIP3    H250355   2.706   2.583  13.425 -0.6991  0.7188  0.5708
 9622TIP3   OH250356   6.455   6.712   5.679 -0.2997 -0.4165 -0.4411
 9622TIP3    H150357   6.491   6.775   5.740 -1.1044 -1.0448  0.7056
 9622TIP3    H250358   6.528   6.655   5.657 -0.2782 -0.8949  0.8499
 9623TIP3   OH250359   4.786   0.500  15.898 -0.5116 -0.1572 -0.1402
 9623TIP3    H150360   4.862   0.477  15.953 -2.1317 -2.1528  1.3237
 9623TIP3    H250361   4.759   0.586  15.930 -0.0012 -0.2717  0.6209
 9624TIP3   OH250362   5.055   3.705   0.586 -0.1652 -0.2708 -0.2467
 9624TIP3    H150363   5.053   3.798   0.563  0.7555  0.1894  1.4192
 9624TIP3    H250364   5.132   3.671   0.541  0.8185  0.3075  0.9587
 9625TIP3   OH250365   3.797   5.387   1.081 -0.0590 -0.5031 -0.0786
 9625TIP3    H150366   3.741   5.437   1.140  0.8916  0.9563 -0.3801
 9625TIP3    H250367   3.861   5.345   1.138 -1.2027 -1.8707  0.2297
 9626TIP3   OH250368   0.618   1.436  12.150 -0.0106  0.2754 -0.2547
 9626TIP3    H150369   0.668   1.508  12.112  1.7887  0.3865  2.1769
 9626TIP3    H250370   0.645   1.359  12.099  1.0719  0.6902 -0.3246
 9627TIP3   OH250371   0.247   2.432   0.574  0.1637  0.0484  0.5349
 9627TIP3    H150372   0.194   2.353   0.569 -0.4682  0.4196  1.2092
 9627TIP3    H250373   0.223   2.472   0.658  2.3915 -0.3865  1.4008
 9628TIP3   OH250374   6.584   2.506   2.236 -0.2265  0.0548  0.0208
 9628TIP3    H150375   6.558   2.461   2.316 -0.0441  2.6242  1.5924
 9628TIP3    H250376   6.513   2.567   2.218  1.2579  1.8877  0.1735
 9629TIP3   OH250377   1.885   0.596  10.346 -0.2615  0.0551 -0.5102
 9629TIP3    H150378   1.911   0.559  10.430  0.4241 -0.8604 -1.1251
 9629TIP3    H250379   1.796   0.565  10.332  0.4979 -1.8335 -1.2782
 9630TIP3   OH250380   2.005   3.375   2.397 -0.0541  0.2249  0.3436
 9630TIP3    H150381   1.957   3.403   2.319  1.1565  0.1520 -0.4353
 9630TIP3    H250382   1.979   3.284   2.410 -1.8536  0.8342  1.2581
 9631TIP3   OH250383   1.213   3.408  10.887  0.6499 -0.4581 -0.2953
 9631TIP3    H150384   1.301   3.420  10.922  0.1950  1.2436  0.3217
 9631TIP3    H250385   1.161   3.377  10.961  0.7057 -1.3808 -0.6368
 9632TIP3   OH250386   1.750   6.703  12.535  0.1494  0.4852  0.8968
 9632TIP3    H150387   1.692   6.639  12.576  2.0854 -1.1986  1.0674
 9632TIP3    H250388   1.838   6.676  12.561  1.1756  1.6285 -1.2326
 9633TIP3   OH250389   0.722   1.462   2.132  0.3354 -0.0272 -0.2337
 9633TIP3    H150390   0.742   1.550   2.099  2.3814 -0.2591  0.3586
 9633TIP3    H250391   0.803   1.432   2.173  0.8871 -3.6998 -3.7079
 9634TIP3   OH250392   1.684   3.354   5.390 -0.1103  0.0270  0.0782
 9634TIP3    H150393   1.667   3.358   5.295  2.6683 -0.3766 -0.4671
 9634TIP3    H250394   1.742   3.429   5.407  1.1354 -1.1525  1.0656
 9635TIP3   OH250395   4.529   4.255   3.270  0.1274 -0.4994  0.4004
 9635TIP3    H150396   4.460   4.310   3.232  0.1204 -0.8715 -0.1303
 9635TIP3    H250397   4.491   4.221   3.351 -0.6072 -1.3190 -0.2686
 9636TIP3   OH250398   5.205   4.923   2.103  0.5224  0.7788 -0.6150
 9636TIP3    H150399   5.289   4.890   2.072 -0.1081  0.1886 -1.6805
 9636TIP3    H250400   5.159   4.846   2.137 -1.0027  0.4678 -3.2269
 9637TIP3   OH250401   2.282   3.754   1.419  0.5861  0.2404  0.1740
 9637TIP3    H150402   2.294   3.667   1.381 -1.0999  0.1418 -0.1658
 9637TIP3    H250403   2.318   3.746   1.508  4.6274  0.4909 -1.3223
 9638TIP3   OH250404   4.698   5.067   5.233 -0.2912  0.5823 -0.6693
 9638TIP3    H150405   4.744   4.984   5.243 -0.0514  0.8692  0.7269
 9638TIP3    H250406   4.767   5.130   5.211 -0.5984  0.2516 -2.6266
 9639TIP3   OH250407   5.172   0.911  12.065 -0.5917 -0.1198  0.2963
 9639TIP3    H150408   5.190   0.881  12.154 -2.3587  2.4775  1.5683
 9639TIP3    H250409   5.078   0.897  12.054 -1.1011  3.0425  0.2432
 9640TIP3   OH250410   6.317   0.264  14.423  0.3575 -0.1643 -0.4343
 9640TIP3    H150411   6.356   0.345  14.455 -1.5418  0.2240  0.9755
 9640TIP3    H250412   6.234   0.257  14.469 -0.1016 -2.2655 -1.4969
 9641TIP3   OH250413   2.577   3.858   5.451 -0.2129 -0.1737  0.5252
 9641TIP3    H150414   2.486   3.854   5.480 -0.0230 -0.4214  1.1047
 9641TIP3    H250415   2.597   3.951   5.444 -1.3244 -0.0747 -2.2415
 9642TIP3   OH250416   2.852   6.115  15.335  0.8003  0.1649 -0.2678
 9642TIP3    H150417   2.774   6.171  15.333  0.1196 -0.6859  1.2917
 9642TIP3    H250418   2.895   6.140  15.417  0.9709 -0.9512 -0.0226
 9643TIP3   OH250419   4.478   5.993  11.988  0.0799 -0.5170  0.0217
 9643TIP3    H150420   4.518   6.080  11.978 -1.0446  0.0303  0.1106
 9643TIP3    H250421   4.548   5.938  12.021  0.1006  1.0313  2.7167
 9644TIP3   OH250422   1.940   1.679  15.035  0.8209  0.4061 -0.2726
 9644TIP3    H150423   1.847   1.685  15.058  0.7656  3.0299 -1.0606
 9644TIP3    H250424   1.986   1.671  15.119 -0.0880 -0.5559  0.1360
 9645TIP3   OH250425   2.158   3.903   1.753  0.2127  0.2331  0.3425
 9645TIP3    H150426   2.122   3.893   1.665  1.9936  3.3033 -0.8384
 9645TIP3    H250427   2.216   3.828   1.764 -1.6247 -1.3018 -0.2351
 9646TIP3   OH250428   4.059   3.146  17.219  0.6243 -0.5109  0.2096
 9646TIP3    H150429   4.035   3.054  17.228  2.2329 -0.7444  2.4142
 9646TIP3    H250430   3.986   3.195  17.258 -0.0050 -0.8461 -0.5287
 9647TIP3   OH250431   3.757   4.497   6.012 -0.1656 -0.6188  0.1863
 9647TIP3    H150432   3.819   4.426   6.028  2.4797  1.8191  1.1559
 9647TIP3    H250433   3.731   4.527   6.099 -3.7784 -2.4187 -0.1709
 9648TIP3   OH250434   4.037   3.713  16.329 -0.2668 -0.2010  0.4772
 9648TIP3    H150435   4.042   3.808  16.338 -0.2692 -0.0991 -0.5638
 9648TIP3    H250436   4.125   3.683  16.352 -0.0521  0.1183  0.0816
 9649TIP3   OH250437   1.361   0.676   3.128  0.6718 -0.0636  0.5944
 9649TIP3    H150438   1.408   0.593   3.128 -0.5249 -0.7610  1.5983
 9649TIP3    H250439   1.428   0.742   3.149  1.5095 -0.8416  0.3870
 9650TIP3   OH250440   5.636   4.421   0.213 -0.1864  0.4223  0.1362
 9650TIP3    H150441   5.554   4.395   0.171 -1.6415 -0.5727  3.3931
 9650TIP3    H250442   5.622   4.513   0.237 -0.3334  0.2735  0.6264
 9651TIP3   OH250443   5.443   1.614  10.069  0.0600  0.1659  0.1697
 9651TIP3    H150444   5.511   1.547  10.072  0.2445  0.2839 -1.0377
 9651TIP3    H250445   5.361   1.565  10.065  0.2948 -0.0707 -3.3224
 9652TIP3   OH250446   5.135   6.525   4.566 -0.1583  0.3457 -0.3455
 9652TIP3    H150447   5.053   6.554   4.527  0.2658  0.2797 -1.3092
 9652TIP3    H250448   5.203   6.568   4.515  0.4426 -1.0849 -0.7836
 9653TIP3   OH250449   4.196   3.934   1.469  0.6497 -0.1559  0.3714
 9653TIP3    H150450   4.292   3.935   1.460  0.6669  1.3247  0.5758
 9653TIP3    H250451   4.180   3.924   1.562  0.6003 -0.4333  0.3340
 9654TIP3   OH250452   3.199   0.823   4.745  0.5042 -0.3121  0.4684
 9654TIP3    H150453   3.129   0.845   4.683  1.2051 -1.6872 -0.8187
 9654TIP3    H250454   3.153   0.807   4.828 -0.7785 -1.7845 -0.5071
 9655TIP3   OH250455   3.884   1.177   3.363 -0.0205  0.4503 -0.0903
 9655TIP3    H150456   3.859   1.176   3.456 -0.2367 -0.3877 -0.1549
 9655TIP3    H250457   3.850   1.260   3.331 -0.9837  0.2282  0.3111
 9656TIP3   OH250458   3.194   6.059   4.780 -0.5130  0.1872 -0.3032
 9656TIP3    H150459   3.117   6.059   4.837 -0.3261  0.6542 -0.0484
 9656TIP3    H250460   3.169   6.113   4.705 -0.7999 -0.5234 -0.7277
 9657TIP3   OH250461   0.354   3.572   5.749 -0.7356  0.0697  0.0752
 9657TIP3    H150462   0.304   3.532   5.820  1.2209 -0.7408  1.0341
 9657TIP3    H250463   0.347   3.508   5.677 -1.3230  0.1085  0.0929
 9658TIP3   OH250464   1.559   1.306  13.727 -0.2210  0.5806  0.0354
 9658TIP3    H150465   1.505   1.333  13.652 -0.6101  0.8159  0.3945
 9658TIP3    H250466   1.571   1.386  13.778 -4.4518 -0.4992  3.0476
 9659TIP3   OH250467   6.561   6.736   3.733  0.1180 -0.6228  0.1139
 9659TIP3    H150468   6.572   6.775   3.819 -0.2340  0.8527 -0.5029
 9659TIP3    H250469   6.467   6.743   3.715  0.3072 -0.2141 -0.7242
 9660TIP3   OH250470   6.408   2.949  12.690  0.4782  0.4379 -0.1670
 9660TIP3    H150471   6.333   2.891  12.705  1.2428 -0.3347  0.6924
 9660TIP3    H250472   6.370   3.037  12.690 -0.1199  0.2122  2.5709
 9661TIP3   OH250473   1.027   1.338   1.376  0.4527  0.3288 -0.0722
 9661TIP3    H150474   1.024   1.373   1.286  0.3878 -0.4442 -0.3719
 9661TIP3    H250475   1.095   1.389   1.419 -0.5605  1.7603 -0.1136
 9662TIP3   OH250476   0.171   3.038  15.811  0.3889  0.2200  0.1455
 9662TIP3    H150477   0.198   3.082  15.731 -1.0369 -0.4240 -0.7121
 9662TIP3    H250478   0.119   3.103  15.858 -2.9693 -0.9266 -1.8143
 9663TIP3   OH250479   3.019   2.559   5.734  0.2306 -0.1955  0.2326
 9663TIP3    H150480   2.977   2.633   5.689 -0.7611 -0.5504  0.5728
 9663TIP3    H250481   3.026   2.491   5.667  2.0526  0.5461 -0.3532
 9664TIP3   OH250482   1.241   4.869   5.550  0.0034  0.6189 -0.0789
 9664TIP3    H150483   1.277   4.936   5.492 -0.1433  0.8173  0.0578
 9664TIP3    H250484   1.301   4.866   5.624 -0.1373  0.7903  0.0428
 9665TIP3   OH250485   6.366   3.816  15.272 -0.3016 -0.5871  0.0550
 9665TIP3    H150486   6.441   3.874  15.288 -1.1644  0.2248  1.2039
 9665TIP3    H250487   6.293   3.876  15.258 -0.6750 -1.3742 -1.4055
 9666TIP3   OH250488   1.582   3.011  16.816  0.2690  0.0326 -0.1225
 9666TIP3    H150489   1.624   2.931  16.785 -0.5078 -1.2289  1.9793
 9666TIP3    H250490   1.580   3.002  16.911  3.0311  4.0036  0.4169
 9667TIP3   OH250491   1.453   0.849   5.442  0.4671  0.2377  0.3994
 9667TIP3    H150492   1.505   0.803   5.508  0.3563  0.3869  0.5934
 9667TIP3    H250493   1.474   0.805   5.360  0.3705 -0.1539  0.5793
 9668TIP3   OH250494   1.483   1.323  14.956  0.0369 -0.0903  0.2353
 9668TIP3    H150495   1.512   1.371  15.034  0.0403 -0.1270  0.2571
 9668TIP3    H250496   1.559   1.272  14.929  0.6665  1.4147 -0.9382
 9669TIP3   OH250497   3.782   1.640  16.298 -0.4260  0.1120 -0.5203
 9669TIP3    H150498   3.812   1.728  16.320  1.2651 -0.5487 -0.1057
 9669TIP3    H250499   3.742   1.608  16.380 -0.1724  0.1427 -0.3819
 9670TIP3   OH250500   2.853   4.794   1.029 -0.1323  0.3446 -0.0597
 9670TIP3    H150501   2.840   4.888   1.017 -0.9021  0.5591  2.3535
 9670TIP3    H250502   2.946   4.786   1.053 -0.6116  0.7302  1.9820
 9671TIP3   OH250503   2.431   4.321   3.243  0.2061  0.2430  0.4765
 9671TIP3    H150504   2.391   4.234   3.253 -1.4492  0.8362 -0.7407
 9671TIP3    H250505   2.437   4.333   3.149  1.6900  0.9025  0.6537
 9672TIP3   OH250506   3.834   3.902  12.953  0.1457 -0.0384 -0.6881
 9672TIP3    H150507   3.837   3.848  13.032 -1.4574  1.6109  0.5159
 9672TIP3    H250508   3.908   3.962  12.962  0.8192 -0.7696 -1.1601
 9673TIP3   OH250509   2.207   0.161  11.444 -0.5102 -0.4404  0.0671
 9673TIP3    H150510   2.143   0.205  11.500  0.3586 -0.6373  1.2322
 9673TIP3    H250511   2.232   0.228  11.380 -1.1927 -0.0741  0.1789
 9674TIP3   OH250512   6.208   1.374   1.111 -0.1177  0.0308  0.9679
 9674TIP3    H150513   6.233   1.285   1.086  1.3917  0.6723  0.0998
 9674TIP3    H250514   6.228   1.427   1.033 -2.1560  0.9372  1.0434
 9675TIP3   OH250515   3.526   3.194  13.979  0.0298 -0.1466 -0.0099
 9675TIP3    H150516   3.599   3.253  13.961 -0.0609  0.3048  1.1009
 9675TIP3    H250517   3.478   3.190  13.896  0.7173  0.3700 -0.4393
 9676TIP3   OH250518   5.655   2.877  15.068 -0.2128 -0.0474  0.1491
 9676TIP3    H150519   5.652   2.855  15.161 -0.9824  1.6399  0.5502
 9676TIP3    H250520   5.577   2.931  15.054  0.7663  1.0837 -1.0847
 9677TIP3   OH250521   4.456   3.711  15.400 -0.1575 -0.0231 -0.2015
 9677TIP3    H150522   4.511   3.702  15.322  0.8841  0.9951  0.3969
 9677TIP3    H250523   4.512   3.757  15.463 -2.0992  2.0760  0.0265
 9678TIP3   OH250524   2.234   2.567  14.816  0.2978  0.6018  0.9698
 9678TIP3    H150525   2.311   2.596  14.767 -1.2828  0.1465 -1.9154
 9678TIP3    H250526   2.268   2.507  14.882  2.2792 -0.9164 -1.3544
 9679TIP3   OH250527   3.028   0.043   2.994 -0.4187  0.0074  0.1775
 9679TIP3    H150528   2.972   0.108   2.952 -1.3782 -0.5190  0.6276
 9679TIP3    H250529   3.093   0.095   3.042 -1.2779  0.6388  0.6696
 9680TIP3   OH250530   6.524   2.448   0.556  0.5529 -0.6487 -0.2508
 9680TIP3    H150531   6.467   2.405   0.492  1.7165 -1.7750 -0.5374
 9680TIP3    H250532   6.542   2.380   0.621  2.3251 -0.5844 -0.6529
 9681TIP3   OH250533   5.263   1.333   2.954 -0.1560  0.7374  0.1932
 9681TIP3    H150534   5.178   1.316   2.914  0.2504  0.3964 -0.5278
 9681TIP3    H250535   5.245   1.401   3.020 -0.8708  1.1130 -0.3781
 9682TIP3   OH250536   5.864   3.770   1.811 -0.1920 -0.1837  0.4979
 9682TIP3    H150537   5.807   3.782   1.736  0.3863  0.3880  0.1406
 9682TIP3    H250538   5.949   3.748   1.774 -0.0166 -0.3740  1.0020
 9683TIP3   OH250539   5.165   2.926  10.716  0.0456  0.1245  0.7513
 9683TIP3    H150540   5.179   2.946  10.624  0.6728  2.5965  1.3477
 9683TIP3    H250541   5.072   2.905  10.723  0.2136 -1.1467 -0.5995
 9684TIP3   OH250542   1.659   6.325  11.480  0.8796  0.2183 -0.1331
 9684TIP3    H150543   1.648   6.250  11.422 -1.2976 -1.6785  2.5959
 9684TIP3    H250544   1.699   6.288  11.559 -1.0072  1.7302  1.5818
 9685TIP3   OH250545   4.697   4.016   5.478 -0.6579  0.0552 -0.4599
 9685TIP3    H150546   4.712   4.005   5.572  2.3154  2.9159 -0.4985
 9685TIP3    H250547   4.774   3.976   5.437 -0.1967  1.9211 -1.4749
 9686TIP3   OH250548   2.295   3.291  14.830 -0.1095  0.2888 -0.2543
 9686TIP3    H150549   2.372   3.323  14.783 -0.2822  1.5140  0.2751
 9686TIP3    H250550   2.326   3.274  14.919 -0.5580  1.3594  0.1268
 9687TIP3   OH250551   0.500   3.587   6.034 -0.3300  0.6310 -0.1765
 9687TIP3    H150552   0.474   3.677   6.015  1.0062  0.4332 -3.1704
 9687TIP3    H250553   0.418   3.542   6.053 -1.1725  2.1215 -0.2025
 9688TIP3   OH250554   4.206   2.473  15.586 -0.1239 -0.1339  0.2546
 9688TIP3    H150555   4.297   2.491  15.611  0.1755 -0.1934 -0.7486
 9688TIP3    H250556   4.189   2.384  15.616  0.9325 -1.0133 -1.6376
 9689TIP3   OH250557   3.500   2.693   4.035 -0.0517  0.4726  0.0364
 9689TIP3    H150558   3.577   2.750   4.034  0.4553 -0.2039 -0.5563
 9689TIP3    H250559   3.528   2.615   3.987 -1.7029  0.9858 -1.8379
 9690TIP3   OH250560   1.363   1.471  14.136 -0.0415 -0.0348 -0.0381
 9690TIP3    H150561   1.414   1.439  14.210 -0.5534  1.0296  0.7831
 9690TIP3    H250562   1.385   1.563  14.129 -2.1461  0.5595  0.6190
 9691TIP3   OH250563   6.058   2.532  11.616  0.3335 -0.0457  0.1658
 9691TIP3    H150564   6.003   2.455  11.631 -0.8110  0.8535  0.7133
 9691TIP3    H250565   6.001   2.595  11.573  1.3885  0.3481 -0.6933
 9692TIP3   OH250566   3.947   3.704  14.875 -0.1978 -0.3066  0.1976
 9692TIP3    H150567   3.970   3.773  14.813  1.0073 -0.3855  0.5552
 9692TIP3    H250568   3.989   3.730  14.957 -0.3633 -1.0892  0.5335
 9693TIP3   OH250569   6.528   5.411  15.652  0.0767  0.1839 -0.5486
 9693TIP3    H150570   6.512   5.397  15.746  0.4330  1.4192 -0.2928
 9693TIP3    H250571   6.601   5.353  15.631 -1.1136 -1.3603 -0.4512
 9694TIP3   OH250572   1.483   2.032  17.257 -0.1917  0.3094 -0.3498
 9694TIP3    H150573   1.548   2.068  17.317 -0.7580 -0.5233  0.7630
 9694TIP3    H250574   1.502   1.938  17.254 -1.3165  0.0679 -0.0421
 9695TIP3   OH250575   0.570   3.844  13.301 -0.0208 -0.3573 -0.5229
 9695TIP3    H150576   0.661   3.863  13.280  0.8393 -0.9444  2.3701
 9695TIP3    H250577   0.556   3.887  13.386 -1.5880 -2.5364  0.3753
 9696TIP3   OH250578   1.556   3.523   2.916 -0.4350 -0.2478  0.2314
 9696TIP3    H150579   1.635   3.480   2.883 -0.8509 -0.8399  0.0082
 9696TIP3    H250580   1.486   3.460   2.900 -1.3765  1.2579 -1.8710
 9697TIP3   OH250581   4.134   6.445  13.662  0.0643  0.0283 -0.7181
 9697TIP3    H150582   4.228   6.461  13.659 -0.1926  1.7436 -0.0099
 9697TIP3    H250583   4.124   6.368  13.718  0.9426  0.6460  0.2949
 9698TIP3   OH250584   4.269   2.471   4.441  0.4137 -0.1405  0.0971
 9698TIP3    H150585   4.231   2.432   4.362  0.9554  0.0263 -0.2494
 9698TIP3    H250586   4.351   2.423   4.453  0.3549 -0.1306  0.5317
 9699TIP3   OH250587   1.553   1.316  14.582 -0.2213  0.2241  0.6288
 9699TIP3    H150588   1.642   1.281  14.581 -0.2588  0.1435 -1.0106
 9699TIP3    H250589   1.496   1.240  14.571 -0.3939  0.5328 -0.6690
 9700TIP3   OH250590   6.744   3.240  14.298  0.0891  0.4073  0.1450
 9700TIP3    H150591   6.807   3.307  14.272  1.5962 -1.0212  0.0711
 9700TIP3    H250592   6.767   3.218  14.388 -0.4324  0.0286  0.1876
 9701TIP3   OH250593   0.566   0.199   6.003 -0.4014 -0.3082  0.0224
 9701TIP3    H150594   0.652   0.176   5.967 -0.3401 -2.8052  1.6312
 9701TIP3    H250595   0.549   0.287   5.970  2.4837 -0.0198 -0.8425
 9702TIP3   OH250596   3.461   5.009  12.412  0.5457 -0.5517 -0.0462
 9702TIP3    H150597   3.394   4.958  12.367 -0.2233  0.1776  0.2643
 9702TIP3    H250598   3.541   4.958  12.401 -0.1080 -1.5639 -0.1930
 9703TIP3   OH250599   1.618   3.034  11.913 -0.2011 -0.0517  0.3549
 9703TIP3    H150600   1.662   2.976  11.976  0.6225  0.2782  0.0897
 9703TIP3    H250601   1.537   3.059  11.957 -0.0660 -0.5562  0.9088
 9704TIP3   OH250602   6.261   0.148  16.056  0.2204 -0.4288 -0.4656
 9704TIP3    H150603   6.299   0.090  16.122 -1.3722 -1.0352 -0.0537
 9704TIP3    H250604   6.284   0.236  16.086 -2.6764 -0.5498  2.3969
 9705TIP3   OH250605   3.238   3.382   0.630  0.0646 -0.6473  0.5136
 9705TIP3    H150606   3.250   3.433   0.710 -1.1232 -0.6028  0.6707
 9705TIP3    H250607   3.325   3.379   0.590  0.1490  1.4738  0.5080
 9706TIP3   OH250608   3.110   2.734   1.610 -0.1579  0.2183  0.1562
 9706TIP3    H150609   3.025   2.735   1.567  0.5931 -0.1941 -1.3758
 9706TIP3    H250610   3.100   2.795   1.684 -1.7107  0.3069 -0.1069
 9707TIP3   OH250611   2.986   3.705   3.805 -0.5362 -0.4880 -0.1012
 9707TIP3    H150612   2.963   3.783   3.755  1.4564  0.2892  0.1547
 9707TIP3    H250613   2.995   3.636   3.739 -3.3598 -0.7879 -0.2170
 9708TIP3   OH250614   1.547   6.208  10.990  0.3759 -0.3720 -0.8489
 9708TIP3    H150615   1.567   6.289  10.944  1.5247  0.2669  0.7042
 9708TIP3    H250616   1.498   6.155  10.927 -1.7842  2.1415 -1.3752
 9709TIP3   OH250617   6.752   0.773  15.165  0.0621  0.3177  0.0865
 9709TIP3    H150618   6.755   0.701  15.102 -0.4185  0.5967 -0.2581
 9709TIP3    H250619   6.829   0.759  15.221 -0.7285 -1.1817  0.8283
 9710TIP3   OH250620   5.861   4.858  14.943  0.0737  0.0718  0.2867
 9710TIP3    H150621   5.781   4.812  14.969  0.4263 -1.7537 -1.6705
 9710TIP3    H250622   5.838   4.951  14.949 -1.4888 -0.3788  1.8291
 9711TIP3   OH250623   2.705   0.060  12.149  0.4319  0.3980  0.3378
 9711TIP3    H150624   2.698   0.148  12.112 -0.7639  0.3357  0.4255
 9711TIP3    H250625   2.619   0.021  12.135  1.2796 -1.1438 -0.6693
 9712TIP3   OH250626   4.781   4.145   2.014  0.5300 -0.0550  0.0317
 9712TIP3    H150627   4.817   4.092   2.085  0.1569 -0.9214 -0.4166
 9712TIP3    H250628   4.686   4.138   2.025  0.4699 -0.3434 -0.6534
 9713TIP3   OH250629   3.954   2.868   1.604 -0.1192  0.0788  0.4327
 9713TIP3    H150630   4.018   2.852   1.673  1.1502  0.1940 -0.6917
 9713TIP3    H250631   3.950   2.786   1.556  0.5055  0.6137 -0.5560
 9714TIP3   OH250632   4.377   1.609  12.503  0.0138 -0.4131  0.1208
 9714TIP3    H150633   4.322   1.554  12.559 -0.0192 -1.3684 -0.8396
 9714TIP3    H250634   4.395   1.555  12.426  1.1219  0.4182 -0.2136
 9715TIP3   OH250635   1.989   0.842   5.841 -0.2822 -0.1811  0.0838
 9715TIP3    H150636   2.050   0.785   5.886  0.4425 -1.0155 -1.8709
 9715TIP3    H250637   1.905   0.796   5.844 -0.7185  0.7099  2.2923
 9716TIP3   OH250638   4.951   0.496   1.172 -0.5514 -0.5687  0.1434
 9716TIP3    H150639   4.859   0.481   1.151 -1.2133  0.1212  2.3880
 9716TIP3    H250640   4.952   0.512   1.266  1.8010  0.0109  0.0593
 9717TIP3   OH250641   1.281   3.895  14.959  0.8827  0.2861  0.7078
 9717TIP3    H150642   1.306   3.907  15.050  2.7946  0.1375  0.2139
 9717TIP3    H250643   1.325   3.814  14.932 -0.2350 -0.0555 -0.1536
 9718TIP3   OH250644   0.923   6.230  14.716  0.2610  0.3940 -0.7333
 9718TIP3    H150645   0.902   6.233  14.810  1.5252 -0.5331 -0.4117
 9718TIP3    H250646   0.951   6.140  14.701  1.6128  0.9660 -1.6836
 9719TIP3   OH250647   6.326   0.982   6.663 -0.3993  0.4462 -0.0496
 9719TIP3    H150648   6.348   0.910   6.723  1.8883 -0.1108 -1.4713
 9719TIP3    H250649   6.285   0.938   6.588 -2.0798  1.0008  0.5347
 9720TIP3   OH250650   4.554   1.710  12.911 -0.6724 -0.0316  0.1485
 9720TIP3    H150651   4.508   1.737  12.832  2.3113  1.6863 -1.0671
 9720TIP3    H250652   4.601   1.788  12.940 -0.7779 -0.9617  2.9641
 9721TIP3   OH250653   0.975   3.859   0.580  0.0357  0.3743  0.0784
 9721TIP3    H150654   1.018   3.804   0.646 -1.6187 -0.0760  0.8128
 9721TIP3    H250655   0.927   3.924   0.630  2.5346  3.0059 -0.8037
 9722TIP3   OH250656   2.648   0.338  15.867 -0.5394  0.7624 -0.2566
 9722TIP3    H150657   2.557   0.362  15.851 -0.8904 -0.3824 -0.0587
 9722TIP3    H250658   2.677   0.297  15.785 -0.4698  0.3736 -0.0418
 9723TIP3   OH250659   0.907   2.895   2.910  0.4797  0.7349  0.8552
 9723TIP3    H150660   0.828   2.943   2.934 -0.1211  0.1840 -0.0033
 9723TIP3    H250661   0.967   2.908   2.984 -0.4981  0.9430  1.6131
 9724TIP3   OH250662   6.670   2.641  16.661  0.7001  0.3156 -0.3450
 9724TIP3    H150663   6.650   2.687  16.579 -0.3031  2.2958  0.9810
 9724TIP3    H250664   6.616   2.562  16.657 -0.9639  1.4349 -0.6604
 9725TIP3   OH250665   5.238   3.373  15.824 -0.3215 -0.0760 -1.1277
 9725TIP3    H150666   5.220   3.313  15.897 -2.2160  0.1962 -1.3381
 9725TIP3    H250667   5.279   3.318  15.757 -2.2375 -1.2043 -1.4047
 9726TIP3   OH250668   2.435   0.602   0.843  0.0729 -0.2708 -0.5669
 9726TIP3    H150669   2.468   0.579   0.930 -0.5766 -0.4166 -0.3539
 9726TIP3    H250670   2.466   0.531   0.787 -0.9140 -1.0700 -0.1326
 9727TIP3   OH250671   0.970   5.094  14.729  0.1087  0.5063 -0.1907
 9727TIP3    H150672   0.974   5.003  14.760  3.3976  0.2640 -1.1211
 9727TIP3    H250673   0.891   5.130  14.770  0.0950 -2.0475  2.1712
 9728TIP3   OH250674   3.077   3.172   4.610 -0.4883 -0.2489 -0.2744
 9728TIP3    H150675   2.996   3.215   4.579 -0.6375  0.1505  0.6570
 9728TIP3    H250676   3.144   3.201   4.548 -0.9397 -0.0845 -0.6932
 9729TIP3   OH250677   5.140   3.573  15.964  0.5876 -0.1390  0.0533
 9729TIP3    H150678   5.165   3.536  16.049 -2.1657 -2.0060  0.0869
 9729TIP3    H250679   5.167   3.506  15.900  1.3694  0.6436 -0.4542
 9730TIP3   OH250680   2.112   1.577  10.758  0.1891 -0.1482  0.4710
 9730TIP3    H150681   2.164   1.497  10.758 -0.1422 -0.3636  0.8853
 9730TIP3    H250682   2.172   1.644  10.726  0.4792 -0.5528  0.1498
 9731TIP3   OH250683   6.808   3.535   0.593  0.2430 -0.2622 -0.1847
 9731TIP3    H150684   6.888   3.532   0.541 -0.0881  0.5154 -0.7534
 9731TIP3    H250685   6.789   3.444   0.614  1.2768 -0.4503 -0.0408
 9732TIP3   OH250686   0.183   3.970  13.661  0.1882 -0.0357 -0.0041
 9732TIP3    H150687   0.209   4.010  13.744  0.4891 -0.4806  0.1152
 9732TIP3    H250688   0.185   3.876  13.678 -3.0675 -0.0967  0.4921
 9733TIP3   OH250689   3.046   4.915  17.277 -0.5931 -0.4389  0.1553
 9733TIP3    H150690   3.057   4.852  17.348  1.6386 -0.0171  0.2393
 9733TIP3    H250691   2.985   4.874  17.216  1.1358 -2.8703  0.0016
 9734TIP3   OH250692   1.026   2.684   4.660 -0.2098  0.1775  0.3187
 9734TIP3    H150693   1.023   2.688   4.565 -0.7322  1.7147  0.3969
 9734TIP3    H250694   1.119   2.690   4.681 -0.1518  0.5690 -0.0579
 9735TIP3   OH250695   4.364   6.338  17.229  0.4897  0.6473 -0.2135
 9735TIP3    H150696   4.378   6.432  17.245 -1.7956  0.9511  0.1529
 9735TIP3    H250697   4.326   6.335  17.141  3.1258 -0.1967 -1.3914
 9736TIP3   OH250698   4.952   4.905  15.649  0.3844  0.8016 -0.5401
 9736TIP3    H150699   4.892   4.832  15.633  1.5755  0.1897 -2.4835
 9736TIP3    H250700   5.036   4.874  15.616  1.3729  2.2991  0.5219
 9737TIP3   OH250701   3.567   3.011   4.669  0.0088 -0.0357 -0.0593
 9737TIP3    H150702   3.617   2.930   4.663 -1.1645 -0.7514 -0.4334
 9737TIP3    H250703   3.512   3.000   4.746 -0.8369 -0.0012 -0.6446
 9738TIP3   OH250704   5.930   1.772   1.185 -0.5419  0.5081  0.5073
 9738TIP3    H150705   5.973   1.698   1.142  1.5882  1.4683  0.8930
 9738TIP3    H250706   5.927   1.841   1.118 -1.1755  0.5674  0.5919
 9739TIP3   OH250707   4.310   1.401  11.670  0.1817 -0.3766  0.8358
 9739TIP3    H150708   4.248   1.469  11.644  1.9594  0.9356 -0.1078
 9739TIP3    H250709   4.294   1.328  11.610 -0.2969  0.0429  0.4570
 9740TIP3   OH250710   1.222   0.552   4.553  0.7502  0.1884 -0.4645
 9740TIP3    H150711   1.283   0.612   4.510 -0.0622  1.5385  0.2424
 9740TIP3    H250712   1.140   0.600   4.557  0.6681 -0.1315  2.1113
 9741TIP3   OH250713   0.588   1.995   1.017 -0.5208  0.3342 -0.4173
 9741TIP3    H150714   0.661   1.993   1.079 -0.2063  0.1458 -0.7909
 9741TIP3    H250715   0.568   2.088   1.007 -0.3592  0.3843 -0.2852
 9742TIP3   OH250716   6.176   0.581   6.462  0.4577  0.5696 -0.0245
 9742TIP3    H150717   6.193   0.527   6.539 -1.9080  0.0661  0.1794
 9742TIP3    H250718   6.250   0.642   6.458  1.7700 -0.9140  1.3020
 9743TIP3   OH250719   2.546   0.504   1.413 -0.0397 -0.3986  0.1555
 9743TIP3    H150720   2.492   0.541   1.343  1.1860  0.0534 -0.5676
 9743TIP3    H250721   2.531   0.562   1.488 -0.0060  0.1406 -0.2508
 9744TIP3   OH250722   6.764   6.473   3.164  0.3095 -0.0721  0.5487
 9744TIP3    H150723   6.730   6.401   3.111  0.8006  0.0164  0.1142
 9744TIP3    H250724   6.689   6.532   3.173  0.0017 -0.4678  0.6224
 9745TIP3   OH250725   0.233   5.378   3.141  0.2750  0.1451  0.3612
 9745TIP3    H150726   0.246   5.457   3.088 -0.6528 -1.1300 -1.8646
 9745TIP3    H250727   0.192   5.409   3.221 -2.1527  1.7411 -1.4099
 9746TIP3   OH250728   3.707   3.428  13.985 -0.1777 -0.2288 -0.3532
 9746TIP3    H150729   3.667   3.421  14.072  0.7862  0.6668  0.1671
 9746TIP3    H250730   3.701   3.521  13.963  2.6743  0.1400  0.2531
 9747TIP3   OH250731   5.601   0.793  15.862 -0.4020 -0.2714  0.1541
 9747TIP3    H150732   5.596   0.727  15.931 -1.0294 -0.1962  0.1811
 9747TIP3    H250733   5.687   0.835  15.874 -0.2930 -0.6127  0.5585
 9748TIP3   OH250734   4.703   5.649   2.714  0.1711  0.3542  0.0699
 9748TIP3    H150735   4.709   5.665   2.808 -0.0884 -3.7431  0.8803
 9748TIP3    H250736   4.788   5.610   2.691 -1.0349 -2.0097 -0.5881
 9749TIP3   OH250737   5.117   6.325   2.983 -0.0449 -0.2652  0.0697
 9749TIP3    H150738   5.142   6.371   2.904  0.8448 -0.3409  0.2980
 9749TIP3    H250739   5.038   6.275   2.959  1.7457 -2.4329 -1.5499
 9750TIP3   OH250740   2.447   4.703   0.854 -0.4248  0.2862 -0.4054
 9750TIP3    H150741   2.523   4.671   0.806 -1.0905  0.1835 -1.3879
 9750TIP3    H250742   2.375   4.699   0.792 -1.4811 -0.6519  0.8480
 9751TIP3   OH250743   6.113   3.925  12.918 -0.3867  0.1957  0.1850
 9751TIP3    H150744   6.094   3.833  12.935 -0.9536  0.3848  0.5706
 9751TIP3    H250745   6.136   3.927  12.825 -1.8524 -0.1020 -0.1925
 9752TIP3   OH250746   3.832   1.945  12.764 -0.2307  0.2883  0.0602
 9752TIP3    H150747   3.914   1.993  12.778  0.3565 -0.3643 -1.0956
 9752TIP3    H250748   3.771   1.982  12.829  0.7808  1.2298  0.4847
 9753TIP3   OH250749   5.949   4.262  12.187 -0.2784  0.2703 -0.3436
 9753TIP3    H150750   5.960   4.345  12.234 -2.5486  0.1919  0.3706
 9753TIP3    H250751   5.971   4.283  12.096 -1.2766  1.7925 -0.2526
 9754TIP3   OH250752   0.813   5.041   0.168 -0.0425 -0.5108  0.4902
 9754TIP3    H150753   0.760   5.094   0.228 -0.1620 -0.9990  0.8177
 9754TIP3    H250754   0.898   5.085   0.165 -0.1662 -0.2609  0.7011
 9755TIP3   OH250755   4.237   0.565   5.510  0.3426 -0.1976  0.2721
 9755TIP3    H150756   4.190   0.633   5.559 -0.1162 -1.0129  0.9739
 9755TIP3    H250757   4.321   0.556   5.556  1.1085  1.0784 -0.8297
 9756TIP3   OH250758   5.258   2.139   2.613 -0.3253 -0.0164  0.2930
 9756TIP3    H150759   5.293   2.228   2.623  1.8249 -0.8087  0.1995
 9756TIP3    H250760   5.291   2.109   2.529 -0.4677 -1.1415  0.6248
 9757TIP3   OH250761   4.472   1.286   1.069  0.5553  0.0732 -0.3387
 9757TIP3    H150762   4.509   1.295   0.981 -0.8062  1.3646 -0.8011
 9757TIP3    H250763   4.377   1.289   1.056  0.3345  0.2870  1.1683
 9758TIP3   OH250764   4.477   0.603  14.662  0.1756 -0.0080 -0.1600
 9758TIP3    H150765   4.522   0.602  14.577 -1.7222  2.0342 -1.2514
 9758TIP3    H250766   4.415   0.530  14.656 -0.2819  0.4186 -0.7404
 9759TIP3   OH250767   1.785   4.231  16.278  0.8579 -0.5749 -0.5655
 9759TIP3    H150768   1.718   4.246  16.211  1.4156  1.3986 -0.7185
 9759TIP3    H250769   1.745   4.170  16.339 -0.3443 -0.9501 -1.7145
 9760TIP3   OH250770   4.650   1.403  12.793 -0.2165  0.2234 -0.0051
 9760TIP3    H150771   4.692   1.489  12.799 -0.6358  0.4567 -0.3661
 9760TIP3    H250772   4.716   1.342  12.826 -0.1192  0.7432  0.7721
 9761TIP3   OH250773   3.157   1.028   1.698  0.2926 -0.3659 -0.5047
 9761TIP3    H150774   3.081   1.076   1.664  0.6332 -0.3419 -1.2457
 9761TIP3    H250775   3.157   1.046   1.792 -0.2390  0.1670 -0.6014
 9762TIP3   OH250776   1.319   0.125  14.812  0.4445  0.6738  0.0174
 9762TIP3    H150777   1.346   0.059  14.876 -2.3932 -0.0505  0.5175
 9762TIP3    H250778   1.356   0.094  14.729  1.7139  0.0935  0.7834
 9763TIP3   OH250779   1.722   6.106   0.980 -0.6032 -0.3655 -0.2419
 9763TIP3    H150780   1.750   6.026   1.024  2.2713 -0.4267 -2.0147
 9763TIP3    H250781   1.765   6.103   0.895 -0.4044  3.0631 -0.3418
 9764TIP3   OH250782   2.653   6.326   4.689 -0.2625  0.5303  0.4318
 9764TIP3    H150783   2.668   6.275   4.769  2.1634 -0.5093 -0.6280
 9764TIP3    H250784   2.620   6.262   4.626  2.0539  0.3448 -0.6717
 9765TIP3   OH250785   6.004   6.210  15.748 -0.0498  0.0325  0.2728
 9765TIP3    H150786   5.936   6.269  15.713  1.2244  1.9916  1.0109
 9765TIP3    H250787   6.076   6.218  15.687  0.1278 -0.7762  0.3816
 9766TIP3   OH250788   6.793   0.454  16.960 -0.6633 -0.7910  0.7134
 9766TIP3    H150789   6.877   0.408  16.964  0.4083  1.1111  0.2976
 9766TIP3    H250790   6.795   0.514  17.034 -2.0414 -1.3293  1.2136
 9767TIP3   OH250791   1.647   4.607   2.913 -0.1232  0.3006  0.2940
 9767TIP3    H150792   1.564   4.639   2.879 -0.9704 -0.6113  1.4626
 9767TIP3    H250793   1.641   4.512   2.905  1.7450  0.3006 -1.7334
 9768TIP3   OH250794   2.909   0.249  16.546  0.5773 -0.2578 -0.3262
 9768TIP3    H150795   2.955   0.166  16.554 -0.0514 -0.9366 -3.3492
 9768TIP3    H250796   2.830   0.237  16.600  0.3525 -1.7176 -0.9635
 9769TIP3   OH250797   3.804   4.741  13.979  0.3657 -0.1176  0.2731
 9769TIP3    H150798   3.755   4.756  13.898  0.6468 -0.5352  0.0247
 9769TIP3    H250799   3.804   4.646  13.990  0.7162 -0.0908  0.5248
 9770TIP3   OH250800   0.314   5.044  11.378 -0.3582  0.0698 -0.4262
 9770TIP3    H150801   0.336   5.049  11.471 -3.9203  1.6196  0.3884
 9770TIP3    H250802   0.234   4.992  11.375  0.3702 -0.9773 -2.7873
 9771TIP3   OH250803   0.678   2.906   6.009 -0.2038  0.4722 -0.1801
 9771TIP3    H150804   0.644   2.831   6.057 -0.0184  0.3910 -0.1729
 9771TIP3    H250805   0.690   2.874   5.920 -0.7033  0.6706 -0.3203
 9772TIP3   OH250806   0.036   3.901  16.551 -0.3398 -0.4675 -0.0576
 9772TIP3    H150807   0.113   3.849  16.574 -0.5936  0.0033  1.9178
 9772TIP3    H250808  -0.035   3.836  16.545 -0.5149 -0.4614  1.7258
 9773TIP3   OH250809   5.456   1.878  15.121  0.1395 -0.0045 -0.4610
 9773TIP3    H150810   5.421   1.964  15.144  0.9888  0.1660  0.2663
 9773TIP3    H250811   5.547   1.881  15.151  0.5647 -0.6813 -1.6624
 9774TIP3   OH250812   5.130   6.653  15.112 -0.2362 -0.7366 -0.5708
 9774TIP3    H150813   5.042   6.689  15.100 -0.9696 -1.8653  1.2431
 9774TIP3    H250814   5.188   6.729  15.106 -1.3104  0.0193 -1.7508
 9775TIP3   OH250815   4.661   2.823  15.064  0.0412 -0.3194 -0.5530
 9775TIP3    H150816   4.616   2.880  15.002  3.1455  0.3979 -2.2624
 9775TIP3    H250817   4.707   2.759  15.009  0.9135 -1.1690  1.1102
 9776TIP3   OH250818   1.804   1.955   4.755 -0.0163 -0.7603 -0.2895
 9776TIP3    H150819   1.764   1.868   4.753 -0.0229 -0.7472 -0.8348
 9776TIP3    H250820   1.837   1.968   4.666  2.7741 -1.5050  0.6133
 9777TIP3   OH250821   3.701   0.251   0.984 -0.0066  0.3756 -0.2706
 9777TIP3    H150822   3.751   0.275   0.905 -0.9804  0.5982 -0.8253
 9777TIP3    H250823   3.610   0.266   0.960 -0.5301 -2.3910 -0.0954
 9778TIP3   OH250824   2.792   4.128   3.735 -0.5772  0.0120 -0.4714
 9778TIP3    H150825   2.826   4.198   3.680 -0.4549  0.9008  0.7083
 9778TIP3    H250826   2.835   4.048   3.703  2.5442  1.0688  0.8599
 9779TIP3   OH250827   0.464   1.853   1.227  0.0545 -0.6571  0.3301
 9779TIP3    H150828   0.458   1.918   1.298  2.1771 -0.7062  0.5860
 9779TIP3    H250829   0.463   1.905   1.147  0.9352 -0.3714  0.5058
 9780TIP3   OH250830   0.581   6.153   5.907 -0.1535 -0.0271 -0.3467
 9780TIP3    H150831   0.655   6.102   5.940 -0.1427 -0.7081 -1.3810
 9780TIP3    H250832   0.531   6.176   5.985  0.4464 -0.6711  0.2402
 9781TIP3   OH250833   5.264   5.693  11.656 -0.0642  0.0286  0.0910
 9781TIP3    H150834   5.224   5.743  11.727 -0.9529  0.2087 -0.5184
 9781TIP3    H250835   5.202   5.703  11.583 -0.5664 -2.4756  0.1404
 9782TIP3   OH250836   2.029   3.426  16.699 -0.2840  0.0633 -0.0267
 9782TIP3    H150837   2.026   3.497  16.635  0.7025  0.2000  0.0634
 9782TIP3    H250838   2.010   3.347  16.647 -3.1728  0.5611  0.2035
 9783TIP3   OH250839   4.689   4.906   0.384  0.0042 -0.2400  0.1207
 9783TIP3    H150840   4.621   4.866   0.439  0.2597 -0.9417 -0.0784
 9783TIP3    H250841   4.765   4.848   0.393 -0.1532 -0.7139 -1.4821
 9784TIP3   OH250842   4.206   6.111  14.052 -0.6217  0.3307  0.2518
 9784TIP3    H150843   4.183   6.095  13.960  1.6682 -1.8283  0.0010
 9784TIP3    H250844   4.123   6.135  14.093 -1.7951  0.7911 -2.2556
 9785TIP3   OH250845   1.420   6.357   4.698  0.1006 -0.1251 -0.0297
 9785TIP3    H150846   1.371   6.284   4.660  1.1795 -0.6593 -0.4039
 9785TIP3    H250847   1.361   6.394   4.763 -0.7259 -0.8892 -0.3352
 9786TIP3   OH250848   3.373   2.713  13.187 -0.0492 -0.8275 -0.0876
 9786TIP3    H150849   3.452   2.684  13.142  0.8744 -0.9013  1.5298
 9786TIP3    H250850   3.394   2.802  13.217 -0.2408 -1.1942  1.1337
 9787TIP3   OH250851   2.409   1.739   5.150 -0.0926 -0.0932  0.2169
 9787TIP3    H150852   2.462   1.699   5.081 -0.4785 -0.1704 -0.0384
 9787TIP3    H250853   2.425   1.686   5.228 -2.9614 -2.6729 -0.8321
 9788TIP3   OH250854   5.904   3.196   4.852 -0.6264  0.0115  0.1323
 9788TIP3    H150855   5.976   3.146   4.815  1.5817  1.8239  1.7856
 9788TIP3    H250856   5.852   3.132   4.900  0.4472 -1.1663 -0.2541
 9789TIP3   OH250857   5.913   5.544  14.975  0.7420  0.2045  0.2718
 9789TIP3    H150858   5.885   5.615  15.032 -0.2112  0.4612 -0.5165
 9789TIP3    H250859   5.843   5.535  14.910  1.3366 -0.7606 -0.2530
 9790TIP3   OH250860   3.976   3.093  10.346  0.4270 -0.3095 -0.5954
 9790TIP3    H150861   3.942   3.019  10.296 -1.3849  0.2794 -0.2680
 9790TIP3    H250862   3.932   3.088  10.430  0.0346  1.3216 -0.6849
 9791TIP3   OH250863   1.538   5.161  12.147  0.2899 -0.1287 -0.0010
 9791TIP3    H150864   1.444   5.177  12.155  0.4593  0.2404  1.2444
 9791TIP3    H250865   1.566   5.218  12.075  0.0137  1.6555  1.2752
 9792TIP3   OH250866   4.233   0.664   3.484 -0.0713  0.2097  0.4945
 9792TIP3    H150867   4.151   0.713   3.481 -0.9379 -1.2423 -0.0796
 9792TIP3    H250868   4.251   0.654   3.578 -0.0403  1.3481  0.6183
 9793TIP3   OH250869   1.778   2.762  11.829 -0.2661  0.1232  0.1578
 9793TIP3    H150870   1.829   2.828  11.875 -0.2860  0.4281 -0.2638
 9793TIP3    H250871   1.816   2.757  11.742 -0.2739 -0.4107  0.1800
 9794TIP3   OH250872   1.384   4.617   6.088 -0.7833  0.2441  0.0861
 9794TIP3    H150873   1.361   4.541   6.141 -0.5091  0.0110 -0.1237
 9794TIP3    H250874   1.479   4.625   6.099 -0.9707  1.2526  1.0277
 9795TIP3   OH250875   5.477   6.721  14.392 -0.4165  0.1569 -0.3792
 9795TIP3    H150876   5.405   6.750  14.447  1.1855 -0.3566  2.0332
 9795TIP3    H250877   5.542   6.791  14.396  0.4428 -0.6272 -0.1858
 9796TIP3   OH250878   4.644   1.505   4.191  0.2061  0.5762  0.2755
 9796TIP3    H150879   4.631   1.411   4.205  0.3429  0.8815  2.6120
 9796TIP3    H250880   4.578   1.547   4.245  1.1929  1.8502  0.5187
 9797TIP3   OH250881   4.566   1.639  11.037  0.1104 -0.0300  0.1050
 9797TIP3    H150882   4.643   1.616  10.985  0.8706  0.3998  1.0204
 9797TIP3    H250883   4.507   1.565  11.025  0.6251 -0.3226 -0.6893
 9798TIP3   OH250884   5.558   4.231   3.003 -0.3100  0.2074  0.0524
 9798TIP3    H150885   5.507   4.301   2.962 -0.3967 -0.8162 -1.6118
 9798TIP3    H250886   5.649   4.255   2.987 -0.3512 -0.8015 -1.8371
 9799TIP3   OH250887   2.595   2.797   1.219  0.1902 -0.0162 -0.2693
 9799TIP3    H150888   2.618   2.887   1.241  1.1638 -0.0201 -1.2415
 9799TIP3    H250889   2.502   2.800   1.198  0.1962  0.7458 -0.1971
 9800TIP3   OH250890   0.904   1.185   5.032  0.0607  0.2314 -0.3739
 9800TIP3    H150891   0.938   1.133   5.105 -0.6332 -1.1200 -0.9982
 9800TIP3    H250892   0.860   1.121   4.976 -2.3893  1.7190 -0.2174
 9801TIP3   OH250893   3.307   6.251  12.452 -0.0791  0.0399 -0.4091
 9801TIP3    H150894   3.383   6.287  12.499 -1.7549  1.0132  1.6599
 9801TIP3    H250895   3.309   6.295  12.367  0.4815  1.6983  0.4251
 9802TIP3   OH250896   5.104   5.977   4.025  0.1443 -0.0767  0.5173
 9802TIP3    H150897   5.185   5.972   3.974  0.6899 -0.8131  1.4344
 9802TIP3    H250898   5.104   6.065   4.061 -0.0119  0.2904 -0.3821
 9803TIP3   OH250899   4.872   0.666   3.692  0.5426  0.0749  0.0138
 9803TIP3    H150900   4.954   0.623   3.716  0.7954  0.8626  0.5808
 9803TIP3    H250901   4.899   0.753   3.660 -0.2178  1.2625  2.4706
 9804TIP3   OH250902   0.285   6.785   0.643 -0.1957 -0.0134 -0.0311
 9804TIP3    H150903   0.372   6.750   0.666  0.4410 -0.2317 -2.6789
 9804TIP3    H250904   0.229   6.707   0.639 -0.5664  0.1386  1.7823
 9805TIP3   OH250905   6.721   2.313   1.434 -0.3338  0.7108  0.0467
 9805TIP3    H150906   6.802   2.352   1.399 -0.5399  2.2340  1.2198
 9805TIP3    H250907   6.750   2.232   1.475  0.5951  1.2305  0.4292
 9806TIP3   OH250908   6.117   0.983   5.924  0.1254  0.1375  0.5215
 9806TIP3    H150909   6.050   1.005   5.860  0.4030 -2.1872 -0.6344
 9806TIP3    H250910   6.072   0.987   6.008 -0.8228  1.0288 -0.0194
 9807TIP3   OH250911   5.992   4.030  13.137  0.7082  0.1366  0.1085
 9807TIP3    H150912   6.055   4.069  13.197  1.4091  0.6192 -0.9303
 9807TIP3    H250913   6.046   3.997  13.065 -0.2272  0.5419 -0.7780
 9808TIP3   OH250914   3.413   4.840   0.386 -0.2100  0.2491 -0.4950
 9808TIP3    H150915   3.331   4.881   0.413 -0.0082  0.6134 -0.4372
 9808TIP3    H250916   3.401   4.822   0.293 -0.0624  0.9980 -0.6586
 9809TIP3   OH250917   6.358   5.200  11.869 -0.3336  0.0470  0.1874
 9809TIP3    H150918   6.390   5.110  11.867 -0.9239 -0.1666  0.3279
 9809TIP3    H250919   6.431   5.251  11.906 -0.3942 -0.5337  1.1164
 9810TIP3   OH250920   1.986   0.008  11.365 -0.2018  0.5515  0.1363
 9810TIP3    H150921   1.993  -0.083  11.337 -0.1216 -0.0965  2.2112
 9810TIP3    H250922   2.076   0.035  11.381 -0.3851  0.2845  1.6851
 9811TIP3   OH250923   5.174   1.335  13.981  0.4697 -0.6519  0.2932
 9811TIP3    H150924   5.245   1.330  13.917  0.8637 -2.4620  0.8568
 9811TIP3    H250925   5.210   1.387  14.053  0.2059  0.9306 -0.6777
 9812TIP3   OH250926   3.487   4.586  14.850  0.2596  0.2792 -0.0466
 9812TIP3    H150927   3.568   4.536  14.836  0.5619  1.4874 -3.1518
 9812TIP3    H250928   3.443   4.583  14.765 -1.3617  2.4448  0.6799
 9813TIP3   OH250929   3.255   1.334  11.322  0.8739 -0.2095 -0.1601
 9813TIP3    H150930   3.321   1.310  11.257  1.9154  0.8158  0.5073
 9813TIP3    H250931   3.266   1.269  11.392  1.6818  0.4039  0.2887
 9814TIP3   OH250932   3.880   6.195  12.036  0.6951  0.6826 -0.4548
 9814TIP3    H150933   3.947   6.220  12.099  0.6956 -0.1426 -0.1188
 9814TIP3    H250934   3.897   6.102  12.018 -0.1544  0.5526 -0.6102
 9815TIP3   OH250935   2.433   4.288   2.950 -0.0949 -0.0094  0.1523
 9815TIP3    H150936   2.385   4.367   2.924  1.2244  0.7728  0.0463
 9815TIP3    H250937   2.409   4.223   2.884 -0.1327  0.7020 -0.5404
 9816TIP3   OH250938   4.771   3.769   2.002 -0.2406 -0.4796  0.0078
 9816TIP3    H150939   4.832   3.835   1.969 -0.4863  0.0223  0.5574
 9816TIP3    H250940   4.826   3.703   2.044  0.0355 -0.8412 -0.9053
 9817TIP3   OH250941   6.341   5.516   5.432 -0.5341  0.0733  0.1325
 9817TIP3    H150942   6.376   5.555   5.351 -1.5843  0.0489 -0.3509
 9817TIP3    H250943   6.342   5.588   5.495  0.2317  0.1130  0.0794
 9818TIP3   OH250944   2.524   0.360  10.814  0.3002 -0.9090  0.1421
 9818TIP3    H150945   2.463   0.312  10.869  0.9732  0.6950  2.3466
 9818TIP3    H250946   2.611   0.339  10.849  0.8290 -0.8909 -1.1207
 9819TIP3   OH250947   5.812   3.707   5.406 -0.0110  0.1944  0.3479
 9819TIP3    H150948   5.837   3.662   5.487  1.1775  1.0882  0.4827
 9819TIP3    H250949   5.890   3.702   5.350 -1.1881 -1.4368 -1.2188
 9820TIP3   OH250950   1.359   0.163  17.287  0.1131  0.0218 -0.0921
 9820TIP3    H150951   1.296   0.181  17.217 -0.6322 -0.5855  0.4088
 9820TIP3    H250952   1.312   0.184  17.368  0.9602  0.7011  0.2440
 9821TIP3   OH250953   6.292   3.853   1.318 -0.0344  0.3567  0.2584
 9821TIP3    H150954   6.261   3.830   1.406  2.6292 -0.9057  0.9266
 9821TIP3    H250955   6.231   3.809   1.259 -1.3437  0.4939  1.4842
 9822TIP3   OH250956   2.754   2.116  17.010  0.1501 -0.6153 -0.0429
 9822TIP3    H150957   2.820   2.093  16.944 -0.0220 -0.4064 -0.2845
 9822TIP3    H250958   2.671   2.117  16.962  0.3777  2.3839 -0.4777
 9823TIP3   OH250959   2.132   2.349   3.272  0.0595  0.6893 -0.4153
 9823TIP3    H150960   2.145   2.388   3.185  1.0620  0.1662 -0.5038
 9823TIP3    H250961   2.082   2.415   3.320  0.1727  1.3112 -1.1418
 9824TIP3   OH250962   3.348   5.552  14.851 -0.5267  0.9418 -0.2271
 9824TIP3    H150963   3.370   5.459  14.841  1.1161  1.2839  0.0609
 9824TIP3    H250964   3.256   5.558  14.825 -0.8745 -0.8980  0.5027
 9825TIP3   OH250965   2.829   2.246   4.655 -0.2546 -0.2651 -0.2239
 9825TIP3    H150966   2.778   2.320   4.685  0.1700  0.9980 -2.4946
 9825TIP3    H250967   2.766   2.175   4.647 -1.1117  0.4981 -0.2816
 9826TIP3   OH250968   6.369   3.893   4.576 -0.0586 -0.4089 -0.6654
 9826TIP3    H150969   6.282   3.853   4.570 -0.2870  0.0893 -0.6854
 9826TIP3    H250970   6.362   3.955   4.649  0.5970 -1.1581  0.0495
 9827TIP3   OH250971   6.210   0.553  16.413 -0.0155  0.1616 -0.5839
 9827TIP3    H150972   6.163   0.619  16.363 -1.0634  1.6798  2.3135
 9827TIP3    H250973   6.289   0.597  16.444  0.1559 -0.4689 -0.0977
 9828TIP3   OH250974   5.757   4.423   2.358  0.6315  0.3129  0.2704
 9828TIP3    H150975   5.695   4.496   2.356  0.1747 -0.1074 -2.3976
 9828TIP3    H250976   5.747   4.381   2.273  1.1968 -2.6192  1.5907
 9829TIP3   OH250977   5.026   0.348  15.202 -0.0175 -0.0278  0.2071
 9829TIP3    H150978   4.931   0.337  15.205 -0.1101  0.0968 -1.6385
 9829TIP3    H250979   5.058   0.302  15.279 -1.4813 -1.2211  0.1293
 9830TIP3   OH250980   0.186   2.259   1.614 -0.3495 -0.1220  0.1237
 9830TIP3    H150981   0.154   2.226   1.697 -0.8430  0.2881  0.0926
 9830TIP3    H250982   0.279   2.279   1.630 -0.7957  1.3316  0.9715
 9831TIP3   OH250983   3.314   5.223   0.002 -0.4827  0.2254  0.1288
 9831TIP3    H150984   3.321   5.283   0.076 -0.9736 -1.4452  1.5847
 9831TIP3    H250985   3.220   5.219  -0.017 -0.6566 -1.4673  1.2535
 9832TIP3   OH250986   0.357   6.704  12.067 -0.2439 -0.3326  0.7954
 9832TIP3    H150987   0.363   6.623  12.016 -0.6277  0.2003 -0.0990
 9832TIP3    H250988   0.320   6.768  12.006 -0.6475  0.3233  1.7227
 9833TIP3   OH250989   1.796   0.072   1.367 -0.5590 -0.0336 -0.2718
 9833TIP3    H150990   1.856   0.106   1.433 -0.2654 -1.9223  0.4535
 9833TIP3    H250991   1.709   0.099   1.397 -0.1877  1.8704 -0.8201
 9834TIP3   OH250992   5.767   4.025   6.387 -0.0745  0.5713  0.1267
 9834TIP3    H150993   5.788   3.977   6.307 -0.9434  0.9138 -0.3170
 9834TIP3    H250994   5.759   3.957   6.455 -0.6659  0.1415 -0.3627
 9835TIP3   OH250995   1.271   2.413  10.827 -0.5704  0.2199 -0.2571
 9835TIP3    H150996   1.286   2.320  10.842  0.2888  0.5396  0.9927
 9835TIP3    H250997   1.199   2.435  10.886 -1.6663  0.0723 -1.5232
 9836TIP3   OH250998   4.354   6.141  16.779 -0.3460 -0.1720  0.0384
 9836TIP3    H150999   4.312   6.114  16.697  0.3024  0.3450 -0.4676
 9836TIP3    H251000   4.443   6.107  16.772  0.3499  1.7212 -0.4179
 9837TIP3   OH251001   1.338   2.376   3.802  0.1296  0.4857 -0.9331
 9837TIP3    H151002   1.318   2.469   3.817 -0.6784  0.4051 -1.4954
 9837TIP3    H251003   1.308   2.360   3.712  0.8424 -0.1593 -1.0561
 9838TIP3   OH251004   2.913   4.729  16.013 -0.1451 -0.2285  0.0675
 9838TIP3    H151005   2.834   4.776  15.986 -1.4540 -1.6822  1.2682
 9838TIP3    H251006   2.982   4.763  15.956 -1.0767  2.9607  0.7607
 9839TIP3   OH251007   3.811   2.492   1.436 -0.6944 -0.2086 -0.2353
 9839TIP3    H151008   3.734   2.492   1.379 -0.2928  2.2304 -0.8423
 9839TIP3    H251009   3.775   2.485   1.525 -1.5486 -0.1751 -0.5784
 9840TIP3   OH251010   1.332   6.718   4.221 -1.0870 -0.0590 -0.6771
 9840TIP3    H151011   1.360   6.691   4.309  0.3304 -1.5405 -1.5605
 9840TIP3    H251012   1.293   6.639   4.184 -3.9063  1.2043 -0.5228
 9841TIP3   OH251013   1.412   4.269   0.237 -0.5905 -0.0666 -0.3691
 9841TIP3    H151014   1.388   4.193   0.290 -0.4596 -1.3816 -2.1501
 9841TIP3    H251015   1.499   4.248   0.203 -0.1141  1.3404 -0.0766
 9842TIP3   OH251016   3.575   4.757   3.268  0.3047 -0.6445  0.0529
 9842TIP3    H151017   3.539   4.675   3.301  0.1094 -0.7439 -0.4126
 9842TIP3    H251018   3.499   4.805   3.234  0.4993 -0.5135 -0.1975
 9843TIP3   OH251019   1.726   0.860  12.776  0.2692 -0.2242 -0.2596
 9843TIP3    H151020   1.733   0.873  12.870 -0.8946 -0.2864 -0.1576
 9843TIP3    H251021   1.810   0.823  12.751  0.6548 -0.0357  0.7229
 9844TIP3   OH251022   6.159   0.038  13.324 -0.2134 -0.2521  0.1377
 9844TIP3    H151023   6.098   0.112  13.330  0.7623  0.5302  0.5260
 9844TIP3    H251024   6.105  -0.039  13.342 -0.5385  0.6552  3.3866
 9845TIP3   OH251025   5.391   0.330  12.242 -0.2399  0.1410  0.6512
 9845TIP3    H151026   5.309   0.378  12.249  0.4971  1.4254  0.6613
 9845TIP3    H251027   5.450   0.374  12.304  0.8232  0.0432 -0.2694
 9846TIP3   OH251028   2.123   1.442  16.306 -0.4714 -0.4149 -0.4680
 9846TIP3    H151029   2.154   1.517  16.256 -1.6009  0.4440  0.0796
 9846TIP3    H251030   2.058   1.479  16.367  0.5602 -1.4873  1.3322
 9847TIP3   OH251031   2.438   6.576   5.341  0.1794  0.2216  0.2597
 9847TIP3    H151032   2.442   6.668   5.316  0.4557 -0.2773 -1.6186
 9847TIP3    H251033   2.529   6.548   5.345  0.0612 -0.2990 -0.5048
 9848TIP3   OH251034   0.566   2.959   4.378 -0.4725 -0.4138  0.4445
 9848TIP3    H151035   0.559   2.869   4.409  0.4396 -0.3390  0.8868
 9848TIP3    H251036   0.495   3.006   4.422 -0.7545 -0.8503  0.4539
 9849TIP3   OH251037   3.410   2.991  14.696  0.3164  0.4494  0.4843
 9849TIP3    H151038   3.463   3.005  14.774  1.4541 -0.1165 -0.1707
 9849TIP3    H251039   3.330   2.949  14.728  1.2798 -0.8685  1.2006
 9850TIP3   OH251040   6.806   5.344  15.571 -0.6847 -0.3643 -0.0430
 9850TIP3    H151041   6.805   5.347  15.475 -1.7042 -0.2400 -0.0321
 9850TIP3    H251042   6.887   5.389  15.595 -0.9682  0.5889 -0.8245
 9851TIP3   OH251043   6.649   1.493   4.461  0.2994  0.5785  0.1410
 9851TIP3    H151044   6.657   1.437   4.539  1.6465  0.7231  0.1345
 9851TIP3    H251045   6.555   1.498   4.444  0.0947 -0.8538  0.7402
 9852TIP3   OH251046   3.933   6.559   2.932 -0.2192 -0.3015  0.6193
 9852TIP3    H151047   3.880   6.522   2.862  1.1851 -0.7299 -0.2248
 9852TIP3    H251048   3.981   6.632   2.891 -1.0186  0.8392  1.6508
 9853TIP3   OH251049   3.306   4.314  14.357  0.1798 -0.0216 -0.5575
 9853TIP3    H151050   3.281   4.265  14.279 -0.3154  1.0421 -1.0781
 9853TIP3    H251051   3.233   4.374  14.372  0.9823  0.8722 -0.1922
 9854TIP3   OH251052   4.018   6.494  14.066 -0.1925  0.2345 -0.3738
 9854TIP3    H151053   3.970   6.528  13.991 -2.0369  0.0980  0.7088
 9854TIP3    H251054   4.045   6.572  14.114 -2.4021  0.2940  0.8641
 9855TIP3   OH251055   4.369   2.382  11.888 -0.5655  0.3753  0.1504
 9855TIP3    H151056   4.282   2.419  11.877  0.2762  1.8057 -2.0094
 9855TIP3    H251057   4.428   2.457  11.882  0.8631 -0.6507  1.0097
 9856TIP3   OH251058   1.189   5.805   0.898 -0.1859  0.6724  0.4013
 9856TIP3    H151059   1.175   5.865   0.971 -0.7569 -1.3760  2.0190
 9856TIP3    H251060   1.245   5.736   0.934 -2.3327 -1.5563 -0.4094
 9857TIP3   OH251061   4.601   6.070  13.453 -0.3128  0.5747  0.0128
 9857TIP3    H151062   4.557   6.034  13.376 -0.6392 -1.6194  1.1857
 9857TIP3    H251063   4.566   6.019  13.526  1.7392  1.0171  1.3395
 9858TIP3   OH251064   0.747   4.694  16.698  0.4437  0.1928 -0.1035
 9858TIP3    H151065   0.784   4.673  16.784 -2.7109 -3.2459  0.5161
 9858TIP3    H251066   0.682   4.762  16.715 -2.1362 -2.3978  0.7574
 9859TIP3   OH251067   5.089   6.777  17.260  0.4371 -0.0782  0.3495
 9859TIP3    H151068   5.177   6.742  17.276 -1.0027 -3.8203  0.7799
 9859TIP3    H251069   5.057   6.802  17.346  0.6894  0.2290  0.3520
 9860TIP3   OH251070   3.618   2.509   5.378 -0.5249  0.0503  0.1165
 9860TIP3    H151071   3.625   2.425   5.333  0.5604  0.0737  0.2386
 9860TIP3    H251072   3.526   2.534   5.367 -1.3375 -2.0560  1.7338
 9861TIP3   OH251073   0.972   0.278   2.449 -0.2053  0.0465 -0.3090
 9861TIP3    H151074   0.922   0.198   2.466 -0.4684 -0.2392 -2.2644
 9861TIP3    H251075   0.919   0.348   2.486 -1.8635 -0.3034 -1.9479
 9862TIP3   OH251076   1.944   3.136   4.672  0.5957 -0.5616  0.1238
 9862TIP3    H151077   1.886   3.155   4.746  0.7372 -2.2782  0.6855
 9862TIP3    H251078   1.887   3.096   4.607  0.3619  1.4386 -0.9434
 9863TIP3   OH251079   5.811   5.160   1.827  0.3707  0.5418 -0.0374
 9863TIP3    H151080   5.848   5.169   1.915  0.5579  1.0596 -0.1729
 9863TIP3    H251081   5.840   5.238   1.780  1.6376 -0.5156 -1.0537
 9864TIP3   OH251082   4.100   1.922   1.598  0.0715 -0.3162 -0.3767
 9864TIP3    H151083   4.056   2.004   1.575  1.3772  0.3085 -0.6753
 9864TIP3    H251084   4.069   1.903   1.687  0.1234  0.7477 -0.1221
 9865TIP3   OH251085   0.417   1.515  12.347 -0.2638  0.4001 -0.5453
 9865TIP3    H151086   0.378   1.602  12.355  0.7469  0.8974 -0.9106
 9865TIP3    H251087   0.494   1.528  12.291  0.7660 -0.4509  0.6336
 9866TIP3   OH251088   5.621   2.157   6.038 -0.1771 -0.5868  0.4703
 9866TIP3    H151089   5.629   2.093   5.968 -0.2255 -0.2892  0.1908
 9866TIP3    H251090   5.597   2.106   6.115 -2.2095 -0.6704 -0.2049
 9867TIP3   OH251091   6.358   5.468  17.233  0.0074  0.1528  0.9082
 9867TIP3    H151092   6.396   5.468  17.145 -2.4169  2.2030 -0.1853
 9867TIP3    H251093   6.373   5.380  17.266  2.9544  0.0157 -0.6566
 9868TIP3   OH251094   0.197   2.640   5.125  0.0888 -0.0528 -0.6964
 9868TIP3    H151095   0.276   2.687   5.153  0.2023 -0.4762 -0.3060
 9868TIP3    H251096   0.133   2.659   5.192  0.3294 -0.9852 -0.1991
 9869TIP3   OH251097   1.125   1.833   1.401 -0.0207 -0.3977  0.2533
 9869TIP3    H151098   1.116   1.821   1.307  0.0195  1.8589 -0.0735
 9869TIP3    H251099   1.035   1.830   1.434 -0.0517 -0.9871  0.1192
 9870TIP3   OH251100   2.815   2.424  17.245  0.1364  0.2283 -0.1497
 9870TIP3    H151101   2.848   2.481  17.314  0.8874 -1.4032  0.8637
 9870TIP3    H251102   2.772   2.483  17.183 -0.7849  1.6720  1.8408
 9871TIP3   OH251103   4.044   2.214   4.798  0.1712  0.2043 -0.2616
 9871TIP3    H151104   3.953   2.244   4.811  0.2693  0.5186 -0.3003
 9871TIP3    H251105   4.097   2.284   4.835  0.4037  0.0830 -0.3683
 9872TIP3   OH251106   1.687   1.712   6.297  0.1624  0.1813  0.2167
 9872TIP3    H151107   1.625   1.640   6.312  0.1061  0.0859 -0.4536
 9872TIP3    H251108   1.764   1.669   6.260  0.3769  0.3862  0.4235
 9873TIP3   OH251109   3.277   1.015  16.287 -0.1191  0.2343  0.1986
 9873TIP3    H151110   3.236   1.102  16.293  1.6137  0.9825  1.9113
 9873TIP3    H251111   3.341   1.023  16.216 -0.9844 -0.0934 -0.6251
 9874TIP3   OH251112   1.395   0.018  12.435  0.6830  0.2886  0.3153
 9874TIP3    H151113   1.469   0.070  12.402  0.5343 -0.5836 -1.4594
 9874TIP3    H251114   1.372  -0.040  12.362 -2.9066  1.7322  0.1999
 9875TIP3   OH251115   5.646   3.110   3.377 -0.1348  0.1219 -0.0924
 9875TIP3    H151116   5.627   3.020   3.350  3.2889 -0.3370 -1.2066
 9875TIP3    H251117   5.628   3.163   3.300 -2.1239  0.4349  0.5558
 9876TIP3   OH251118   5.739   5.689   3.388 -0.9874 -0.3715 -0.0993
 9876TIP3    H151119   5.746   5.617   3.326  0.9772 -0.2708 -0.0384
 9876TIP3    H251120   5.698   5.760   3.337 -1.3374 -0.9648 -0.6574
 9877TIP3   OH251121   4.100   0.855  11.015 -0.8182  0.0321 -0.0718
 9877TIP3    H151122   4.156   0.911  11.068 -0.4521  1.1159 -1.5587
 9877TIP3    H251123   4.157   0.783  10.988 -1.1760 -0.8637  1.4896
 9878TIP3   OH251124   0.338   4.158  14.342 -0.0480  0.1171  0.8887
 9878TIP3    H151125   0.353   4.197  14.428 -1.5344  1.2421  0.6630
 9878TIP3    H251126   0.385   4.217  14.282  0.2622 -0.1820  0.8357
 9879TIP3   OH251127   2.701   5.063   5.378 -0.2291 -0.7734 -0.1421
 9879TIP3    H151128   2.748   5.096   5.455 -2.0371 -0.9890  1.1175
 9879TIP3    H251129   2.617   5.032   5.414 -0.7272 -1.7431 -2.0835
 9880TIP3   OH251130   6.472   3.950   1.761 -0.0847  0.2857 -0.3306
 9880TIP3    H151131   6.548   3.996   1.727  0.5884  0.0977  0.8770
 9880TIP3    H251132   6.398   3.987   1.713  0.8786 -0.4226 -2.3945
 9881TIP3   OH251133   3.962   1.482  11.577 -0.3648  0.5953 -0.0502
 9881TIP3    H151134   3.914   1.403  11.602  1.0209  0.0419  0.9255
 9881TIP3    H251135   3.973   1.530  11.659  0.9832  0.5721 -0.2070
 9882TIP3   OH251136   2.688   1.655   5.646  0.3153  0.3407 -0.2833
 9882TIP3    H151137   2.721   1.687   5.562 -0.2253 -0.1533 -0.6851
 9882TIP3    H251138   2.595   1.680   5.646 -0.1828 -1.4302 -0.7121
 9883TIP3   OH251139   1.419   4.872   0.496 -0.1511  0.3770 -0.5232
 9883TIP3    H151140   1.471   4.909   0.568  0.3163 -1.9038  0.3722
 9883TIP3    H251141   1.347   4.827   0.540  0.7622 -2.0055 -1.3735
 9884TIP3   OH251142   5.584   2.504   3.077  0.0094 -0.1435 -0.3440
 9884TIP3    H151143   5.597   2.442   3.005 -0.2018  0.7776 -1.1861
 9884TIP3    H251144   5.555   2.450   3.150  0.8791 -1.1844 -0.7513
 9885TIP3   OH251145   4.324   6.012   4.969  0.3785  0.9059 -0.2554
 9885TIP3    H151146   4.266   6.038   4.897 -0.2431  0.3647  0.0464
 9885TIP3    H251147   4.334   5.918   4.958  0.1465  0.8002  0.4747
 9886TIP3   OH251148   2.026   5.359  14.219 -1.0714  0.0225 -0.5775
 9886TIP3    H151149   2.025   5.307  14.139 -2.6422 -1.0949  0.1429
 9886TIP3    H251150   2.075   5.438  14.196 -0.1119 -1.0095 -2.1578
 9887TIP3   OH251151   0.356   4.705   1.054  0.2658  0.0418 -0.1674
 9887TIP3    H151152   0.336   4.795   1.080 -1.4445 -0.6574  0.9700
 9887TIP3    H251153   0.381   4.712   0.961  0.0358  1.6647 -0.1189
 9888TIP3   OH251154   1.102   1.370  14.061 -0.0374  0.2056  0.4907
 9888TIP3    H151155   1.175   1.407  14.110 -1.8781  2.7418  1.4131
 9888TIP3    H251156   1.081   1.436  13.995 -0.2384 -1.3674 -1.0551
 9889TIP3   OH251157   0.397   4.387  13.678  0.0786  0.5272  0.2905
 9889TIP3    H151158   0.304   4.395  13.697  0.1911 -0.5280  1.3796
 9889TIP3    H251159   0.410   4.439  13.599 -1.6015 -0.0460 -0.3920
 9890TIP3   OH251160   3.131   2.405  11.099  0.5535 -0.5591  0.1113
 9890TIP3    H151161   3.172   2.448  11.174  0.1401 -1.2927  0.7640
 9890TIP3    H251162   3.195   2.412  11.029  0.1750  1.8580 -0.0360
 9891TIP3   OH251163   4.203   5.749  11.779  0.3223 -0.3645 -0.1200
 9891TIP3    H151164   4.152   5.677  11.816  1.1047 -1.0009 -0.2604
 9891TIP3    H251165   4.162   5.767  11.695 -0.7458  0.2996  0.5332
 9892TIP3   OH251166   0.740   5.993   3.644  0.1781 -0.0383 -0.3936
 9892TIP3    H151167   0.732   6.041   3.561  0.1257 -0.1645 -0.4617
 9892TIP3    H251168   0.802   6.044   3.695  0.0256  0.1696 -0.4174
 9893TIP3   OH251169   2.236   3.350  10.356  0.1440  0.0897 -0.3063
 9893TIP3    H151170   2.264   3.340  10.447  0.5065 -0.8091 -0.5113
 9893TIP3    H251171   2.315   3.333  10.304  0.0733  1.1561 -0.7749
 9894TIP3   OH251172   0.330   6.531   1.671 -0.5786 -0.0597 -0.0699
 9894TIP3    H151173   0.359   6.595   1.606 -0.3210 -0.8423 -0.7256
 9894TIP3    H251174   0.241   6.509   1.644 -0.2764 -0.7904 -0.4697
 9895TIP3   OH251175   1.850   2.447   1.319  0.3477  0.2035 -0.2731
 9895TIP3    H151176   1.930   2.395   1.330  1.9354  2.5076 -0.5270
 9895TIP3    H251177   1.877   2.521   1.265 -1.0253  3.0596  2.7465
 9896TIP3   OH251178   1.210   1.323  14.856 -0.0136  0.4420 -1.1349
 9896TIP3    H151179   1.295   1.350  14.891  0.8453 -1.3530 -1.7174
 9896TIP3    H251180   1.145   1.365  14.912  1.3003 -0.9914  1.5308
 9897TIP3   OH251181   5.547   4.092  15.750  0.4712 -0.4676  0.3979
 9897TIP3    H151182   5.591   4.013  15.719  0.3947 -0.1522 -0.5207
 9897TIP3    H251183   5.480   4.060  15.811  2.0339 -0.9445  1.9075
 9898TIP3   OH251184   0.351   1.245   2.745 -0.0134  0.1541  0.3233
 9898TIP3    H151185   0.280   1.187   2.717  0.5906 -1.0729  1.3332
 9898TIP3    H251186   0.421   1.230   2.682 -0.4797  1.0724 -0.4354
 9899TIP3   OH251187   2.308   3.391   5.121 -0.2847  0.1659  0.0934
 9899TIP3    H151188   2.302   3.316   5.180  0.3272  0.3114  0.3435
 9899TIP3    H251189   2.319   3.352   5.034  1.6649 -0.0440  0.4010
 9900TIP3   OH251190   5.570   0.052  14.929 -0.0533 -0.0142  0.1251
 9900TIP3    H151191   5.593  -0.037  14.956 -0.3618 -0.5535 -1.3832
 9900TIP3    H251192   5.539   0.043  14.839 -1.7972  1.3672  0.5770
 9901TIP3   OH251193   3.860   3.975   1.969  0.2812  0.0351  0.5805
 9901TIP3    H151194   3.774   4.014   1.989  0.1640  0.4209 -0.6000
 9901TIP3    H251195   3.841   3.909   1.902  0.8153 -0.3428  0.8013
 9902TIP3   OH251196   5.159   3.580  13.702  0.8608  0.2476 -0.6241
 9902TIP3    H151197   5.087   3.532  13.662  1.9884 -0.5762 -1.6525
 9902TIP3    H251198   5.115   3.651  13.750 -0.6095  0.0018 -1.5651
 9903TIP3   OH251199   0.948   6.562  12.359 -0.0958 -0.5059 -0.1006
 9903TIP3    H151200   0.903   6.540  12.278  0.6338 -0.4374 -0.5223
 9903TIP3    H251201   1.031   6.515  12.355  0.7237  0.9292 -0.2223
 9904TIP3   OH251202   1.637   1.438   1.021 -0.0388  0.2624  0.3190
 9904TIP3    H151203   1.641   1.351   0.983  0.9879 -0.3506  1.7620
 9904TIP3    H251204   1.633   1.498   0.946 -0.3081 -0.9937 -0.6792
 9905TIP3   OH251205   4.851   2.142  14.257 -0.1049  0.3105  0.0189
 9905TIP3    H151206   4.910   2.071  14.233  0.8430  0.3730  2.0676
 9905TIP3    H251207   4.905   2.203  14.307 -2.0654 -0.1163  2.7789
 9906TIP3   OH251208   6.364   3.302  15.234 -0.0247  0.3712  0.5113
 9906TIP3    H151209   6.358   3.231  15.298 -0.8309  1.0846  1.2407
 9906TIP3    H251210   6.425   3.365  15.273  0.7191  0.0708 -0.1501
 9907TIP3   OH251211   5.527   4.465  12.671 -0.3006  0.1484  0.1074
 9907TIP3    H151212   5.577   4.392  12.633  0.6729  0.1135  1.4118
 9907TIP3    H251213   5.514   4.525  12.598  0.2006 -0.6305 -0.6412
 9908TIP3   OH251214   2.448   0.888  10.986 -0.2073 -0.3524 -0.4109
 9908TIP3    H151215   2.411   0.946  11.052 -0.6625 -0.8086 -0.2634
 9908TIP3    H251216   2.520   0.844  11.030 -1.6952 -2.0738  0.3830
 9909TIP3   OH251217   0.058   1.781   4.882  0.3294 -0.7161 -0.3289
 9909TIP3    H151218   0.019   1.781   4.970  3.1113 -0.6870  0.9599
 9909TIP3    H251219   0.106   1.699   4.877  2.4139  0.5007 -0.7754
 9910TIP3   OH251220   4.599   1.267   1.792  0.0952  0.3897  0.5332
 9910TIP3    H151221   4.608   1.275   1.697  2.7706 -3.4898  0.3251
 9910TIP3    H251222   4.634   1.349   1.827  1.7055  0.7445 -1.7983
 9911TIP3   OH251223   5.222   3.208   5.860 -0.6030 -0.3515 -0.1482
 9911TIP3    H151224   5.199   3.137   5.920 -2.3518  1.5956  1.5516
 9911TIP3    H251225   5.209   3.287   5.912 -1.7476  1.3647 -2.9901
 9912TIP3   OH251226   1.598   5.250   4.505  0.0761 -0.6854  0.3111
 9912TIP3    H151227   1.555   5.224   4.586 -1.1294  1.4867  0.3915
 9912TIP3    H251228   1.675   5.299   4.533  1.3265 -2.4715  0.1331
 9913TIP3   OH251229   1.971   4.602  12.049  0.5572  0.5237 -0.3502
 9913TIP3    H151230   1.904   4.536  12.032 -0.2385  0.1594  3.6642
 9913TIP3    H251231   1.972   4.611  12.144  2.6766  4.2415 -0.6324
 9914TIP3   OH251232   4.767   1.719  11.995 -0.2490 -0.1616 -0.0601
 9914TIP3    H151233   4.720   1.655  12.049 -1.1599  0.6203  0.0877
 9914TIP3    H251234   4.752   1.803  12.038 -0.1001  0.3312 -0.9472
 9915TIP3   OH251235   3.754   2.891  11.482  0.4789 -0.1995  0.0857
 9915TIP3    H151236   3.732   2.897  11.389  0.3820 -1.1232  0.0415
 9915TIP3    H251237   3.682   2.841  11.521  1.0878 -0.8150  0.4434
 9916TIP3   OH251238   3.808   3.799   4.725 -0.2144  0.4345  0.8174
 9916TIP3    H151239   3.760   3.851   4.661  0.7269 -0.6354 -0.8040
 9916TIP3    H251240   3.810   3.711   4.689  2.6284  0.3671  0.9880
 9917TIP3   OH251241   5.244   0.056   4.431  0.5244 -0.1532  0.3404
 9917TIP3    H151242   5.253   0.040   4.337 -0.5496  0.1028  0.1886
 9917TIP3    H251243   5.285  -0.020   4.472 -0.5207 -1.1119 -0.3481
 9918TIP3   OH251244   1.994   3.345  11.503  0.4222  0.2251 -0.3815
 9918TIP3    H151245   2.017   3.436  11.481  2.0061 -0.3283 -1.1011
 9918TIP3    H251246   2.026   3.333  11.592  1.7840 -0.1278 -0.8978
 9919TIP3   OH251247   2.057   5.838   1.312 -0.0041  0.1193 -0.1284
 9919TIP3    H151248   2.129   5.901   1.313 -0.6058  1.1226 -5.4990
 9919TIP3    H251249   2.098   5.754   1.291 -0.1779  0.3851 -1.5675
 9920TIP3   OH251250   1.931   1.192   3.766 -0.2333  0.3023 -0.1074
 9920TIP3    H151251   2.003   1.205   3.827 -1.4009 -3.4612  2.2122
 9920TIP3    H251252   1.852   1.214   3.816 -1.0953 -1.3755 -0.6820
 9921TIP3   OH251253   5.331   1.697  13.952 -0.1282 -0.1053 -0.2491
 9921TIP3    H151254   5.287   1.681  14.036 -3.0114  0.6651 -1.5593
 9921TIP3    H251255   5.375   1.614  13.933 -1.3680 -1.0744  0.9254
 9922TIP3   OH251256   3.849   4.086  16.515 -0.2709  0.2081  0.4551
 9922TIP3    H151257   3.821   4.053  16.601 -0.3074  0.6239  0.6046
 9922TIP3    H251258   3.828   4.016  16.454  1.0049 -0.6474  0.9821
 9923TIP3   OH251259   6.754   0.667   3.722 -0.3987  0.2190  0.1966
 9923TIP3    H151260   6.782   0.756   3.740  0.2395 -0.1487  1.0504
 9923TIP3    H251261   6.833   0.623   3.690 -0.0264 -0.7536  2.3643
 9924TIP3   OH251262   0.164   2.450   2.709  0.3168  0.3340 -0.5928
 9924TIP3    H151263   0.239   2.460   2.650  0.8544  0.5726  0.1213
 9924TIP3    H251264   0.163   2.357   2.731  0.6932  0.4152 -0.2279
 9925TIP3   OH251265   0.740   1.964  15.214  0.3406  0.5407 -0.3274
 9925TIP3    H151266   0.669   1.949  15.151 -0.8672  0.3931  1.0595
 9925TIP3    H251267   0.729   1.896  15.280  0.4954  1.8057  1.0291
 9926TIP3   OH251268   6.063   4.592   2.127  0.0720  0.1033 -0.0471
 9926TIP3    H151269   6.086   4.622   2.039 -0.0659  1.4449  0.3677
 9926TIP3    H251270   5.982   4.637   2.148 -0.0323 -0.4049  0.6752
 9927TIP3   OH251271   0.712   1.577  15.991 -0.0352  0.0544 -0.0437
 9927TIP3    H151272   0.736   1.584  16.083 -0.6410  0.2012  0.1001
 9927TIP3    H251273   0.694   1.667  15.964  0.0092 -0.0043 -0.2687
 9928TIP3   OH251274   3.319   4.975   1.876  0.6825 -0.1602 -0.1381
 9928TIP3    H151275   3.224   4.961   1.872  0.2860  2.4563 -0.2001
 9928TIP3    H251276   3.355   4.906   1.820 -1.2898 -0.1812 -1.4524
 9929TIP3   OH251277   6.303   2.165   6.877 -0.0093  0.7804  0.1976
 9929TIP3    H151278   6.263   2.107   6.943 -0.3988  1.2679  0.3875
 9929TIP3    H251279   6.229   2.205   6.832  0.2571  0.1208 -0.8307
 9930TIP3   OH251280   2.816   6.618  14.510 -0.1389  0.0174  0.2018
 9930TIP3    H151281   2.880   6.685  14.486  2.8863 -2.8425 -0.0302
 9930TIP3    H251282   2.776   6.651  14.590 -1.0229  3.5353 -1.5665
 9931TIP3   OH251283   3.583   6.389  10.924 -0.0221 -0.2193  0.7658
 9931TIP3    H151284   3.609   6.366  11.013 -1.5075 -0.7262  1.0962
 9931TIP3    H251285   3.658   6.366  10.870  1.1285  0.6600  1.9491
 9932TIP3   OH251286   0.840   5.087  14.498 -0.1516  0.8790 -0.3275
 9932TIP3    H151287   0.881   5.021  14.441 -2.3600 -0.5227 -0.3736
 9932TIP3    H251288   0.880   5.072  14.584 -0.6299 -0.5721 -0.3317
 9933TIP3   OH251289   6.316   4.167  15.516 -0.2756 -0.2006  0.0174
 9933TIP3    H151290   6.248   4.142  15.453 -0.2041 -3.5678  1.1847
 9933TIP3    H251291   6.398   4.141  15.474  0.0702  1.1473 -0.1419
 9934TIP3   OH251292   2.482   1.274  13.655  0.7130 -0.6684  0.2313
 9934TIP3    H151293   2.399   1.227  13.648  0.6729 -0.6207  0.3788
 9934TIP3    H251294   2.475   1.346  13.592  0.4821 -0.4274  0.5259
 9935TIP3   OH251295   2.259   1.879  14.587 -0.0209 -0.1118 -0.0396
 9935TIP3    H151296   2.272   1.971  14.608  0.9862 -0.0192 -1.0177
 9935TIP3    H251297   2.280   1.872  14.494 -3.1288 -0.7508 -0.7360
 9936TIP3   OH251298   2.001   3.108   3.860  0.2500 -0.0403 -0.5184
 9936TIP3    H151299   2.090   3.084   3.888  1.1369  3.9836  0.4750
 9936TIP3    H251300   2.014   3.146   3.772 -0.4041  0.8738 -0.2241
 9937TIP3   OH251301   6.037   2.805  15.434 -0.0321 -0.2495  0.1207
 9937TIP3    H151302   6.125   2.840  15.419  0.1230  0.4999  2.5591
 9937TIP3    H251303   6.048   2.742  15.505 -1.1832 -1.4433 -0.7460
 9938TIP3   OH251304   0.709   0.391  15.263 -0.5510  0.0909 -0.1763
 9938TIP3    H151305   0.725   0.352  15.349 -2.0845 -1.1706 -0.4532
 9938TIP3    H251306   0.641   0.457  15.278 -0.6199  0.0661 -0.3720
 9939TIP3   OH251307   6.074   1.673  11.273  0.0735  0.1759  0.0245
 9939TIP3    H151308   6.166   1.701  11.277 -0.3065  1.2985  1.0063
 9939TIP3    H251309   6.077   1.590  11.225  1.2988  1.5451 -2.3959
 9940TIP3   OH251310   5.904   2.633   3.224  0.0313  0.3190  0.7591
 9940TIP3    H151311   5.846   2.596   3.290 -1.9690 -0.0435 -1.1455
 9940TIP3    H251312   5.966   2.563   3.204 -0.4448 -0.1728  0.9996
 9941TIP3   OH251313   2.097   3.759   6.102 -0.2132 -0.0007 -0.1359
 9941TIP3    H151314   2.062   3.826   6.161 -1.1555 -0.1418 -0.5272
 9941TIP3    H251315   2.021   3.730   6.051  0.0436 -1.8459  0.4883
 9942TIP3   OH251316   0.714   5.938   2.963 -0.1176 -0.0228  0.3693
 9942TIP3    H151317   0.667   5.943   3.047 -1.3131 -0.0017 -0.2950
 9942TIP3    H251318   0.650   5.903   2.902 -0.3846  3.3434 -1.3624
 9943TIP3   OH251319   6.747   4.079   5.881  0.4165 -0.5586  0.0044
 9943TIP3    H151320   6.762   4.170   5.856  0.0423 -0.4419  0.2038
 9943TIP3    H251321   6.823   4.032   5.847  1.3228  0.0560  1.1324
 9944TIP3   OH251322   1.599   1.765  15.341  0.3582 -0.2439  0.6112
 9944TIP3    H151323   1.521   1.735  15.389 -0.7209 -0.3725 -1.1627
 9944TIP3    H251324   1.597   1.714  15.260  0.1539  2.5196 -1.1554
 9945TIP3   OH251325   4.213   5.551  12.677  0.1092 -0.4426 -0.6327
 9945TIP3    H151326   4.162   5.482  12.721  1.5566 -1.1526 -0.0347
 9945TIP3    H251327   4.147   5.611  12.643 -1.1930 -2.4187 -1.6612
 9946TIP3   OH251328   2.491   2.460   3.054  0.3263 -0.2731 -0.6499
 9946TIP3    H151329   2.576   2.422   3.031  0.8855  0.3390  0.3721
 9946TIP3    H251330   2.482   2.535   2.995  0.9103  0.1896 -0.1606
 9947TIP3   OH251331   2.194   2.578   3.806 -0.4637  0.6186 -0.2752
 9947TIP3    H151332   2.128   2.647   3.805 -0.7786  0.3871  2.1064
 9947TIP3    H251333   2.144   2.497   3.806 -0.0994  0.3541 -2.2140
 9948TIP3   OH251334   2.774   5.476   1.967 -0.1382 -0.1724  0.1227
 9948TIP3    H151335   2.837   5.508   1.903  0.9862  2.5920  2.4960
 9948TIP3    H251336   2.690   5.510   1.938  0.4186  1.3606  0.3015
 9949TIP3   OH251337   2.922   4.524  15.307 -0.1502  0.1265  0.1626
 9949TIP3    H151338   2.892   4.470  15.234 -0.0216 -0.6500  0.6839
 9949TIP3    H251339   2.850   4.523  15.369  0.3900 -0.5757  0.7853
 9950TIP3   OH251340   2.789   0.392   1.686 -0.0942 -0.2811 -0.2701
 9950TIP3    H151341   2.702   0.359   1.708  0.2447  0.5899  2.7332
 9950TIP3    H251342   2.786   0.485   1.709  1.1509  0.1320 -1.6676
 9951TIP3   OH251343   3.777   0.298   2.982  0.4187 -0.0155 -0.4900
 9951TIP3    H151344   3.781   0.368   3.047  1.2788  1.1495 -1.7680
 9951TIP3    H251345   3.690   0.307   2.943  0.7174  0.6739 -1.0056
 9952TIP3   OH251346   6.702   0.566   3.476  0.2549 -0.4878  0.6371
 9952TIP3    H151347   6.696   0.474   3.498 -0.5221 -0.7138 -0.4728
 9952TIP3    H251348   6.715   0.611   3.560  1.1008 -1.6330  1.1272
 9953TIP3   OH251349   6.025   3.134  13.153  0.1569 -0.4685  0.0772
 9953TIP3    H151350   5.940   3.176  13.166  0.4294  0.4871 -1.0979
 9953TIP3    H251351   6.020   3.053  13.203 -0.9149  0.2817  1.1993
 9954TIP3   OH251352   0.641   2.220   3.850 -0.0318 -0.6724  0.3702
 9954TIP3    H151353   0.669   2.307   3.822 -1.5026 -0.5524 -0.8098
 9954TIP3    H251354   0.592   2.236   3.932  1.5675 -0.6592  1.3385
 9955TIP3   OH251355   5.395   1.670  12.810  0.1841  0.1146  0.2923
 9955TIP3    H151356   5.371   1.673  12.903 -0.0821 -2.2515  0.3238
 9955TIP3    H251357   5.311   1.680  12.764  0.1114 -0.3789  0.3189
 9956TIP3   OH251358   3.771   1.218   3.617 -0.8883 -0.5956  0.1500
 9956TIP3    H151359   3.741   1.306   3.641  1.1411  0.2751 -0.3850
 9956TIP3    H251360   3.731   1.160   3.681 -3.5632  0.5241 -0.4482
 9957TIP3   OH251361   0.673   4.686   0.627 -0.7003  0.5586  0.1626
 9957TIP3    H151362   0.751   4.665   0.679 -1.5122  0.4490  1.3570
 9957TIP3    H251363   0.638   4.602   0.600 -0.5409  0.6012 -0.1832
 9958TIP3   OH251364   4.305   3.605  11.237  0.1547  0.0853  0.4964
 9958TIP3    H151365   4.295   3.697  11.214  1.2045  0.3505  1.0614
 9958TIP3    H251366   4.352   3.606  11.321  0.5476 -0.9731  0.2968
 9959TIP3   OH251367   5.124   3.677  17.167 -0.3735  0.6297  0.8738
 9959TIP3    H151368   5.183   3.608  17.139 -2.2304  0.6349 -3.5237
 9959TIP3    H251369   5.069   3.637  17.234  1.6120 -0.6949  1.7400
 9960TIP3   OH251370   3.103   6.413   4.179 -0.3627  0.2067 -0.3773
 9960TIP3    H151371   3.118   6.438   4.087 -1.7327 -0.2122 -0.7329
 9960TIP3    H251372   3.012   6.437   4.195  0.7844  3.3436  1.9131
 9961TIP3   OH251373   2.637   1.879   1.008  0.1694  0.0815 -0.0417
 9961TIP3    H151374   2.545   1.864   0.986  0.2566  0.9541 -1.0463
 9961TIP3    H251375   2.677   1.905   0.925  1.1303  0.5676  0.5718
 9962TIP3   OH251376   2.312   5.148   0.349 -0.0436 -0.4776  0.0855
 9962TIP3    H151377   2.240   5.181   0.295 -0.1270  0.2601  0.6470
 9962TIP3    H251378   2.391   5.181   0.307 -0.0695 -0.5509 -0.0220
 9963TIP3   OH251379   3.890   2.020  13.780  0.0578 -0.2185  0.2795
 9963TIP3    H151380   3.848   2.060  13.704 -0.1813  1.6472  1.3822
 9963TIP3    H251381   3.886   2.087  13.848  0.5127 -1.7717  1.8640
 9964TIP3   OH251382   3.524   3.226  13.697  0.1475 -0.2231  0.3113
 9964TIP3    H151383   3.583   3.196  13.627 -1.6808 -0.7258 -1.0643
 9964TIP3    H251384   3.445   3.174  13.685 -0.5771  0.4200  2.1507
 9965TIP3   OH251385   0.918   5.945  12.669  0.1394  0.1662 -0.2047
 9965TIP3    H151386   0.973   5.941  12.747 -0.1111 -2.0548 -0.1296
 9965TIP3    H251387   0.969   5.997  12.607  2.1190 -1.4466  0.0366
 9966TIP3   OH251388   2.863   5.666   3.565  0.0662  0.2403 -0.1694
 9966TIP3    H151389   2.913   5.717   3.629 -0.9002  1.2226 -0.1878
 9966TIP3    H251390   2.779   5.651   3.608 -0.5265  0.7538 -1.1549
 9967TIP3   OH251391   2.130   3.796   3.055  0.1184  0.2591  1.0365
 9967TIP3    H151392   2.186   3.739   3.109  0.0910 -0.3422  0.4376
 9967TIP3    H251393   2.045   3.753   3.056  0.5270 -0.6304 -0.8183
 9968TIP3   OH251394   3.239   5.127  15.000 -0.0100  0.2823  0.7084
 9968TIP3    H151395   3.317   5.083  14.964 -0.7148 -1.1422  0.8822
 9968TIP3    H251396   3.272   5.209  15.035  1.3052  0.0181  0.1210
 9969TIP3   OH251397   5.717   5.692  16.402 -0.0389  0.2128  0.8098
 9969TIP3    H151398   5.705   5.600  16.378 -3.3712  0.6963  0.3388
 9969TIP3    H251399   5.746   5.734  16.321 -3.4495  0.3982 -0.4104
 9970TIP3   OH251400   5.226   1.494   4.283 -0.0529  0.2253  0.2257
 9970TIP3    H151401   5.258   1.574   4.325 -0.6078 -0.6877  2.5146
 9970TIP3    H251402   5.132   1.509   4.270  0.0232  0.3117 -0.2234
 9971TIP3   OH251403   5.679   3.605   2.166  0.0948  0.0722  0.4286
 9971TIP3    H151404   5.710   3.695   2.176 -0.1213  0.2962 -0.8926
 9971TIP3    H251405   5.591   3.605   2.202  0.5774  0.0824  1.6288
 9972TIP3   OH251406   6.379   2.204   4.846 -0.2650 -0.0138 -0.3275
 9972TIP3    H151407   6.310   2.266   4.867  0.2522  0.7094 -0.7221
 9972TIP3    H251408   6.459   2.243   4.882  0.2309  0.0550 -1.4782
 9973TIP3   OH251409   2.325   5.240  13.709 -0.0490 -0.4505 -0.2040
 9973TIP3    H151410   2.322   5.319  13.655  0.6738  0.8893  1.6617
 9973TIP3    H251411   2.381   5.264  13.783 -1.6071 -2.0052  1.5115
 9974TIP3   OH251412   4.169   2.636  12.629  0.2277  0.1060 -0.2041
 9974TIP3    H151413   4.157   2.689  12.549 -2.1188  2.2652  1.4945
 9974TIP3    H251414   4.260   2.652  12.655  0.5143  0.6970 -1.5283
 9975TIP3   OH251415   0.097   2.961  17.054  0.4466 -0.2312  0.1225
 9975TIP3    H151416   0.070   2.957  17.145  0.4826  0.7359  0.1802
 9975TIP3    H251417   0.051   2.888  17.012 -0.3868 -0.0450  0.6971
 9976TIP3   OH251418   5.031   5.312   3.766  0.1892 -0.0573 -0.1140
 9976TIP3    H151419   5.016   5.375   3.696 -0.3002 -0.6838 -0.5861
 9976TIP3    H251420   5.111   5.342   3.810  0.0308  0.8079 -0.4073
 9977TIP3   OH251421   4.191   1.150  15.512 -0.3431  0.0314  0.7679
 9977TIP3    H151422   4.208   1.120  15.422  1.7722  0.5205  0.9795
 9977TIP3    H251423   4.200   1.245  15.508 -1.9258  0.2230  1.1803
 9978TIP3   OH251424   2.516   6.691   6.167  0.0883  0.0238 -0.4554
 9978TIP3    H151425   2.478   6.641   6.095  1.8428 -0.7892 -0.8429
 9978TIP3    H251426   2.455   6.679   6.240 -0.0760 -1.7683 -0.8669
 9979TIP3   OH251427   4.734   4.617  13.643 -0.1954  0.4357 -0.3526
 9979TIP3    H151428   4.666   4.568  13.599 -0.0554 -1.1434  1.1355
 9979TIP3    H251429   4.698   4.636  13.730  1.4456 -0.9748  0.6874
 9980TIP3   OH251430   6.487   1.605   1.079 -0.4325  0.0468  0.5682
 9980TIP3    H151431   6.524   1.516   1.072 -1.6080 -0.4121  0.1585
 9980TIP3    H251432   6.414   1.605   1.017  0.3688  1.7151 -0.3962
 9981TIP3   OH251433   0.275   5.604   2.930  0.1779 -0.2358  0.2926
 9981TIP3    H151434   0.363   5.624   2.897 -0.1565 -0.7533 -0.9426
 9981TIP3    H251435   0.241   5.689   2.957  1.2679 -0.1102  1.3215
 9982TIP3   OH251436   5.069   0.912  16.176  0.2271 -0.7476 -0.1064
 9982TIP3    H151437   4.993   0.970  16.172 -0.9493 -2.3525 -1.8646
 9982TIP3    H251438   5.142   0.966  16.145 -0.4743  0.3505  0.1264
 9983TIP3   OH251439   4.427   3.179  11.721 -0.3217 -0.5949  0.4507
 9983TIP3    H151440   4.455   3.204  11.809  1.0541  2.1351 -0.7060
 9983TIP3    H251441   4.382   3.256  11.687  1.4550 -0.6417 -2.1684
 9984TIP3   OH251442   1.703   6.415  15.558  0.4035 -0.1165 -0.4375
 9984TIP3    H151443   1.769   6.420  15.628  1.2635 -2.6675 -1.0119
 9984TIP3    H251444   1.706   6.324  15.529 -2.0678  0.1807 -1.7776
 9985TIP3   OH251445   4.846   2.801  16.374 -0.4764  0.1293  0.2311
 9985TIP3    H151446   4.804   2.717  16.355 -1.3068  0.9905 -2.0614
 9985TIP3    H251447   4.780   2.849  16.424 -0.8542  0.1674 -0.2886
 9986TIP3   OH251448   5.776   6.011   1.911  0.5013 -0.7518 -0.2399
 9986TIP3    H151449   5.871   6.021   1.907  0.3262  0.6787 -1.0410
 9986TIP3    H251450   5.750   6.054   1.993  0.0607  3.1530 -2.3117
 9987TIP3   OH251451   0.693   0.575   6.065  0.6801  0.7124  0.1847
 9987TIP3    H151452   0.706   0.506   6.000  2.2710  1.2300 -0.0700
 9987TIP3    H251453   0.696   0.530   6.149 -0.0625  0.2308 -0.0399
 9988TIP3   OH251454   3.009   6.415  12.982  0.1867  0.0731  0.0918
 9988TIP3    H151455   3.061   6.380  13.054 -0.1357 -1.0117 -0.1901
 9988TIP3    H251456   2.958   6.340  12.951  1.1306  0.2631 -1.9886
 9989TIP3   OH251457   1.977   0.894  15.181 -0.1049  0.0375  0.5601
 9989TIP3    H151458   1.963   0.881  15.275  1.3121 -0.6116  0.6958
 9989TIP3    H251459   2.013   0.811  15.151  1.0531  0.8147 -0.2273
 9990TIP3   OH251460   3.190   0.781   5.208 -0.4308 -0.0494 -0.1029
 9990TIP3    H151461   3.150   0.718   5.268  0.0468  0.0582  0.3312
 9990TIP3    H251462   3.284   0.776   5.227 -0.4278  1.0634  0.2068
 9991TIP3   OH251463   1.248   4.693   0.900  0.3132 -0.1588 -0.0829
 9991TIP3    H151464   1.339   4.670   0.879  0.5036  0.1852  0.3658
 9991TIP3    H251465   1.244   4.689   0.996  0.2248  1.2453 -0.0240
 9992TIP3   OH251466   5.697   5.211  12.748 -0.0007  0.0966  0.0740
 9992TIP3    H151467   5.756   5.252  12.685 -1.3674 -0.4831 -1.5961
 9992TIP3    H251468   5.737   5.230  12.833 -0.1338  4.1752 -0.6666
 9993TIP3   OH251469   3.595   1.726   3.426 -0.9573 -0.3241 -0.4873
 9993TIP3    H151470   3.534   1.755   3.494  0.2890 -1.2533  1.0452
 9993TIP3    H251471   3.582   1.789   3.355  0.2041  2.8401  1.9545
 9994TIP3   OH251472   1.351   2.929  11.362  0.0567  0.0816 -0.3081
 9994TIP3    H151473   1.313   2.882  11.288  0.8947 -0.0169 -0.6686
 9994TIP3    H251474   1.445   2.921  11.351  0.1998 -1.4175  1.7170
 9995TIP3   OH251475   2.890   0.956  15.984  0.3712  0.4086 -0.5451
 9995TIP3    H151476   2.908   0.866  15.956 -2.3687 -0.9158  1.6422
 9995TIP3    H251477   2.922   1.011  15.913  0.8429 -2.3865 -2.5643
 9996TIP3   OH251478   5.670   0.338  15.927  0.0086  0.0174  0.3380
 9996TIP3    H151479   5.712   0.391  15.859 -0.6890 -0.1118 -0.2003
 9996TIP3    H251480   5.716   0.362  16.008  0.3527  0.7198 -0.0602
 9997TIP3   OH251481   6.030   4.023  12.293  0.0135 -0.5372 -0.5072
 9997TIP3    H151482   5.999   4.102  12.248 -2.3339 -1.0469  0.1633
 9997TIP3    H251483   6.020   3.953  12.229  0.3281 -0.6019 -0.4847
 9998TIP3   OH251484   1.281   3.100  15.518 -0.0936 -0.6721  0.4129
 9998TIP3    H151485   1.284   3.141  15.431 -0.1531  2.0142  1.6468
 9998TIP3    H251486   1.201   3.047  15.516 -0.9172  0.5725 -0.6446
 9999TIP3   OH251487   0.239   0.775  15.754  0.5106  0.4805  0.1968
 9999TIP3    H151488   0.153   0.732  15.766  0.2172  0.6190 -1.3213
 9999TIP3    H251489   0.245   0.837  15.827 -0.6234  0.3881  0.3811
10000TIP3   OH251490   3.567   2.332   5.165 -0.2308 -0.5967 -0.3173
10000TIP3    H151491   3.594   2.355   5.076  0.3941  3.8879  0.9020
10000TIP3    H251492   3.645   2.296   5.206  0.6853  1.3097 -0.3486
10001TIP3   OH251493   5.221   0.231  15.407  0.0238 -0.4132 -0.1547
10001TIP3    H151494   5.219   0.136  15.394 -2.0267 -0.2999 -0.9374
10001TIP3    H251495   5.174   0.245  15.489 -1.2615  0.0392 -0.9574
10002TIP3   OH251496   5.099   5.477  11.901  0.3988  0.1701  0.4651
10002TIP3    H151497   5.082   5.565  11.867  0.9076  0.1402  0.1178
10002TIP3    H251498   5.090   5.420  11.824  2.6055  0.2220  0.1206
10003TIP3   OH251499   0.582   3.838  14.022 -0.2467  0.2839 -0.3000
10003TIP3    H151500   0.617   3.822  13.934  1.3520 -1.9345  0.6876
10003TIP3    H251501   0.653   3.813  14.080 -1.4688  1.2823  1.6611
10004TIP3   OH251502   4.682   5.140  16.033 -0.5916  0.7187 -0.0478
10004TIP3    H151503   4.656   5.219  16.080 -2.7519  1.0058 -1.6397
10004TIP3    H251504   4.607   5.082  16.040  0.3575 -0.5595 -0.2738
10005TIP3   OH251505   0.459   4.793   1.501  0.0778  0.1686 -0.0082
10005TIP3    H151506   0.392   4.764   1.440  0.0813 -2.2460  1.0844
10005TIP3    H251507   0.435   4.884   1.522 -1.8335 -0.0948 -0.9572
10006TIP3   OH251508   5.506   1.877   1.045 -0.4990 -0.3713  0.2066
10006TIP3    H151509   5.575   1.895   1.110  1.8988 -0.3948 -2.2201
10006TIP3    H251510   5.491   1.783   1.052 -1.2002 -0.1625  1.6198
10007TIP3   OH251511   5.724   2.605   0.899 -0.3558  0.1210  0.2647
10007TIP3    H151512   5.659   2.574   0.836 -0.4440  0.3179  0.2590
10007TIP3    H251513   5.805   2.614   0.847 -0.0961 -1.0136  0.4764
10008TIP3   OH251514   6.552   0.958  12.360 -0.3251  0.2963 -0.4441
10008TIP3    H151515   6.462   0.953  12.327 -0.3145 -0.0350 -0.4211
10008TIP3    H251516   6.588   0.871  12.346 -0.7254 -0.2282  1.6348
10009TIP3   OH251517   6.667   3.784  15.317 -0.4274  1.1635  0.0063
10009TIP3    H151518   6.629   3.842  15.383 -0.6727 -0.0912  0.9941
10009TIP3    H251519   6.761   3.791  15.330 -0.4508  1.4483  0.0248
10010TIP3   OH251520   2.001   6.235  12.117 -0.3613 -0.2496 -0.2110
10010TIP3    H151521   1.989   6.142  12.139 -0.1960  0.5711  3.5501
10010TIP3    H251522   1.971   6.241  12.026 -1.5377 -3.7528 -0.1491
10011TIP3   OH251523   6.299   0.964  12.248 -0.2805  0.4647  0.3119
10011TIP3    H151524   6.316   0.918  12.166  0.3090  1.8762 -0.3853
10011TIP3    H251525   6.218   1.013  12.231 -0.7161 -0.0425  0.9207
10012TIP3   OH251526   2.403   1.197  16.298 -0.5687  0.1185  0.1032
10012TIP3    H151527   2.460   1.273  16.297  0.0917 -0.3623  0.5027
10012TIP3    H251528   2.365   1.193  16.210 -0.3642  0.7238 -0.0086
10013TIP3   OH251529   0.911   1.065   3.598 -0.0074 -0.5242  0.0477
10013TIP3    H151530   0.822   1.046   3.569  0.0405 -2.7197  1.3017
10013TIP3    H251531   0.908   1.157   3.626 -1.8146 -0.5381 -0.0671
10014TIP3   OH251532   5.216   5.780  14.304  0.0747 -0.1432 -0.2713
10014TIP3    H151533   5.250   5.711  14.246  0.6513 -0.5138  0.4974
10014TIP3    H251534   5.286   5.845  14.307 -0.4835  0.5014 -1.0236
10015TIP3   OH251535   0.357   2.542  14.002 -0.0444  0.0698  0.2960
10015TIP3    H151536   0.297   2.494  14.061 -0.7506  0.0822 -0.3990
10015TIP3    H251537   0.338   2.506  13.915 -0.5922  1.6183 -0.2470
10016TIP3   OH251538   0.573   2.421   6.109 -0.2095  0.9236 -0.5749
10016TIP3    H151539   0.621   2.339   6.109  2.0301  2.1942 -1.3469
10016TIP3    H251540   0.590   2.459   6.196 -2.5418 -0.1390  0.3767
10017TIP3   OH251541   1.966   5.110  15.200  0.2160  0.5962  0.8239
10017TIP3    H151542   1.875   5.079  15.196  0.5113 -0.3041  0.7804
10017TIP3    H251543   1.964   5.182  15.263 -0.9099  2.0252 -0.8034
10018TIP3   OH251544   2.615   4.973  11.733 -0.1824 -0.3874  0.2057
10018TIP3    H151545   2.619   4.935  11.645  2.6366  0.8591 -0.2542
10018TIP3    H251546   2.555   4.916  11.781 -1.7411 -1.1113 -2.4960
10019TIP3   OH251547   4.504   4.853  12.118 -0.1353 -0.1558 -0.0606
10019TIP3    H151548   4.424   4.893  12.152 -0.1150 -0.9838  0.9635
10019TIP3    H251549   4.476   4.808  12.038 -0.4842  0.4382 -0.2789
10020TIP3   OH251550   1.280   4.121  12.660  0.4291  0.5674  0.1049
10020TIP3    H151551   1.256   4.208  12.628 -2.4628 -0.7001 -1.3688
10020TIP3    H251552   1.212   4.099  12.724  0.9445 -0.7708  0.2145
10021TIP3   OH251553   6.180   5.881  17.132 -0.2095  0.4288  0.6333
10021TIP3    H151554   6.109   5.873  17.068  0.9140 -1.2426 -0.4370
10021TIP3    H251555   6.162   5.812  17.196  0.4589 -0.0277  0.3354
10022TIP3   OH251556   6.038   3.621   0.924  0.0127  0.3361  0.0155
10022TIP3    H151557   6.125   3.629   0.886  0.3190  0.4155  0.7117
10022TIP3    H251558   6.013   3.530   0.908  0.7297 -0.0180  0.8584
10023TIP3   OH251559   6.614   6.791   4.283  0.1151 -0.5399 -0.2781
10023TIP3    H151560   6.520   6.804   4.292 -0.2004 -2.1468 -1.0079
10023TIP3    H251561   6.649   6.878   4.264 -0.9576  0.4125  1.9440
10024TIP3   OH251562   3.705   5.955   4.642 -0.0246  0.2686 -0.6237
10024TIP3    H151563   3.734   5.909   4.720  0.6346  0.0871 -0.9731
10024TIP3    H251564   3.610   5.946   4.643  0.0291 -0.2853 -0.1856
10025TIP3   OH251565   1.007   5.916  11.653  0.2331 -0.6134 -0.2362
10025TIP3    H151566   1.086   5.939  11.701 -0.6384 -0.7811  1.3053
10025TIP3    H251567   1.001   5.821  11.660 -0.4109 -0.5457  0.1478
10026TIP3   OH251568   4.904   6.351   4.641  0.1280 -0.2264 -0.4939
10026TIP3    H151569   4.902   6.260   4.671  0.1967 -0.9517 -2.5746
10026TIP3    H251570   4.994   6.363   4.609 -0.3195  0.0513 -1.6882
10027TIP3   OH251571   1.255   4.629  15.429  0.4538 -0.9880  0.0223
10027TIP3    H151572   1.331   4.646  15.374  2.0252 -1.7494  1.9433
10027TIP3    H251573   1.275   4.548  15.475 -1.3828 -1.0263  0.8145
10028TIP3   OH251574   4.794   0.099   5.775 -0.2060 -0.3161  0.0082
10028TIP3    H151575   4.768   0.168   5.836  0.1303 -1.6611  1.6833
10028TIP3    H251576   4.714   0.079   5.726 -0.4376  0.8525 -0.1045
10029TIP3   OH251577   5.327   2.163  15.620  0.0149 -0.5395  0.4054
10029TIP3    H151578   5.383   2.192  15.692  0.1312 -0.3637  0.2427
10029TIP3    H251579   5.339   2.229  15.552  0.1393 -0.8648  0.1079
10030TIP3   OH251580   0.039   0.342  13.960 -0.5610 -0.3291 -0.1008
10030TIP3    H151581   0.118   0.376  14.002 -1.1502 -3.1272  3.6295
10030TIP3    H251582  -0.030   0.404  13.983 -0.1067  0.2675 -0.3524
10031TIP3   OH251583   1.834   5.023  13.727 -0.0396 -0.5259  0.3699
10031TIP3    H151584   1.783   4.945  13.704  1.8043 -1.9945  1.1223
10031TIP3    H251585   1.814   5.038  13.819 -0.8015  0.2296  0.0890
10032TIP3   OH251586   1.446   0.585   4.992  0.3014 -0.4858  0.1159
10032TIP3    H151587   1.401   0.662   4.957  0.2933  0.6479  2.4914
10032TIP3    H251588   1.400   0.511   4.954  1.1596  0.6275 -3.3197
10033TIP3   OH251589   3.074   6.672   5.092  0.1708  0.1728 -0.4833
10033TIP3    H151590   3.101   6.698   5.004 -0.3579 -0.9076 -0.9718
10033TIP3    H251591   3.016   6.597   5.078 -0.5706  0.5156  0.7395
10034TIP3   OH251592   5.743   2.649   0.008  0.1581  0.9448  0.2779
10034TIP3    H151593   5.657   2.667   0.045  0.5699  0.6845  1.3536
10034TIP3    H251594   5.805   2.672   0.077  0.9466  0.8856 -0.3996
10035TIP3   OH251595   3.662   6.561   5.472  0.1167  0.4563  0.4882
10035TIP3    H151596   3.672   6.611   5.391 -0.6052 -0.1364  0.0270
10035TIP3    H251597   3.582   6.597   5.513  0.7906  1.1461  1.2321
10036TIP3   OH251598   2.110   2.401   1.922  0.1615 -0.0228  0.4960
10036TIP3    H151599   2.075   2.355   1.998 -1.0474  1.5083  0.9048
10036TIP3    H251600   2.076   2.353   1.847 -0.2642 -0.3967  0.9264
10037TIP3   OH251601   4.497   6.107  15.916 -0.6087  0.1933 -0.5348
10037TIP3    H151602   4.558   6.163  15.870 -0.8043 -0.6196 -1.8027
10037TIP3    H251603   4.418   6.107  15.863 -0.9067 -0.6067 -0.1142
10038TIP3   OH251604   1.736   5.941  11.358  0.0419 -0.1438  0.0798
10038TIP3    H151605   1.725   6.022  11.307  0.1016  0.6176  1.2561
10038TIP3    H251606   1.752   5.873  11.292  3.6470  1.3998 -0.7646
10039TIP3   OH251607   5.719   4.833  14.427 -0.7449  0.1351  0.0303
10039TIP3    H151608   5.782   4.762  14.420 -0.1157  0.9354 -2.9438
10039TIP3    H251609   5.755   4.890  14.496  1.8913  0.6417 -1.6856
10040TIP3   OH251610   0.777   3.190  11.794 -0.4930  0.2375 -0.1705
10040TIP3    H151611   0.746   3.138  11.720  0.1230 -1.0010  0.4338
10040TIP3    H251612   0.726   3.271  11.788 -0.6550  0.0397 -1.7776
10041TIP3   OH251613   6.418   5.589  11.732 -0.1932  0.9321  0.0040
10041TIP3    H151614   6.428   5.516  11.671  2.6516  0.7992  0.5662
10041TIP3    H251615   6.325   5.588  11.755 -0.3375 -2.1498 -0.4310
10042TIP3   OH251616   4.751   4.978   3.641 -0.1198  0.0216  0.0030
10042TIP3    H151617   4.691   5.031   3.588  0.2431  0.5086  0.0671
10042TIP3    H251618   4.706   4.967   3.725 -1.3725 -2.0812 -0.9237
10043TIP3   OH251619   5.533   2.867   0.749 -0.0590  0.0806 -1.3680
10043TIP3    H151620   5.512   2.800   0.684  1.0608 -0.1986 -1.4472
10043TIP3    H251621   5.598   2.923   0.705  1.7243 -0.8898 -0.0133
10044TIP3   OH251622   2.725   6.066   1.711 -0.3168 -0.2267 -0.4148
10044TIP3    H151623   2.634   6.094   1.703 -0.5689 -1.0594 -0.5081
10044TIP3    H251624   2.773   6.121   1.650 -0.2746  2.3429  1.8536
10045TIP3   OH251625   0.777   0.536  12.699 -0.0062 -0.1172 -1.1017
10045TIP3    H151626   0.771   0.444  12.674 -0.3865 -0.0547 -1.2406
10045TIP3    H251627   0.693   0.555  12.740  0.1479  0.1148 -0.8920
10046TIP3   OH251628   2.434   1.962   6.123 -0.4152 -0.4244  0.6404
10046TIP3    H151629   2.418   1.878   6.166 -1.0036 -0.8820 -0.4324
10046TIP3    H251630   2.364   2.019   6.155 -0.2429 -0.4516  1.0717
10047TIP3   OH251631   5.946   3.537   1.404 -0.5941 -0.1892 -0.4219
10047TIP3    H151632   5.980   3.471   1.464  0.8616  1.6335  0.7813
10047TIP3    H251633   5.918   3.486   1.327  3.2853 -1.9492 -0.7907
10048TIP3   OH251634   1.790   2.674  13.030 -0.3836  0.2475 -0.2695
10048TIP3    H151635   1.698   2.685  13.055 -0.5882 -0.1269 -0.8356
10048TIP3    H251636   1.827   2.762  13.032 -0.1737  0.1571  2.1396
10049TIP3   OH251637   6.160   2.938   5.273 -0.1147 -0.0722  0.3591
10049TIP3    H151638   6.139   2.973   5.186 -1.7215 -1.8146  0.0171
10049TIP3    H251639   6.090   2.973   5.329 -0.8676 -1.4675  0.3112
10050TIP3   OH251640   6.806   5.680   1.837 -0.1996 -0.1293  0.2013
10050TIP3    H151641   6.726   5.705   1.882  0.3267  1.1026  0.4807
10050TIP3    H251642   6.814   5.586   1.851 -0.7044  0.0297  1.6230
10051TIP3   OH251643   5.732   4.871  15.793 -0.3417  0.1210  0.1692
10051TIP3    H151644   5.795   4.803  15.769 -0.8613 -0.5314  0.6100
10051TIP3    H251645   5.770   4.952  15.761  0.7341 -0.2628  0.4544
10052TIP3   OH251646   4.511   3.269   1.168  0.1382  0.1701  0.0667
10052TIP3    H151647   4.522   3.278   1.263 -0.0133  0.0995  0.0913
10052TIP3    H251648   4.544   3.350   1.132 -0.7636  0.6303  0.2492
10053TIP3   OH251649   6.461   4.431  12.718 -0.4386 -0.1695  0.3749
10053TIP3    H151650   6.489   4.507  12.667 -0.2032 -0.7246 -0.3291
10053TIP3    H251651   6.386   4.396  12.671  1.6453 -2.5124 -1.3558
10054TIP3   OH251652   5.735   6.047   3.579 -0.1885 -0.1511 -0.5661
10054TIP3    H151653   5.720   5.958   3.610 -2.2440 -0.3603 -2.0055
10054TIP3    H251654   5.789   6.036   3.500  1.9266  0.1072  0.8182
10055TIP3   OH251655   5.792   6.384   6.198 -0.0210  0.2745  0.4755
10055TIP3    H151656   5.739   6.375   6.276 -1.2540 -0.7082 -0.4524
10055TIP3    H251657   5.734   6.425   6.134  0.3732 -0.6158 -0.4803
10056TIP3   OH251658   3.996   6.198   4.451 -0.0243 -0.3679 -0.3289
10056TIP3    H151659   3.951   6.225   4.530 -0.6902 -0.7574 -0.5696
10056TIP3    H251660   3.973   6.264   4.386  0.2864 -0.2077 -0.2807
10057TIP3   OH251661   0.481   6.387   2.233  0.5953 -0.1696  0.2103
10057TIP3    H151662   0.538   6.365   2.307  0.4414 -0.5014  0.2303
10057TIP3    H251663   0.442   6.304   2.207  1.2897 -0.1928 -0.7807
10058TIP3   OH251664   0.825   1.572  16.775 -0.5750  0.3285 -0.5434
10058TIP3    H151665   0.789   1.562  16.862  2.2244 -2.8547  0.3527
10058TIP3    H251666   0.750   1.565  16.716 -2.2061  0.3079  1.5163
10059TIP3   OH251667   2.558   5.151   2.865  0.3474 -0.2621  0.2396
10059TIP3    H151668   2.527   5.204   2.938  2.3819  0.0450  0.9079
10059TIP3    H251669   2.623   5.092   2.903  0.4940 -0.9919 -1.0980
10060TIP3   OH251670   4.871   4.017  14.617 -0.1369 -0.1264  0.2377
10060TIP3    H151671   4.906   3.954  14.680 -0.6007  0.2824  0.9063
10060TIP3    H251672   4.792   3.975  14.582  0.4158 -0.5851 -0.4778
10061TIP3   OH251673   0.267   1.161   3.026  0.5045 -0.2224 -0.4501
10061TIP3    H151674   0.261   1.256   3.014  1.1062 -0.1590 -0.2582
10061TIP3    H251675   0.274   1.126   2.938  1.2314 -0.0168 -0.4799
10062TIP3   OH251676   2.645   3.471  10.604  0.1876  0.1654  0.2667
10062TIP3    H151677   2.626   3.538  10.538 -1.1359  0.0548  0.5141
10062TIP3    H251678   2.689   3.401  10.556  2.1861  1.4987  0.1336
10063TIP3   OH251679   3.888   2.568  10.977 -0.0656  0.2769 -0.1803
10063TIP3    H151680   3.978   2.548  11.001 -0.4553 -1.5558 -0.1712
10063TIP3    H251681   3.852   2.611  11.055  0.9161  1.4211 -0.3491
10064TIP3   OH251682   3.911   1.602   0.260 -0.4994 -0.3452  0.5176
10064TIP3    H151683   3.912   1.654   0.340 -1.5489 -0.5273  0.6521
10064TIP3    H251684   3.954   1.657   0.195 -0.9666  0.3983  0.8405
10065TIP3   OH251685   3.868   3.779  16.575  0.4006 -0.3310  0.0299
10065TIP3    H151686   3.778   3.750  16.588  0.3137  0.7141  1.8122
10065TIP3    H251687   3.872   3.804  16.483 -1.3520  0.4111  0.1468
10066TIP3   OH251688   5.219   4.647   2.730 -0.3621 -0.5594 -0.5296
10066TIP3    H151689   5.295   4.682   2.683 -0.5510  3.0520  1.6727
10066TIP3    H251690   5.143   4.681   2.683 -0.5578  0.7971  0.7334
10067TIP3   OH251691   5.830   5.851   2.351 -0.7131  0.1130  0.4252
10067TIP3    H151692   5.788   5.898   2.422 -0.6206  1.0734 -0.1464
10067TIP3    H251693   5.758   5.810   2.303 -0.8642  0.3424  0.4532
10068TIP3   OH251694   2.943   3.832  10.909  0.4502  0.0782  0.2201
10068TIP3    H151695   2.870   3.885  10.876  1.5708  0.6158 -1.4290
10068TIP3    H251696   3.015   3.894  10.918  1.2576 -0.8309 -0.0006
10069TIP3   OH251697   4.524   0.766   5.622 -0.6231  0.5057  0.1643
10069TIP3    H151698   4.460   0.807   5.681 -2.3415 -0.7465 -0.7924
10069TIP3    H251699   4.604   0.815   5.637 -1.7716  2.0596  1.4711
10070TIP3   OH251700   6.373   0.598   5.006 -0.3345  0.2843  0.1377
10070TIP3    H151701   6.365   0.512   4.964 -2.0502  0.2553  0.5069
10070TIP3    H251702   6.409   0.578   5.093 -0.6234 -0.0511  0.1835
10071TIP3   OH251703   0.927   4.859  13.120  0.2809  0.1119  0.2241
10071TIP3    H151704   0.849   4.804  13.111  0.1926  0.3854 -0.7661
10071TIP3    H251705   0.895   4.941  13.156 -0.1352  0.7483 -1.5243
10072TIP3   OH251706   2.159   1.922  14.922 -0.2223  0.1473  0.4836
10072TIP3    H151707   2.122   1.841  14.887 -0.7931  1.3402 -1.7984
10072TIP3    H251708   2.251   1.901  14.938 -0.8707 -1.5933  2.0878
10073TIP3   OH251709   6.328   0.639  16.945 -0.6522  0.0579 -0.0279
10073TIP3    H151710   6.377   0.708  16.899 -0.8065  0.7241  0.8011
10073TIP3    H251711   6.395   0.588  16.990 -0.3920 -1.2724 -1.8563
10074TIP3   OH251712   3.107   1.403  13.458  0.2275  0.2392  0.9669
10074TIP3    H151713   3.050   1.471  13.424  1.3854 -0.1666 -1.9333
10074TIP3    H251714   3.049   1.327  13.468 -0.0331  0.2073 -0.6722
10075TIP3   OH251715   5.256   6.228   5.087 -0.1202 -0.1937 -0.0079
10075TIP3    H151716   5.188   6.293   5.105 -0.8153 -0.4429 -1.6118
10075TIP3    H251717   5.321   6.276   5.036 -0.2299 -0.5463 -0.4786
10076TIP3   OH251718   4.025   5.030   5.178 -0.0833 -0.2988 -0.8933
10076TIP3    H151719   3.936   5.021   5.144 -0.0349 -0.4981 -0.9677
10076TIP3    H251720   4.017   5.006   5.271 -0.5428  1.8819 -0.3280
10077TIP3   OH251721   5.980   1.064  16.694 -0.6068 -0.0667  0.3602
10077TIP3    H151722   6.044   1.027  16.755  1.4219  1.1339 -0.9990
10077TIP3    H251723   5.915   1.106  16.751  0.9833  0.6000  1.7208
10078TIP3   OH251724   5.488   0.514  14.528 -0.1281 -0.3974 -0.6830
10078TIP3    H151725   5.444   0.576  14.469  0.2316  0.6069  0.0919
10078TIP3    H251726   5.528   0.569  14.595  0.2624 -1.4751 -0.0222
10079TIP3   OH251727   6.418   4.629   1.915  0.5219  0.1210 -0.0376
10079TIP3    H151728   6.504   4.611   1.952  0.0470 -0.1598  0.9590
10079TIP3    H251729   6.376   4.687   1.978 -1.0770 -2.0213  0.9389
10080TIP3   OH251730   2.101   2.635   1.572 -0.7913  0.1339  0.5828
10080TIP3    H151731   2.177   2.647   1.629 -0.1570  1.9716 -0.6070
10080TIP3    H251732   2.137   2.619   1.486 -1.7583 -0.5619  0.2938
10081TIP3   OH251733   3.783   0.296   3.811  0.2455  0.1303 -0.1846
10081TIP3    H151734   3.824   0.300   3.897 -2.7571 -1.8222  1.4145
10081TIP3    H251735   3.818   0.216   3.771  0.2118  0.0207  0.0035
10082TIP3   OH251736   0.987   4.386  13.682 -0.2613  0.3826 -0.0336
10082TIP3    H151737   0.914   4.327  13.661  0.0291  0.8116 -2.4560
10082TIP3    H251738   1.051   4.331  13.725 -0.0801 -1.0815 -2.0830
10083TIP3   OH251739   6.495   3.558   6.161  0.4428  0.4869 -0.2305
10083TIP3    H151740   6.511   3.637   6.213 -0.8827  2.4551 -2.7431
10083TIP3    H251741   6.542   3.572   6.080  2.6184 -2.6474  0.4011
10084TIP3   OH251742   0.677   2.315   4.617 -0.0371 -0.1391  0.3175
10084TIP3    H151743   0.585   2.334   4.595 -0.2612 -0.3711  1.0500
10084TIP3    H251744   0.675   2.289   4.709  0.9534  1.1836  0.7208
10085TIP3   OH251745   4.824   4.097  12.945  0.1803  0.1386 -1.1164
10085TIP3    H151746   4.812   4.033  12.875 -0.8617 -0.4212 -0.4467
10085TIP3    H251747   4.778   4.175  12.914 -0.8796 -0.3384 -0.7577
10086TIP3   OH251748   1.548   0.255  16.372  0.0689  0.3767 -0.2157
10086TIP3    H151749   1.529   0.162  16.383  1.1932  0.3196  1.4576
10086TIP3    H251750   1.463   0.296  16.359 -0.5350 -0.7495  0.1276
10087TIP3   OH251751   4.616   0.284  12.657 -0.0454 -0.0608 -0.5489
10087TIP3    H151752   4.586   0.366  12.698 -0.6890 -1.0849  1.0725
10087TIP3    H251753   4.699   0.265  12.700 -0.0107 -0.3791 -0.7616
10088TIP3   OH251754   3.648   4.883  11.919 -0.4664  0.2823  0.5362
10088TIP3    H151755   3.701   4.808  11.945 -1.0791 -0.0334  0.8962
10088TIP3    H251756   3.691   4.959  11.960 -0.5361 -0.0203  1.1673
10089TIP3   OH251757   6.258   2.398  15.770  0.2273 -0.2236  0.6512
10089TIP3    H151758   6.219   2.331  15.713 -0.1638  1.2431 -0.8403
10089TIP3    H251759   6.217   2.383  15.855 -0.4428 -1.3755  0.1432
10090TIP3   OH251760   2.259   4.228  12.131  0.0500 -0.0732  0.1844
10090TIP3    H151761   2.199   4.267  12.194 -1.3654 -0.5121 -0.8745
10090TIP3    H251762   2.270   4.294  12.063  1.1084  0.1649  0.5690
10091TIP3   OH251763   2.684   1.079   0.175 -0.1475  0.7388 -0.2436
10091TIP3    H151764   2.747   1.125   0.231  0.2362  0.1476 -0.1813
10091TIP3    H251765   2.725   0.994   0.158 -1.0813  0.2149  0.0737
10092TIP3   OH251766   1.971   5.865   1.739  0.1186  0.2180 -0.1064
10092TIP3    H151767   2.018   5.843   1.819  1.2057 -2.7427 -1.4943
10092TIP3    H251768   1.897   5.805   1.737  0.2005  0.1456 -1.4153
10093TIP3   OH251769   6.322   4.117  15.871 -0.4286  0.5647 -0.8222
10093TIP3    H151770   6.389   4.054  15.898 -2.5186 -1.5557 -0.3851
10093TIP3    H251771   6.363   4.168  15.802  1.4787 -1.0015 -0.8868
10094TIP3   OH251772   1.258   1.747  16.384 -0.3618  0.0777 -0.1786
10094TIP3    H151773   1.300   1.678  16.332 -0.7219 -0.4165  0.1791
10094TIP3    H251774   1.187   1.779  16.329 -0.4329 -0.1013 -0.1893
10095TIP3   OH251775   2.982   5.708   2.653 -0.3678  0.2628 -0.7860
10095TIP3    H151776   2.984   5.645   2.581 -0.1132  1.0224 -1.4557
10095TIP3    H251777   2.947   5.659   2.727 -0.3101 -0.6241 -1.3352
10096TIP3   OH251778   6.067   4.382  14.353  1.2923 -0.0444  0.2811
10096TIP3    H151779   6.032   4.333  14.279  0.2415  0.4050  0.4599
10096TIP3    H251780   6.146   4.424  14.319 -1.2575  3.3992 -1.8595
10097TIP3   OH251781   4.157   3.159  11.353  0.1706 -0.6959 -0.1373
10097TIP3    H151782   4.064   3.146  11.334  0.2395  0.5639 -1.4933
10097TIP3    H251783   4.168   3.255  11.352  1.0641 -0.7629  2.1376
10098TIP3   OH251784   2.350   1.208   3.361 -0.7861  0.2111 -0.0748
10098TIP3    H151785   2.270   1.261   3.352 -0.6396  0.7009  1.4163
10098TIP3    H251786   2.415   1.269   3.395 -0.3746 -0.7150  0.8011
10099TIP3   OH251787   0.551   0.447  15.716 -0.0544  0.1798 -0.4340
10099TIP3    H151788   0.642   0.477  15.714  0.0594 -0.0402  1.2209
10099TIP3    H251789   0.506   0.505  15.654  1.4611 -0.6430 -2.3854
10100TIP3   OH251790   0.066   6.494   2.603  0.2805 -0.4295  0.5313
10100TIP3    H151791   0.116   6.495   2.685  0.1300 -0.1453  0.6205
10100TIP3    H251792   0.103   6.567   2.553  0.9040 -1.0866  0.0271
10101TIP3   OH251793   4.005   3.221   6.676 -0.0370  0.4770  0.2470
10101TIP3    H151794   4.042   3.179   6.599 -0.4145 -0.8299  0.7764
10101TIP3    H251795   3.910   3.210   6.666 -0.0919  0.4204  0.8339
10102TIP3   OH251796   2.800   0.515  12.926  0.5708  0.6105  0.3944
10102TIP3    H151797   2.859   0.542  12.996  0.2284  0.4855  0.7332
10102TIP3    H251798   2.719   0.490  12.971  1.5675 -3.0704  0.3282
10103TIP3   OH251799   2.677   1.733   2.329 -0.1534  0.1583  0.0074
10103TIP3    H151800   2.608   1.777   2.378  0.4319  1.4699 -0.3130
10103TIP3    H251801   2.671   1.770   2.241  1.0962  0.4442  0.0367
10104TIP3   OH251802   0.152   5.228   3.464 -0.4437  0.3121  0.1030
10104TIP3    H151803   0.075   5.221   3.407  0.0640 -0.2622 -0.5149
10104TIP3    H251804   0.160   5.142   3.505  0.6026 -0.0249 -0.7873
10105TIP3   OH251805   1.898   5.813  11.140  0.5117 -0.2262 -0.8586
10105TIP3    H151806   1.848   5.822  11.059 -1.1261  0.2525  0.1763
10105TIP3    H251807   1.931   5.901  11.158  1.1047 -0.3890 -1.1496
10106TIP3   OH251808   4.579   2.397  12.216  0.2549 -0.3928  0.1177
10106TIP3    H151809   4.615   2.484  12.230 -1.6316  0.0826  2.3212
10106TIP3    H251810   4.558   2.364  12.304 -1.1132 -2.1505 -0.8122
10107TIP3   OH251811   1.750   4.186   3.209  0.2508 -0.1672  0.9397
10107TIP3    H151812   1.806   4.184   3.287 -0.2151  3.5867  1.4711
10107TIP3    H251813   1.769   4.104   3.163  2.9679 -0.9338  3.3205
10108TIP3   OH251814   0.203   2.108   1.228 -0.1087  0.1402  0.0259
10108TIP3    H151815   0.233   2.191   1.191 -0.0664  0.9010  1.7220
10108TIP3    H251816   0.134   2.079   1.168  1.7394 -0.0033 -2.1126
10109TIP3   OH251817   4.638   4.787  10.934  0.0970 -0.4138 -0.1974
10109TIP3    H151818   4.616   4.694  10.945 -1.5289 -0.0514 -0.3852
10109TIP3    H251819   4.579   4.819  10.866  0.1224  0.9493  0.4022
10110TIP3   OH251820   4.406   0.380   4.776 -0.3505  0.1898 -0.2040
10110TIP3    H151821   4.416   0.438   4.700  0.9734  1.4169  0.8789
10110TIP3    H251822   4.493   0.343   4.789 -0.4263  0.4501  1.0815
10111TIP3   OH251823   3.809   2.814  15.416 -0.0921 -0.1677 -0.5357
10111TIP3    H151824   3.763   2.789  15.335  0.1328 -0.5198 -0.5556
10111TIP3    H251825   3.870   2.882  15.388 -0.6146  0.3220 -0.5055
10112TIP3   OH251826   5.219   2.095  12.894  0.6215  0.4676 -0.5384
10112TIP3    H151827   5.124   2.081  12.895  0.3989  1.8870 -1.2732
10112TIP3    H251828   5.239   2.114  12.803  1.8768 -1.5181 -0.6989
10113TIP3   OH251829   5.460   3.268  13.277 -0.6262  0.0493 -0.4413
10113TIP3    H151830   5.421   3.303  13.197 -1.4738 -0.1202 -0.1049
10113TIP3    H251831   5.465   3.173  13.262 -0.6160  0.0393 -0.3760
10114TIP3   OH251832   2.299   4.153  16.783 -0.0240 -1.1469  0.2277
10114TIP3    H151833   2.246   4.228  16.810 -1.3161 -1.5665 -1.1588
10114TIP3    H251834   2.260   4.122  16.702  2.4798 -1.3164 -0.9728
10115TIP3   OH251835   2.208   1.273   1.613 -0.1827  0.2394  0.0916
10115TIP3    H151836   2.262   1.196   1.597 -0.3410  0.1220  0.1225
10115TIP3    H251837   2.195   1.311   1.526  0.0581  0.3398  0.1004
10116TIP3   OH251838   4.248   0.245  13.174 -0.8385 -0.2874  0.2530
10116TIP3    H151839   4.314   0.191  13.218 -2.6805 -2.2892  0.6333
10116TIP3    H251840   4.278   0.252  13.083  1.7573  1.8994  1.2134
10117TIP3   OH251841   6.455   5.823   1.257  0.0943 -0.6461  0.0810
10117TIP3    H151842   6.540   5.863   1.277 -0.0163 -0.2895 -0.1671
10117TIP3    H251843   6.436   5.851   1.168 -0.4305 -0.4763  0.2489
10118TIP3   OH251844   1.579   5.933   4.214 -0.0676  0.7422 -0.5421
10118TIP3    H151845   1.511   5.917   4.280 -0.4012  0.8978 -0.8489
10118TIP3    H251846   1.553   5.878   4.140  0.6497  0.0808 -0.3106
10119TIP3   OH251847   6.520   0.417  14.721  0.2359  0.3506 -0.1993
10119TIP3    H151848   6.463   0.481  14.679  0.0839  0.1675 -0.2754
10119TIP3    H251849   6.460   0.357  14.765  0.3408 -0.2022 -0.7903
10120TIP3   OH251850   2.644   0.641  14.533  0.0208 -0.0596  0.6454
10120TIP3    H151851   2.587   0.700  14.584  0.7242  0.1906  1.1475
10120TIP3    H251852   2.649   0.683  14.447 -0.5716 -0.0933  0.5877
10121TIP3   OH251853   1.038   0.413  12.883 -0.0560  0.3360 -0.3447
10121TIP3    H151854   0.956   0.389  12.926 -0.6268  0.1934 -1.5110
10121TIP3    H251855   1.105   0.363  12.931 -0.7728 -0.4481 -0.1417
10122TIP3   OH251856   4.995   4.649  10.929  0.0697  0.2024  0.0951
10122TIP3    H151857   5.072   4.636  10.984  0.4582  0.1092 -0.4624
10122TIP3    H251858   4.922   4.655  10.990  0.5294  0.3516  0.6311
10123TIP3   OH251859   4.630   1.275  16.677 -0.0742 -0.2775  0.7703
10123TIP3    H151860   4.689   1.350  16.673  0.1242 -0.4854 -0.3078
10123TIP3    H251861   4.568   1.297  16.747 -0.5611  1.2937 -0.1315
10124TIP3   OH251862   4.039   4.327  10.909  0.3456  0.1406 -0.0764
10124TIP3    H151863   3.952   4.289  10.894  0.0419  0.6115  0.4730
10124TIP3    H251864   4.074   4.277  10.983 -0.7145  1.9942  1.7038
10125TIP3   OH251865   3.379   5.639  11.890  0.0280 -0.3834 -0.6151
10125TIP3    H151866   3.402   5.548  11.871  2.1898 -0.1600  0.7723
10125TIP3    H251867   3.385   5.683  11.805 -0.2648 -1.3868 -1.1621
10126TIP3   OH251868   3.899   2.674  12.674  0.1678  0.2007  0.3778
10126TIP3    H151869   3.848   2.687  12.594 -0.2581 -1.9259  0.2535
10126TIP3    H251870   3.975   2.623  12.646  0.6901  0.5710  1.1077
10127TIP3   OH251871   5.961   3.565  10.893 -0.4490 -0.0546  0.1527
10127TIP3    H151872   5.888   3.627  10.895  0.3147  0.8383  0.5712
10127TIP3    H251873   6.038   3.619  10.877  0.1172 -1.0060 -0.3542
10128TIP3   OH251874   0.598   4.439  16.666 -0.1984 -0.2912  0.4572
10128TIP3    H151875   0.647   4.522  16.668 -0.9274  0.1665 -0.2412
10128TIP3    H251876   0.509   4.463  16.691 -0.2072 -1.0245  1.1473
10129TIP3   OH251877   2.472   5.131  14.951  0.4313 -0.1448 -0.8093
10129TIP3    H151878   2.504   5.221  14.953 -1.5423  0.5929  3.1798
10129TIP3    H251879   2.517   5.089  15.025 -2.1736 -1.0700  0.2979
10130TIP3   OH251880   6.219   2.472   2.879  0.3441  0.3921  0.6730
10130TIP3    H151881   6.313   2.489   2.873  0.1356  1.5416  0.6350
10130TIP3    H251882   6.209   2.382   2.847  1.1916  0.9127 -1.1420
10131TIP3   OH251883   0.950   0.366  12.380 -0.1581  0.3285 -0.1608
10131TIP3    H151884   0.988   0.418  12.451  2.0275  1.8549 -2.3408
10131TIP3    H251885   1.002   0.285  12.379  2.2565  1.8064 -2.2089
10132TIP3   OH251886   0.157   1.985  12.652 -0.2459  0.5337 -0.2736
10132TIP3    H151887   0.063   1.985  12.636  0.1056 -0.9602 -2.6615
10132TIP3    H251888   0.168   2.032  12.735 -2.9239  2.3448 -0.8781
10133TIP3   OH251889   5.873   6.691  12.128  0.9675  0.3726  0.2150
10133TIP3    H151890   5.801   6.712  12.069  1.4510 -0.1269 -0.5632
10133TIP3    H251891   5.940   6.756  12.109  1.2070  0.0817  0.0680
10134TIP3   OH251892   1.456   5.104   2.403  0.2917 -0.2947 -0.0342
10134TIP3    H151893   1.458   5.175   2.339 -0.8264  2.5162  2.9066
10134TIP3    H251894   1.520   5.041   2.371  0.6745  1.5958 -3.2154
10135TIP3   OH251895   2.193   2.934   4.382 -0.3965  0.0172 -0.0045
10135TIP3    H151896   2.181   2.859   4.323 -1.1846 -0.8834  1.2621
10135TIP3    H251897   2.194   3.010   4.325 -0.2386 -0.9193 -1.2616
10136TIP3   OH251898   0.967   0.603  16.797 -0.3588 -0.2143  0.5315
10136TIP3    H151899   0.918   0.675  16.756 -0.0325 -0.1881  0.1863
10136TIP3    H251900   0.953   0.615  16.891 -0.6984  0.0221  0.4517
10137TIP3   OH251901   3.417   4.563  10.553  0.4424  0.2393  0.4001
10137TIP3    H151902   3.370   4.524  10.627 -0.3883  1.4225  0.5196
10137TIP3    H251903   3.454   4.489  10.506 -2.1839 -0.7847 -0.1403
10138TIP3   OH251904   4.330   1.478  11.351  0.4071 -0.1332 -0.0389
10138TIP3    H151905   4.381   1.472  11.432 -0.3421 -0.0820  0.4395
10138TIP3    H251906   4.382   1.431  11.287  2.6880  2.7400 -0.3906
10139TIP3   OH251907   6.496   0.625   0.626  0.4806  0.1618  0.2190
10139TIP3    H151908   6.485   0.549   0.567 -0.0221  0.8449 -0.5807
10139TIP3    H251909   6.575   0.605   0.676  1.3971 -0.0568 -1.2775
10140TIP3   OH251910   5.173   2.156   5.023 -0.1360 -0.1467 -0.3569
10140TIP3    H151911   5.088   2.195   5.037  0.6740  1.4034  0.3015
10140TIP3    H251912   5.190   2.105   5.102 -1.0384 -1.5951 -1.0714
10141TIP3   OH251913   0.891   3.106  13.463  0.1195  0.0700 -0.1806
10141TIP3    H151914   0.882   3.038  13.397  0.3761  1.1569 -1.3568
10141TIP3    H251915   0.951   3.070  13.528  0.7552 -0.5685 -1.1206
10142TIP3   OH251916   2.485   1.818   1.690  0.0763 -0.4667  0.6647
10142TIP3    H151917   2.520   1.904   1.712 -1.4152  0.5296 -0.6848
10142TIP3    H251918   2.458   1.781   1.774 -0.0512  0.7515  1.1717
10143TIP3   OH251919   4.720   2.533   2.250  0.2768  0.0263  0.2802
10143TIP3    H151920   4.710   2.439   2.236  1.3109 -0.4617  2.5661
10143TIP3    H251921   4.704   2.572   2.164 -0.1751 -2.2247 -0.6965
10144TIP3   OH251922   0.341   4.908  11.640  0.0056 -0.6762  0.2098
10144TIP3    H151923   0.428   4.867  11.632  0.4989  0.2381  0.8339
10144TIP3    H251924   0.286   4.840  11.677  0.4652 -1.2587 -0.1604
10145TIP3   OH251925   0.727   1.729   2.062  0.4766 -0.0271  0.6610
10145TIP3    H151926   0.711   1.811   2.108 -0.7486  0.2095 -0.1585
10145TIP3    H251927   0.812   1.741   2.020 -0.7351  1.7468 -1.3796
10146TIP3   OH251928   0.362   0.369   1.028 -0.1383 -0.3379 -0.4344
10146TIP3    H151929   0.271   0.388   1.051 -0.5258 -1.2407 -1.2017
10146TIP3    H251930   0.359   0.285   0.983  1.0526 -0.2778 -0.6535
10147TIP3   OH251931   1.436   3.917  13.691  0.1274 -0.0410  0.3952
10147TIP3    H151932   1.362   3.864  13.661 -1.5237  2.0476  0.7113
10147TIP3    H251933   1.493   3.854  13.737 -1.4230 -1.6668  0.1520
10148TIP3   OH251934   3.460   4.139  13.816 -0.3578  0.5681 -0.0118
10148TIP3    H151935   3.436   4.191  13.739  0.2996  0.2284 -0.4490
10148TIP3    H251936   3.397   4.166  13.883 -2.0983 -0.4399 -1.1979
10149TIP3   OH251937   1.821   2.814   3.751 -0.0388 -0.7399  0.0053
10149TIP3    H151938   1.777   2.730   3.768  1.5728 -1.3314  1.3565
10149TIP3    H251939   1.860   2.804   3.664 -1.8395 -0.5041 -0.8609
10150TIP3   OH251940   6.506   0.138   2.846 -0.2109  0.3996  0.6698
10150TIP3    H151941   6.551   0.221   2.860  1.0978 -0.0300 -0.9210
10150TIP3    H251942   6.415   0.163   2.827  0.3856  1.5104 -0.7379
10151TIP3   OH251943   5.912   1.283   4.646  0.0935  0.0898  0.0824
10151TIP3    H151944   5.895   1.230   4.568  1.0087 -0.7818  0.4735
10151TIP3    H251945   5.982   1.343   4.619  0.7675 -0.5554  0.3800
10152TIP3   OH251946   5.463   1.364   0.896 -0.0608  0.4802  0.5194
10152TIP3    H151947   5.552   1.368   0.860 -0.6529  0.1010 -1.0301
10152TIP3    H251948   5.438   1.272   0.886  0.2056  0.1243  3.0162
10153TIP3   OH251949   4.437   6.623  16.317 -0.3263  0.0841 -0.4281
10153TIP3    H151950   4.417   6.686  16.386  1.0368  0.1797 -0.1125
10153TIP3    H251951   4.495   6.670  16.258 -0.6845 -0.3241 -1.1063
10154TIP3   OH251952   6.590   6.809  15.315 -0.0138 -0.2325  0.0716
10154TIP3    H151953   6.587   6.891  15.265 -2.5943  0.9521  2.0372
10154TIP3    H251954   6.627   6.745  15.254  0.9765  2.1167 -1.8908
10155TIP3   OH251955   2.991   2.909  11.623 -0.1875  0.5530  0.3872
10155TIP3    H151956   2.913   2.958  11.650 -0.6682  0.6143 -1.0337
10155TIP3    H251957   3.058   2.976  11.610 -0.5490  0.7448 -0.5514
10156TIP3   OH251958   1.631   0.311   0.467  0.3167 -0.4734 -0.1092
10156TIP3    H151959   1.692   0.348   0.404 -0.3320 -0.8621 -0.9774
10156TIP3    H251960   1.672   0.326   0.552  1.0013  0.4182 -0.5932
10157TIP3   OH251961   2.290   5.344   2.829 -0.7863 -0.0991 -0.0217
10157TIP3    H151962   2.337   5.261   2.836 -0.0592  0.4992  2.5567
10157TIP3    H251963   2.261   5.363   2.918 -1.3227  2.2176 -0.6578
10158TIP3   OH251964   0.784   5.002   2.990  0.0383  0.1271 -0.0521
10158TIP3    H151965   0.812   5.082   3.035  0.2138  0.0304  0.0088
10158TIP3    H251966   0.750   5.032   2.906  1.5742  0.1173 -0.6930
10159TIP3   OH251967   1.503   1.983   5.634  0.5113  0.0781  0.1162
10159TIP3    H151968   1.444   1.913   5.663 -1.2195  1.8889  1.0686
10159TIP3    H251969   1.533   2.024   5.716  1.8614  0.1828 -0.4163
10160TIP3   OH251970   6.553   4.480   4.600 -0.1885 -0.2257  0.7053
10160TIP3    H151971   6.580   4.457   4.511  0.7014 -1.0944  1.1878
10160TIP3    H251972   6.578   4.571   4.610  2.0313 -0.8304  0.9157
10161TIP3   OH251973   1.138   5.946   5.563 -0.1352  0.3152  0.5928
10161TIP3    H151974   1.169   5.947   5.473 -0.4548  1.2757  0.4945
10161TIP3    H251975   1.209   5.988   5.613  0.6996 -1.5179  1.0112
10162TIP3   OH251976   3.392   5.756   0.530  0.0669 -0.5062  0.0861
10162TIP3    H151977   3.484   5.734   0.546 -0.2284 -1.2303  0.8878
10162TIP3    H251978   3.389   5.789   0.440  0.8756 -1.9078 -0.4711
10163TIP3   OH251979   5.983   3.974   5.671 -0.0202 -0.4119  0.2997
10163TIP3    H151980   5.955   4.051   5.622  1.7273 -0.4218 -0.7923
10163TIP3    H251981   6.064   4.002   5.715 -0.3844 -1.0653  1.4019
10164TIP3   OH251982   3.776   0.895   1.181  0.8780 -0.0671 -0.3587
10164TIP3    H151983   3.701   0.853   1.221  0.5498 -0.0937 -0.9930
10164TIP3    H251984   3.744   0.926   1.096  1.6051 -0.1601 -0.6722
10165TIP3   OH251985   2.731   5.330  15.850 -0.1937  0.0945  0.0176
10165TIP3    H151986   2.718   5.265  15.781 -0.2847  0.2726 -0.1329
10165TIP3    H251987   2.784   5.399  15.809  0.0120  0.0555  0.2145
10166TIP3   OH251988   5.864   5.346   5.100 -0.5242 -0.6323  0.3026
10166TIP3    H151989   5.873   5.436   5.069 -0.8535 -0.6423  0.1752
10166TIP3    H251990   5.901   5.292   5.030  0.5095 -0.5539  0.7669
10167TIP3   OH251991   1.414   1.109  11.712  0.1421 -0.3533  0.0644
10167TIP3    H151992   1.401   1.019  11.684 -1.6167  0.0831 -0.5797
10167TIP3    H251993   1.431   1.157  11.631 -1.0540  0.2355  0.1454
10168TIP3   OH251994   2.567   1.100  10.431 -0.4889  0.1469  0.5275
10168TIP3    H151995   2.613   1.022  10.463 -0.0433  0.3913  0.4759
10168TIP3    H251996   2.481   1.067  10.406 -0.1706 -0.4078  0.1446
10169TIP3   OH251997   3.779   0.419   7.294 -0.1750 -0.2348  0.2693
10169TIP3    H151998   3.857   0.428   7.348  1.0964  0.3207 -1.6208
10169TIP3    H251999   3.796   0.343   7.240 -1.6570 -1.0884  0.9698
10170TIP3   OH252000   3.069   6.448  11.081  0.2931 -0.2901  0.2999
10170TIP3    H152001   3.146   6.395  11.103  0.4259  0.0017  0.5377
10170TIP3    H252002   3.028   6.401  11.008  0.3511 -0.7828  0.5784
10171TIP3   OH252003   5.825   3.479  13.005 -0.0359  0.0055 -0.6264
10171TIP3    H152004   5.787   3.565  12.993  0.3506  0.1030 -1.1900
10171TIP3    H252005   5.782   3.444  13.083 -0.7252  0.4058 -0.8267
10172TIP3   OH252006   4.956   2.027  12.957 -0.7252  0.5119  0.2313
10172TIP3    H152007   4.976   2.016  13.050  0.2418  4.0646  0.5154
10172TIP3    H252008   4.894   1.957  12.937 -0.7704 -0.4368  3.4846
10173TIP3   OH252009   5.451   0.272  17.100 -0.4033  0.4844  0.3159
10173TIP3    H152010   5.481   0.339  17.161 -0.2024  1.6378 -1.0365
10173TIP3    H252011   5.361   0.297  17.079  0.3550  1.5850 -1.8376
10174TIP3   OH252012   5.092   1.235   0.759  0.5273 -0.2776  0.2095
10174TIP3    H152013   5.059   1.238   0.669 -0.3739  0.8917  0.5666
10174TIP3    H252014   5.015   1.248   0.814  1.2889  0.4939  1.1121
10175TIP3   OH252015   5.415   2.045   6.223 -0.0259  0.2344 -0.2818
10175TIP3    H152016   5.391   2.132   6.193  0.7262  0.2802 -0.7812
10175TIP3    H252017   5.334   1.995   6.222 -0.4242  0.8799 -0.1718
10176TIP3   OH252018   6.207   0.433   2.702  0.1644  0.2146 -0.0171
10176TIP3    H152019   6.139   0.461   2.763 -1.0076  1.3929 -1.8271
10176TIP3    H252020   6.218   0.339   2.720 -1.2451  0.2138  0.9311
10177TIP3   OH252021   6.704   3.126  15.586  0.4028 -0.5010  0.3675
10177TIP3    H152022   6.683   3.219  15.574  1.5609 -0.2960 -0.1911
10177TIP3    H252023   6.761   3.105  15.512  1.0339 -1.3636  1.0921
10178TIP3   OH252024   4.195   4.151  11.107 -0.4244  0.1452 -0.4285
10178TIP3    H152025   4.255   4.118  11.040 -1.0969  0.7090 -1.3220
10178TIP3    H252026   4.115   4.101  11.095 -0.7588  0.6797 -0.4509
10179TIP3   OH252027   4.199   2.352   4.980 -0.4111 -0.3187 -0.6611
10179TIP3    H152028   4.197   2.282   5.046  1.5610 -0.7303 -1.0089
10179TIP3    H252029   4.177   2.431   5.028 -0.9720 -0.9178  0.0908
10180TIP3   OH252030   4.545   4.017   2.989  0.3791 -0.0005 -0.2395
10180TIP3    H152031   4.639   4.024   3.008  0.6471 -0.9273 -1.2211
10180TIP3    H252032   4.503   4.052   3.068  1.5280 -0.4909  0.6100
10181TIP3   OH252033   0.237   4.448  17.284  0.4277  0.0838  0.4012
10181TIP3    H152034   0.247   4.361  17.246  0.6150 -0.0387  0.7379
10181TIP3    H252035   0.235   4.507  17.208 -2.5559 -0.4557  0.0034
10182TIP3   OH252036   1.409   2.627   1.892  0.4410 -0.5443 -0.2064
10182TIP3    H152037   1.485   2.676   1.861  0.4827  0.1615  0.9757
10182TIP3    H252038   1.340   2.649   1.830 -0.3290  3.2837  1.8177
10183TIP3   OH252039   0.443   3.297   1.872 -0.2092 -0.1121 -0.7208
10183TIP3    H152040   0.465   3.208   1.843 -0.0154 -1.1768  2.4699
10183TIP3    H252041   0.349   3.292   1.893  0.6376 -0.8264  3.4082
10184TIP3   OH252042   6.548   3.873   0.359  0.0830 -0.2614  0.7118
10184TIP3    H152043   6.565   3.784   0.389  0.3626 -0.4191  0.0764
10184TIP3    H252044   6.545   3.867   0.264  0.0524  0.4007  0.6664
10185TIP3   OH252045   6.643   2.220  16.227 -0.1152 -0.7968  0.3105
10185TIP3    H152046   6.615   2.129  16.219 -0.2141 -0.7583  0.2166
10185TIP3    H252047   6.564   2.271  16.209 -0.4171 -0.7134  1.8055
10186TIP3   OH252048   6.399   0.587   1.904  0.0330  0.3869  0.0797
10186TIP3    H152049   6.416   0.537   1.824 -0.4425 -0.3229  0.4164
10186TIP3    H252050   6.351   0.664   1.875 -2.0349 -0.9173 -0.0917
10187TIP3   OH252051   1.056   0.029   3.722 -0.6031 -0.2058  0.3021
10187TIP3    H152052   1.075  -0.011   3.807  1.9041 -0.3589 -0.2950
10187TIP3    H252053   0.961   0.042   3.722 -0.7102 -0.7801  2.8667
10188TIP3   OH252054   2.976   0.148  14.430  0.6890  0.3425  0.3442
10188TIP3    H152055   3.008   0.073  14.481 -0.8850 -0.3612  0.3333
10188TIP3    H252056   2.890   0.166  14.467  0.0015  0.5427 -1.3285
10189TIP3   OH252057   0.968   5.119  13.222  0.1805  0.5568 -0.2867
10189TIP3    H152058   1.035   5.184  13.241  1.5958 -1.0406  0.3126
10189TIP3    H252059   0.930   5.146  13.138  1.8772  1.2243 -0.8503
10190TIP3   OH252060   2.449   4.728   3.469 -0.5775 -0.0018 -0.2069
10190TIP3    H152061   2.373   4.677   3.496 -1.5559  1.3045 -0.4524
10190TIP3    H252062   2.433   4.816   3.502  0.4668  0.4723 -0.9157
10191TIP3   OH252063   4.499   5.961  12.334  0.6139 -0.2866 -0.2710
10191TIP3    H152064   4.586   5.977  12.370  0.3244 -1.8889  1.2185
10191TIP3    H252065   4.442   6.023  12.379  0.6280 -0.7763  0.4345
10192TIP3   OH252066   6.055   0.268  12.628 -0.0448  0.0301  0.4847
10192TIP3    H152067   6.089   0.339  12.572  0.3564  0.3863  1.1725
10192TIP3    H252068   6.130   0.242  12.682 -0.1470 -1.0482  0.1129
10193TIP3   OH252069   1.140   2.354   3.148 -0.1681  0.0963  0.6190
10193TIP3    H152070   1.066   2.356   3.088  0.5610 -0.2963 -0.3067
10193TIP3    H252071   1.171   2.263   3.144 -0.3592 -0.0274  1.8857
10194TIP3   OH252072   1.740   4.936  11.437  0.1067 -0.1732 -0.1508
10194TIP3    H152073   1.712   4.981  11.358 -0.9163  0.8182  0.7747
10194TIP3    H252074   1.660   4.899  11.474  0.4367  0.1205  0.8929
10195TIP3   OH252075   1.704   5.607  16.819 -0.4210  0.3311 -0.4828
10195TIP3    H152076   1.718   5.522  16.778  1.6465 -0.6029  1.9915
10195TIP3    H252077   1.764   5.666  16.774  1.1081 -0.4549  0.5032
10196TIP3   OH252078   4.324   4.452   5.619  0.0015  0.7959  0.0340
10196TIP3    H152079   4.282   4.403   5.689 -0.0498 -0.6684 -0.9979
10196TIP3    H252080   4.388   4.508   5.664 -1.4172  1.3524  1.4067
10197TIP3   OH252081   5.372   1.089   2.505  0.1416  0.1101 -0.0150
10197TIP3    H152082   5.449   1.064   2.453 -1.2326 -0.9500 -1.5724
10197TIP3    H252083   5.298   1.079   2.445 -1.2340  1.0531  1.4932
10198TIP3   OH252084   1.555   0.265   1.317  0.0472  0.1067  0.5221
10198TIP3    H152085   1.459   0.260   1.323  0.0384  0.1917  0.4618
10198TIP3    H252086   1.581   0.316   1.395 -0.0230  0.7588  0.1248
10199TIP3   OH252087   6.434   1.986   2.672  0.2016 -0.0206  0.6120
10199TIP3    H152088   6.457   2.029   2.590  0.3816 -0.0178  0.6641
10199TIP3    H252089   6.474   2.040   2.740 -0.2739  0.1911  0.7232
10200TIP3   OH252090   5.980   1.823   3.074  0.8849  0.0420  0.1537
10200TIP3    H152091   5.932   1.837   2.993  0.7856  0.2760  0.2521
10200TIP3    H252092   5.926   1.863   3.142  0.6862 -0.6736  0.4205
10201TIP3   OH252093   3.103   3.213   3.711 -0.0307 -0.2150 -0.6690
10201TIP3    H152094   3.026   3.254   3.672  0.4750  1.1201 -0.3074
10201TIP3    H252095   3.142   3.282   3.765  0.3714 -1.4321  0.6405
10202TIP3   OH252096   3.801   2.819   3.644 -0.4908  0.4459  0.8538
10202TIP3    H152097   3.866   2.829   3.713 -0.8098  1.3927  1.0259
10202TIP3    H252098   3.752   2.902   3.645 -2.4731 -0.6959  1.5052
10203TIP3   OH252099   6.487   0.771  14.001  0.2699  0.2062  0.4333
10203TIP3    H152100   6.471   0.684  13.964 -0.5547 -0.0013  1.2694
10203TIP3    H252101   6.509   0.754  14.092 -1.1182  0.9552  0.9256
10204TIP3   OH252102   5.809   4.018   0.896  0.7858 -0.4229  0.0430
10204TIP3    H152103   5.848   4.105   0.894  1.0873 -0.5652 -0.2662
10204TIP3    H252104   5.816   3.990   0.988  2.4097 -0.8969 -0.2194
10205TIP3   OH252105   1.269   0.237   3.977  0.0540  0.1519  0.2890
10205TIP3    H152106   1.220   0.166   4.018 -1.5029  0.8402 -0.3286
10205TIP3    H252107   1.260   0.310   4.038  1.1783 -0.0110  0.6546
10206TIP3   OH252108   0.349   2.550  14.429 -0.0493 -0.0294 -0.4576
10206TIP3    H152109   0.355   2.473  14.372 -1.2671  0.6533 -1.5149
10206TIP3    H252110   0.271   2.596  14.399  1.7886  2.7084 -1.2128
10207TIP3   OH252111   6.169   5.573  13.467 -0.1940 -0.1867 -0.2258
10207TIP3    H152112   6.119   5.648  13.498  0.8946 -0.4439  2.2350
10207TIP3    H252113   6.123   5.497  13.503  1.0456 -0.4906  0.7608
10208TIP3   OH252114   0.083   4.702  15.364  0.1602 -0.0887  0.3699
10208TIP3    H152115   0.065   4.796  15.351 -0.7571 -0.3296 -0.1452
10208TIP3    H252116   0.099   4.694  15.458 -1.2578  0.3416  0.6613
10209TIP3   OH252117   1.651   1.590  13.514  0.4078  0.1482  0.2483
10209TIP3    H152118   1.668   1.669  13.564 -0.9605  0.0674  0.8502
10209TIP3    H252119   1.559   1.596  13.490  0.4738 -0.9220 -0.3136
10210TIP3   OH252120   2.339   6.225  11.790 -0.4870 -0.1893  0.1429
10210TIP3    H152121   2.378   6.170  11.858 -0.1416 -1.1680 -0.8465
10210TIP3    H252122   2.326   6.166  11.716  1.4234  1.4187 -1.5071
10211TIP3   OH252123   5.822   6.209   1.172 -0.2422  0.2589  0.5633
10211TIP3    H152124   5.894   6.271   1.155 -0.2329  0.0485 -0.2032
10211TIP3    H252125   5.800   6.223   1.263  1.1773 -0.0885  0.9798
10212TIP3   OH252126   6.206   0.435   0.506  0.5775  0.4662 -0.4562
10212TIP3    H152127   6.228   0.522   0.472 -0.9623  0.9869 -0.1615
10212TIP3    H252128   6.280   0.380   0.481  0.7602  1.4665 -2.1576
10213TIP3   OH252129   5.477   6.035  14.409  0.6926  0.3846  0.1705
10213TIP3    H152130   5.539   6.104  14.432  1.9290 -0.5948 -0.1643
10213TIP3    H252131   5.511   5.997  14.329 -1.0727  0.6972 -0.7536
10214TIP3   OH252132   4.313   0.171   0.980  0.5416  0.3683 -0.6632
10214TIP3    H152133   4.323   0.084   0.942  0.8977  0.0168  0.2263
10214TIP3    H252134   4.403   0.202   0.994  0.4301 -0.2323  1.5299
10215TIP3   OH252135   4.347   2.308   2.266 -0.1559 -0.0815  0.2123
10215TIP3    H152136   4.362   2.399   2.238  1.2602 -0.4973 -0.4464
10215TIP3    H252137   4.264   2.311   2.313 -0.8522  1.3000 -1.0512
10216TIP3   OH252138   0.175   1.233   1.433 -0.1785  0.2867 -0.4671
10216TIP3    H152139   0.138   1.193   1.512 -0.2068  1.9066  0.3623
10216TIP3    H252140   0.112   1.301   1.410  0.4327  0.6049 -1.2090
10217TIP3   OH252141   5.953   6.301  12.361 -0.0757  0.2729  0.4320
10217TIP3    H152142   6.034   6.299  12.413 -0.3634 -1.3621  0.8624
10217TIP3    H252143   5.945   6.212  12.327 -0.2784  1.1386 -1.8605
10218TIP3   OH252144   6.234   0.888  13.899  0.4341  0.2561 -0.0865
10218TIP3    H152145   6.322   0.864  13.927  0.6629  0.2305 -0.8144
10218TIP3    H252146   6.176   0.844  13.962  0.9008 -0.8389 -0.4055
10219TIP3   OH252147   0.805   5.720   3.765 -0.1077 -0.0298 -0.8592
10219TIP3    H152148   0.766   5.746   3.848 -1.9563 -0.5952 -1.5340
10219TIP3    H252149   0.823   5.803   3.720  0.3681  0.2597 -0.1399
10220TIP3   OH252150   1.102   5.688   5.042  0.4604 -0.1160 -0.4604
10220TIP3    H152151   1.105   5.611   4.985 -0.1180 -0.5759  0.1273
10220TIP3    H252152   1.106   5.652   5.130  1.1893  0.5861 -0.1998
10221TIP3   OH252153   3.611   5.216  14.025 -0.0903  0.1534 -0.0049
10221TIP3    H152154   3.572   5.129  14.038 -2.2162  1.1225  0.2953
10221TIP3    H252155   3.624   5.223  13.930  2.5621 -1.4830  0.1602
10222TIP3   OH252156   5.375   4.007   1.717 -0.6575  0.0826  0.0402
10222TIP3    H152157   5.335   3.923   1.693  0.2632 -0.7083  1.2310
10222TIP3    H252158   5.376   4.006   1.813 -1.4698  1.8524  0.0823
10223TIP3   OH252159   5.872   0.479  14.989 -0.4183 -0.6568  0.1877
10223TIP3    H152160   5.790   0.482  14.940 -0.8735 -0.5014  0.9510
10223TIP3    H252161   5.874   0.391  15.026 -0.6355 -0.3842  0.8442
10224TIP3   OH252162   4.004   1.376   0.095 -0.6925  1.0210 -0.2058
10224TIP3    H152163   3.974   1.449   0.149  0.2374  2.1323 -1.1760
10224TIP3    H252164   4.017   1.414   0.009  0.7338 -0.0843 -0.4903
10225TIP3   OH252165   4.052   2.565   1.326 -0.5161 -0.1407  0.3709
10225TIP3    H152166   4.137   2.530   1.354 -1.0332 -3.6191 -2.1513
10225TIP3    H252167   3.989   2.529   1.388 -0.5577 -0.3446  0.2106
10226TIP3   OH252168   1.893   6.809  16.005  0.6614  0.6481  0.0300
10226TIP3    H152169   1.933   6.846  15.926 -0.9918  1.4145 -0.4801
10226TIP3    H252170   1.854   6.727  15.976  0.3835  0.7444  0.1271
10227TIP3   OH252171   0.629   6.285   3.891 -0.0323  0.2342 -0.2474
10227TIP3    H152172   0.664   6.373   3.877  1.7881 -0.0774  2.0512
10227TIP3    H252173   0.699   6.239   3.938 -2.1214 -1.5347  1.2167
10228TIP3   OH252174   2.462   6.461  16.018  0.3107  0.5612  0.3878
10228TIP3    H152175   2.535   6.411  16.054 -0.9214  0.0237  2.1848
10228TIP3    H252176   2.421   6.401  15.956  2.3618  1.4511 -1.9267
10229TIP3   OH252177   5.232   0.361  13.780  0.1474 -0.2809  0.1963
10229TIP3    H152178   5.326   0.376  13.768  0.0333  2.1130  1.9261
10229TIP3    H252179   5.193   0.379  13.694  1.1448 -0.1330 -0.2302
10230TIP3   OH252180   6.181   4.902   1.631  0.1643  0.7330  0.1889
10230TIP3    H152181   6.133   4.921   1.550 -1.3316  0.3534  0.9628
10230TIP3    H252182   6.115   4.906   1.700  1.3410  0.6590  1.3536
10231TIP3   OH252183   5.275   2.534  11.909 -0.0974  0.0185  0.5526
10231TIP3    H152184   5.223   2.603  11.868  0.0185 -0.6081 -0.6756
10231TIP3    H252185   5.365   2.566  11.906 -0.0379 -0.2110 -0.0609
10232TIP3   OH252186   2.953   3.484  13.170 -0.4690 -0.4242  0.0096
10232TIP3    H152187   2.873   3.448  13.208  0.1584 -1.4483  0.3776
10232TIP3    H252188   3.009   3.505  13.244 -0.3748  0.2555 -0.2484
10233TIP3   OH252189   5.070   0.073   5.810 -0.0391 -0.5678 -0.4944
10233TIP3    H152190   5.075   0.116   5.725 -0.8219 -0.3200 -0.4220
10233TIP3    H252191   4.979   0.043   5.816 -0.0337 -0.4214  0.3329
10234TIP3   OH252192   4.304   1.623  13.123  0.3881 -0.0791 -0.5848
10234TIP3    H152193   4.258   1.682  13.064  2.3440  1.4822 -0.6200
10234TIP3    H252194   4.257   1.540  13.116 -1.2777  0.9433 -1.9672
10235TIP3   OH252195   1.053   5.154   0.252 -0.2646  0.2408 -0.5261
10235TIP3    H152196   1.036   5.164   0.346 -1.6469  2.1384 -0.9393
10235TIP3    H252197   1.148   5.158   0.244 -0.2194  2.3715  0.5949
10236TIP3   OH252198   0.531   1.708   4.905 -0.4841 -0.4081 -0.1302
10236TIP3    H152199   0.494   1.680   4.989  0.6663 -0.8194  0.2526
10236TIP3    H252200   0.462   1.691   4.841 -1.8588  1.0915  0.8958
10237TIP3   OH252201   0.562   0.030   5.619  0.0609  0.2695 -0.2529
10237TIP3    H152202   0.569  -0.065   5.610 -1.2088 -0.0525  1.8613
10237TIP3    H252203   0.648   0.057   5.652 -0.1554 -0.3990  0.8989
10238TIP3   OH252204   4.180   3.418  16.151 -0.5948 -0.1769 -1.2205
10238TIP3    H152205   4.261   3.370  16.165  0.0495  0.1776 -3.4054
10238TIP3    H252206   4.209   3.505  16.121 -1.7642  0.1549 -1.4195
10239TIP3   OH252207   3.008   4.284   4.254 -0.0890 -0.1048 -0.0403
10239TIP3    H152208   3.031   4.336   4.176 -0.0831 -0.1769 -0.0866
10239TIP3    H252209   3.082   4.223   4.264 -0.1645 -0.2015 -0.0708
10240TIP3   OH252210   6.442   3.128  16.844  0.4891  0.0931 -0.0915
10240TIP3    H152211   6.364   3.160  16.799  1.0948  0.9597 -0.5356
10240TIP3    H252212   6.444   3.177  16.926  0.4801 -0.0435 -0.0097
10241TIP3   OH252213   4.418   1.106  12.381 -0.4760 -0.2742 -0.0058
10241TIP3    H152214   4.497   1.083  12.430 -2.5751  0.2386  3.8829
10241TIP3    H252215   4.413   1.042  12.311  2.8829 -0.8832  0.2504
10242TIP3   OH252216   4.695   1.997   1.997  0.5187 -0.2744  0.1774
10242TIP3    H152217   4.602   1.989   1.976  1.0119  0.9514 -2.7524
10242TIP3    H252218   4.697   2.021   2.090 -1.9487 -2.9539  0.9824
10243TIP3   OH252219   5.720   0.840  13.411 -0.1005  0.0102  1.1000
10243TIP3    H152220   5.738   0.787  13.333 -0.5854 -0.6429  1.4242
10243TIP3    H252221   5.642   0.891  13.389 -0.4905 -0.4892  1.2995
10244TIP3   OH252222   4.985   1.419  14.442 -0.2741  0.3649  0.4848
10244TIP3    H152223   5.072   1.379  14.445 -0.0888  0.6999 -0.4022
10244TIP3    H252224   4.997   1.505  14.481  0.2541  1.2463 -1.5671
10245TIP3   OH252225   5.295   2.274  16.277  0.2509  0.4177 -0.5210
10245TIP3    H152226   5.262   2.332  16.208  1.3456  2.2522  0.4562
10245TIP3    H252227   5.232   2.284  16.349  0.4557  0.4048 -0.3399
10246TIP3   OH252228   6.689   6.729  12.758  0.3731  0.1286  0.1068
10246TIP3    H152229   6.664   6.665  12.824 -1.0336  0.2186 -0.3159
10246TIP3    H252230   6.785   6.731  12.760  0.3548 -0.3207  1.6968
10247TIP3   OH252231   0.025   5.161  16.050 -0.2399  0.0267 -0.3308
10247TIP3    H152232  -0.014   5.238  16.091 -1.6448  0.5790 -2.6065
10247TIP3    H252233  -0.001   5.088  16.106 -1.7954  0.8071 -0.0122
10248TIP3   OH252234   1.574   4.639   4.015  0.2857  0.1122  0.2445
10248TIP3    H152235   1.615   4.568   4.064 -3.3715 -2.7099 -0.6220
10248TIP3    H252236   1.524   4.688   4.080  1.2281  0.7920  0.4854
10249TIP3   OH252237   1.061   4.389  15.977 -0.2692 -0.5019 -0.5462
10249TIP3    H152238   1.056   4.475  16.019  0.3690  0.6706 -2.7844
10249TIP3    H252239   1.010   4.399  15.897  0.1510 -2.1099 -1.0329
10250TIP3   OH252240   4.687   1.136   2.935 -0.3858 -0.5155  0.2179
10250TIP3    H152241   4.613   1.085   2.968 -0.9678  1.2288  1.6983
10250TIP3    H252242   4.756   1.071   2.923 -0.9909 -1.6472  2.3972
10251TIP3   OH252243   6.771   0.080   3.950 -0.6294  0.4331 -0.3067
10251TIP3    H152244   6.684   0.054   3.979 -0.6558  0.8534 -0.0088
10251TIP3    H252245   6.830   0.048   4.019 -0.4136 -1.0069 -1.1481
10252TIP3   OH252246   2.232   1.148   1.179  0.6872 -0.0345 -0.4946
10252TIP3    H152247   2.322   1.178   1.185  0.3247  0.7826  1.0021
10252TIP3    H252248   2.182   1.225   1.151  0.0180  0.3203  1.6350
10253TIP3   OH252249   6.489   5.319  14.925 -0.1974 -0.3084 -0.2616
10253TIP3    H152250   6.451   5.307  15.012 -1.0615  1.0787 -0.4273
10253TIP3    H252251   6.453   5.403  14.895 -0.7565 -1.2880 -2.3981
10254TIP3   OH252252   4.447   6.453  14.218  0.6124  0.5094  0.6817
10254TIP3    H152253   4.379   6.447  14.286 -0.7138  1.3350 -0.5373
10254TIP3    H252254   4.418   6.524  14.161 -0.1864 -2.3875 -2.7533
10255TIP3   OH252255   4.833   1.007  11.831 -0.3394 -0.3874  0.2231
10255TIP3    H152256   4.768   1.006  11.761  0.6947  2.3547 -0.8765
10255TIP3    H252257   4.917   0.996  11.786  0.0845 -2.4189  1.4644
10256TIP3   OH252258   4.176   5.588  12.113 -0.0534  0.1381 -0.5090
10256TIP3    H152259   4.227   5.669  12.107 -1.0031  0.8766  0.9595
10256TIP3    H252260   4.199   5.553  12.199 -1.3700  0.0364 -0.2017
10257TIP3   OH252261   3.889   5.337  11.278  0.4972  0.2813 -0.3180
10257TIP3    H152262   3.928   5.253  11.255  0.9908  0.8846 -1.6985
10257TIP3    H252263   3.926   5.399  11.216 -0.6699  1.3348  0.0124
10258TIP3   OH252264   1.871   0.865  10.971 -0.6941  0.0286  0.4854
10258TIP3    H152265   1.837   0.947  10.934  1.3910 -0.0358 -1.7376
10258TIP3    H252266   1.829   0.797  10.919  1.0801 -0.1142 -0.8227
10259TIP3   OH252267   2.936   6.721   2.778 -0.7578 -0.4517 -0.2035
10259TIP3    H152268   2.994   6.705   2.703  0.0984 -3.0711  0.9321
10259TIP3    H252269   2.989   6.770   2.840 -0.1889 -1.5695  0.2191
10260TIP3   OH252270   5.824   4.542  12.680  0.1781  0.1686  0.0883
10260TIP3    H152271   5.765   4.505  12.746  1.7272  0.2494  1.5511
10260TIP3    H252272   5.841   4.469  12.619 -0.9535 -0.0149 -0.0132
10261TIP3   OH252273   1.562   2.399  13.250  0.6484 -0.3322  0.6570
10261TIP3    H152274   1.591   2.393  13.159 -0.8852 -1.4998  0.2229
10261TIP3    H252275   1.623   2.342  13.297  1.4073  0.2243  0.3618
10262TIP3   OH252276   0.787   1.670   3.804 -0.3967 -0.2908  0.0108
10262TIP3    H152277   0.749   1.758   3.801 -2.0541 -1.0101 -0.3372
10262TIP3    H252278   0.881   1.684   3.789 -0.5356  1.4875  0.7372
10263TIP3   OH252279   4.843   0.338  10.599  0.2856 -0.2936  0.5146
10263TIP3    H152280   4.860   0.314  10.690  0.2539 -1.1283  0.3032
10263TIP3    H252281   4.794   0.264  10.563 -1.2379  0.7787  0.2989
10264TIP3   OH252282   3.898   0.110   3.192 -0.2001  0.6249  0.3516
10264TIP3    H152283   3.831   0.175   3.217 -1.8907 -0.8211 -0.3216
10264TIP3    H252284   3.977   0.162   3.179 -1.8196  2.7652 -1.4933
10265TIP3   OH252285   4.107   6.038   6.234 -0.3306  0.3066 -0.0757
10265TIP3    H152286   4.155   6.085   6.301  1.0337  0.5530 -1.1969
10265TIP3    H252287   4.133   5.947   6.245 -0.2678  0.3162 -0.1435
10266TIP3   OH252288   1.576   3.630  15.826 -0.1757  0.2884  0.2955
10266TIP3    H152289   1.589   3.568  15.898 -0.8124 -0.8766 -0.5668
10266TIP3    H252290   1.662   3.640  15.786 -0.0924 -0.1280  0.3690
10267TIP3   OH252291   3.145   3.284  16.882  0.0927  0.1063  0.4902
10267TIP3    H152292   3.083   3.211  16.878 -0.2402  0.3536  0.9502
10267TIP3    H252293   3.231   3.244  16.871  0.1056 -0.6909  3.1521
10268TIP3   OH252294   6.138   4.685  12.882  0.0023  0.1804  0.2923
10268TIP3    H152295   6.172   4.663  12.796  2.3943  1.9732  0.7368
10268TIP3    H252296   6.057   4.733  12.864  1.1946  1.7384 -1.0018
10269TIP3   OH252297   0.194   4.339   1.154 -0.3611  0.5100 -0.5331
10269TIP3    H152298   0.137   4.306   1.084  0.6847  1.2165 -1.7372
10269TIP3    H252299   0.266   4.383   1.108  0.4619  0.7897  0.9877
10270TIP3   OH252300   2.754   4.456  11.799  0.3388  0.1901 -0.1415
10270TIP3    H152301   2.724   4.458  11.708  0.6706 -0.5628 -0.2724
10270TIP3    H252302   2.846   4.481  11.795  0.4481 -0.1892 -0.0572
10271TIP3   OH252303   0.844   3.598   1.018 -0.0912  0.1872 -0.3715
10271TIP3    H152304   0.855   3.584   0.924 -1.6319 -0.7569 -0.4282
10271TIP3    H252305   0.750   3.614   1.029 -0.2200 -1.5095  1.2238
10272TIP3   OH252306   6.328   2.365   0.789  0.4055 -0.6252  0.2050
10272TIP3    H152307   6.286   2.424   0.727 -0.9907 -1.1869  0.6018
10272TIP3    H252308   6.413   2.406   0.807 -0.5442  1.2496  0.5085
10273TIP3   OH252309   6.092   0.834  15.495 -0.0731 -0.7773 -0.4361
10273TIP3    H152310   6.005   0.863  15.469 -0.9779 -0.3149  2.8562
10273TIP3    H252311   6.098   0.858  15.588  3.7528 -0.3259 -0.7325
10274TIP3   OH252312   2.664   1.584  12.168 -0.5786 -0.4160 -0.2493
10274TIP3    H152313   2.670   1.489  12.161 -0.9526 -0.3379 -1.7835
10274TIP3    H252314   2.601   1.600  12.237 -0.3844 -1.2812  0.1228
10275TIP3   OH252315   3.623   1.869   0.399 -0.1901 -0.1582 -0.5513
10275TIP3    H152316   3.676   1.863   0.319  0.2689  1.1029 -0.3566
10275TIP3    H252317   3.669   1.812   0.462 -1.9427 -3.1845 -1.8855
10276TIP3   OH252318   1.108   4.930   1.902  0.4439  0.0418 -0.3971
10276TIP3    H152319   1.051   5.004   1.924  0.7358  0.0167  0.4608
10276TIP3    H252320   1.090   4.912   1.810 -2.0282 -0.8922  0.2192
10277TIP3   OH252321   4.192   1.287  11.868 -0.2655 -0.4159 -0.2680
10277TIP3    H152322   4.164   1.364  11.918 -1.2474 -0.1066 -1.2893
10277TIP3    H252323   4.254   1.321  11.804 -1.0567 -0.3916 -1.0304
10278TIP3   OH252324   5.726   3.903   4.919  0.2098  0.4512  0.2030
10278TIP3    H152325   5.650   3.864   4.962 -0.5038  1.1574 -0.4116
10278TIP3    H252326   5.751   3.976   4.976 -0.2227  0.8693 -0.1389
10279TIP3   OH252327   4.442   4.683   2.763 -0.0582 -0.1352 -0.4003
10279TIP3    H152328   4.383   4.758   2.760  0.9118  0.6414 -0.3145
10279TIP3    H252329   4.395   4.613   2.718 -0.0844  1.1708 -2.4484
10280TIP3   OH252330   1.356   3.357   0.179 -0.2291  0.3002 -0.0886
10280TIP3    H152331   1.266   3.349   0.146  0.2140  1.0860 -1.5241
10280TIP3    H252332   1.385   3.442   0.148  1.4308 -0.4622 -0.7007
10281TIP3   OH252333   2.889   3.087   2.047 -0.5194  0.1096  0.2707
10281TIP3    H152334   2.884   3.174   2.086 -3.4866 -0.2465  0.7639
10281TIP3    H252335   2.950   3.097   1.974  0.5629  2.1440  1.4065
10282TIP3   OH252336   3.977   4.628  12.180 -0.4054  0.6158  0.1980
10282TIP3    H152337   4.018   4.596  12.261  1.8003  1.3203 -0.5945
10282TIP3    H252338   3.966   4.722  12.196 -1.9209  0.3942  0.4772
10283TIP3   OH252339   2.588   4.197   5.855  0.2911 -0.4725  0.4498
10283TIP3    H152340   2.599   4.111   5.895  0.9279 -1.6253 -2.0677
10283TIP3    H252341   2.514   4.186   5.795  0.3710  0.7364  0.1140
10284TIP3   OH252342   2.484   0.246  12.054 -0.4689 -0.3419 -0.3426
10284TIP3    H152343   2.516   0.216  11.969  1.5374 -1.7010  0.8534
10284TIP3    H252344   2.523   0.333  12.064 -0.2708 -0.4026 -0.5706
10285TIP3   OH252345   0.750   2.861  16.706  0.5048 -0.3843 -0.0872
10285TIP3    H152346   0.715   2.837  16.792  0.1257 -0.4424 -0.2548
10285TIP3    H252347   0.697   2.811  16.644 -0.9354  1.5869 -0.4977
10286TIP3   OH252348   3.267   5.448  16.118  0.4300 -0.3537 -0.0925
10286TIP3    H152349   3.275   5.356  16.145  0.5393 -0.3010  0.0564
10286TIP3    H252350   3.188   5.479  16.162 -2.2538 -1.6600 -3.7733
10287TIP3   OH252351   4.621   0.210   4.807 -0.7210 -0.2121 -0.2981
10287TIP3    H152352   4.709   0.210   4.771 -0.7007  1.4640 -0.2418
10287TIP3    H252353   4.586   0.123   4.785  0.5169 -0.4501 -1.3230
10288TIP3   OH252354   4.838   0.526   6.044  0.6687 -0.3699  0.1734
10288TIP3    H152355   4.752   0.509   6.081 -0.0165  1.1478 -0.6990
10288TIP3    H252356   4.884   0.574   6.112 -0.1672  1.3352 -0.4555
10289TIP3   OH252357   6.598   1.740  16.013  0.0713 -0.3730 -0.0013
10289TIP3    H152358   6.671   1.795  15.983  0.1001 -0.1821  0.4137
10289TIP3    H252359   6.542   1.731  15.936  1.2305 -1.6787 -0.7064
10290TIP3   OH252360   4.366   1.222   4.777  0.0503  0.0343  0.2630
10290TIP3    H152361   4.345   1.157   4.709 -1.2428 -0.1867  0.8644
10290TIP3    H252362   4.325   1.303   4.746  2.1447  0.7314 -0.7693
10291TIP3   OH252363   4.257   2.315   2.614 -0.6914  0.7049  0.1519
10291TIP3    H152364   4.219   2.276   2.535  0.2674 -2.8622  1.3687
10291TIP3    H252365   4.188   2.309   2.680  0.2104 -1.0562  0.9606
10292TIP3   OH252366   4.093   5.037   4.371 -0.1535  0.0407  0.2134
10292TIP3    H152367   4.177   5.043   4.327  0.1443 -0.1546  0.7576
10292TIP3    H252368   4.046   4.967   4.324 -0.2106  0.4947 -0.4089
10293TIP3   OH252369   3.396   5.303  14.710  0.7560  0.3334  0.4727
10293TIP3    H152370   3.475   5.304  14.763  0.6246 -1.3407  0.7161
10293TIP3    H252371   3.376   5.210  14.697 -0.9901  0.7260  0.1566
10294TIP3   OH252372   2.177   0.608   3.941  0.3145 -0.3550 -0.3032
10294TIP3    H152373   2.214   0.526   3.974 -1.1958 -0.5885  0.8824
10294TIP3    H252374   2.105   0.580   3.885  1.2658  0.1180 -1.7904
10295TIP3   OH252375   1.845   6.155  14.303  0.0857  0.7661 -0.4092
10295TIP3    H152376   1.764   6.147  14.252  0.5414 -0.2594 -1.0094
10295TIP3    H252377   1.909   6.103  14.254  0.5726 -0.1489  1.1496
10296TIP3   OH252378   6.646   5.269  12.532  0.1114 -0.7217 -0.0297
10296TIP3    H152379   6.551   5.258  12.543  0.0068 -1.8024 -1.7448
10296TIP3    H252380   6.656   5.305  12.444  1.2798  0.0570  0.3996
10297TIP3   OH252381   5.054   0.376   5.995 -0.1025 -0.1221  0.0141
10297TIP3    H152382   5.039   0.306   6.058  0.5826 -1.2047 -1.0018
10297TIP3    H252383   4.985   0.440   6.013 -0.4521 -0.8377  1.2586
10298TIP3   OH252384   1.098   5.487  15.941  0.4731  0.9569 -0.4422
10298TIP3    H152385   1.054   5.429  15.879  1.4079  1.4363 -1.5770
10298TIP3    H252386   1.044   5.484  16.020 -0.7648  0.3945 -1.3009
10299TIP3   OH252387   1.334   1.425  11.345  0.1951 -0.1473  0.0941
10299TIP3    H152388   1.256   1.457  11.299 -0.8967 -1.1152  1.2330
10299TIP3    H252389   1.318   1.448  11.436  0.7487 -1.3026  0.4841
10300TIP3   OH252390   0.748   0.397  17.159  0.1445  0.0347  0.0060
10300TIP3    H152391   0.682   0.390  17.089  0.6827 -0.7510 -0.4325
10300TIP3    H252392   0.698   0.389  17.240 -0.1922 -1.5899 -0.3417
10301TIP3   OH252393   1.784   0.926   1.644  0.5899 -0.2543 -0.0201
10301TIP3    H152394   1.803   1.015   1.614 -0.7744 -0.5591 -1.8477
10301TIP3    H252395   1.858   0.874   1.614 -0.1392 -0.3142 -1.7661
10302TIP3   OH252396   3.507   3.393   0.537  0.1431 -0.1203  0.7992
10302TIP3    H152397   3.488   3.468   0.481  0.4009 -0.5730  0.1104
10302TIP3    H252398   3.595   3.366   0.512 -0.3165 -1.2529  0.3705
10303TIP3   OH252399   4.991   6.289  16.732 -0.1547 -0.1819  0.2051
10303TIP3    H152400   4.896   6.304  16.729 -0.3839 -1.8681 -1.4147
10303TIP3    H252401   5.028   6.357  16.676 -0.6938 -1.5572 -1.8866
10304TIP3   OH252402   4.265   3.614  16.729 -0.2228  0.1753 -0.0534
10304TIP3    H152403   4.268   3.551  16.801  0.3982 -0.8094 -0.9371
10304TIP3    H252404   4.353   3.650  16.726  0.1234 -0.7641 -1.1893
10305TIP3   OH252405   0.322   4.679  13.450  0.3893 -0.3363  0.0203
10305TIP3    H152406   0.388   4.613  13.470 -1.6628 -1.5536  3.2414
10305TIP3    H252407   0.243   4.629  13.432 -0.3176  1.1621 -1.1577
10306TIP3   OH252408   6.348   6.772  14.408 -0.8178 -0.1407  0.0115
10306TIP3    H152409   6.281   6.777  14.340 -1.1142 -2.0831  0.1244
10306TIP3    H252410   6.376   6.863  14.421 -0.6188  0.2380 -2.8112
10307TIP3   OH252411   5.925   3.672  14.187 -0.3674 -0.6683 -0.3500
10307TIP3    H152412   6.014   3.696  14.164  0.0180 -0.4049  1.3180
10307TIP3    H252413   5.882   3.654  14.104  1.0309 -0.0589 -1.2176
10308TIP3   OH252414   6.393   4.523   5.978  0.3061  0.2547 -0.2033
10308TIP3    H152415   6.474   4.496   6.021 -0.5391 -1.3549  0.4472
10308TIP3    H252416   6.366   4.603   6.024  1.1589  0.4045  0.0372
10309TIP3   OH252417   2.305   0.790   2.576 -0.0838 -0.1119  0.0702
10309TIP3    H152418   2.278   0.776   2.485 -1.2781  2.3220  0.0204
10309TIP3    H252419   2.336   0.880   2.578  0.7396 -0.4222  1.9126
10310TIP3   OH252420   0.131   0.086  13.941 -0.4065  0.4176 -0.5133
10310TIP3    H152421   0.128   0.179  13.919 -0.6040  0.7432  0.8210
10310TIP3    H252422   0.097   0.042  13.864  1.5553  1.3148 -1.9208
10311TIP3   OH252423   0.084   1.705  16.459  0.1979  0.0933 -0.2728
10311TIP3    H152424   0.178   1.720  16.455  0.1602  0.5780  0.4558
10311TIP3    H252425   0.069   1.627  16.406  0.7934  0.9679 -1.7564
10312TIP3   OH252426   6.804   3.691   5.027 -0.1557  0.2404 -0.0125
10312TIP3    H152427   6.849   3.760   4.979 -1.1197  0.6419 -0.3542
10312TIP3    H252428   6.871   3.653   5.083  0.7767  0.3671 -1.0126
10313TIP3   OH252429   1.815   4.603   1.133 -0.1297  0.3037  0.3917
10313TIP3    H152430   1.762   4.524   1.144  0.6021 -0.6392 -2.3415
10313TIP3    H252431   1.752   4.675   1.132 -1.1909 -0.6131 -0.6998
10314TIP3   OH252432   1.356   0.533   1.048 -0.1165  0.3409  0.6173
10314TIP3    H152433   1.407   0.593   1.102  0.6301  0.6557 -0.4228
10314TIP3    H252434   1.393   0.542   0.961 -0.8199 -0.7185  0.1998
10315TIP3   OH252435   4.162   6.424  11.682  0.0726 -0.3383  0.2607
10315TIP3    H152436   4.188   6.445  11.592 -0.0888 -1.6340 -0.1051
10315TIP3    H252437   4.068   6.440  11.684  0.2294  0.5873  0.4717
10316TIP3   OH252438   3.615   0.236  15.340  0.0127  0.2013 -0.5075
10316TIP3    H152439   3.680   0.301  15.366 -0.1313  0.5835 -1.0976
10316TIP3    H252440   3.599   0.186  15.419  0.4392  0.6155 -0.1543
10317TIP3   OH252441   0.730   0.699  13.232  0.0733  0.1818  0.1778
10317TIP3    H152442   0.678   0.750  13.170 -2.2706 -1.6560  0.5655
10317TIP3    H252443   0.799   0.659  13.179 -1.4742 -0.7844 -1.1288
10318TIP3   OH252444   3.353   4.756  12.004 -0.6605 -0.0200  0.2264
10318TIP3    H152445   3.362   4.676  11.952 -1.6978  0.1805 -0.2749
10318TIP3    H252446   3.386   4.826  11.948  1.8395 -0.2891  1.2917
10319TIP3   OH252447   3.315   0.597   3.318  0.4410  0.0109  0.0095
10319TIP3    H152448   3.324   0.679   3.366 -3.8470  0.2177  0.7026
10319TIP3    H252449   3.381   0.539   3.357  0.2203  1.6309  2.9884
10320TIP3   OH252450   3.471   3.039   4.391  0.3302  0.3155  0.1160
10320TIP3    H152451   3.449   3.059   4.482 -1.9958 -2.3618  0.2211
10320TIP3    H252452   3.507   2.950   4.394 -1.6872 -0.6216 -1.7702
10321TIP3   OH252453   3.878   6.021  10.848 -0.6673  0.3880 -0.1597
10321TIP3    H152454   3.974   6.020  10.848 -0.6709 -1.7181 -1.4579
10321TIP3    H252455   3.853   5.929  10.853 -2.6053  0.7140 -2.8149
10322TIP3   OH252456   5.868   3.014  15.618  0.3181  0.7387 -0.1518
10322TIP3    H152457   5.918   2.968  15.551  0.3643  0.4598  0.0723
10322TIP3    H252458   5.925   3.086  15.645 -0.4304  1.9337 -1.6893
10323TIP3   OH252459   5.814   2.043  15.581  0.6899 -0.3663 -0.1402
10323TIP3    H152460   5.837   2.135  15.564  0.9027 -0.4973 -0.5712
10323TIP3    H252461   5.722   2.036  15.556  0.4636 -0.0965  0.5879
10324TIP3   OH252462   0.276   3.485  16.086 -0.3638  0.0487  0.8184
10324TIP3    H152463   0.363   3.447  16.075 -1.2778 -1.8949 -0.0081
10324TIP3    H252464   0.243   3.448  16.168 -0.9782 -0.3791  0.3840
10325TIP3   OH252465   2.495   0.260   4.451  0.1966  0.5776 -0.5191
10325TIP3    H152466   2.492   0.343   4.499 -0.3199  0.3188 -0.0956
10325TIP3    H252467   2.488   0.193   4.519 -1.1636  0.2125 -1.0008
10326TIP3   OH252468   3.165   3.950  16.206  0.2334  0.3462 -0.6079
10326TIP3    H152469   3.095   3.923  16.266 -1.1951  2.3216 -1.3290
10326TIP3    H252470   3.120   3.972  16.124  2.1239 -1.9450 -2.3250
10327TIP3   OH252471   3.047   6.253  13.950 -0.3008  0.2147 -0.2939
10327TIP3    H152472   2.979   6.229  14.014  0.1045  1.7242  0.7431
10327TIP3    H252473   3.007   6.322  13.897 -0.4564 -0.6796 -1.3453
10328TIP3   OH252474   0.638   4.237   1.218  0.5438 -0.4719  0.1642
10328TIP3    H152475   0.573   4.292   1.261  2.0195  0.6538  1.0116
10328TIP3    H252476   0.644   4.159   1.273  0.7920 -0.0291  0.7723
10329TIP3   OH252477   6.455   1.139   1.454  0.3163  0.1541 -0.1688
10329TIP3    H152478   6.494   1.086   1.384  1.2532  1.5518 -0.7050
10329TIP3    H252479   6.379   1.088   1.482 -0.1369 -0.3796 -2.2698
10330TIP3   OH252480   2.705   6.099  12.478  0.6706 -0.1929  0.0392
10330TIP3    H152481   2.783   6.153  12.487  1.4048 -0.9273 -1.6935
10330TIP3    H252482   2.737   6.018  12.438 -0.7439 -1.0940  0.7006
10331TIP3   OH252483   0.347   4.310  16.095 -0.6074 -0.0894 -0.1340
10331TIP3    H152484   0.264   4.264  16.113 -0.6416  0.2087  0.4927
10331TIP3    H252485   0.370   4.284  16.006 -0.6985 -1.2170  0.1641
10332TIP3   OH252486   6.177   2.016  13.768 -0.2194  0.3144 -0.3386
10332TIP3    H152487   6.111   2.003  13.836 -0.2327  0.4236 -0.3303
10332TIP3    H252488   6.147   1.962  13.695  1.1994 -1.9264  0.6999
10333TIP3   OH252489   1.185   3.108   5.582  0.0524  0.4789  0.4708
10333TIP3    H152490   1.132   3.188   5.594 -1.6682 -0.8988  2.4832
10333TIP3    H252491   1.163   3.078   5.494 -0.9052  1.0780  0.4937
10334TIP3   OH252492   6.578   1.744   2.306  0.3279 -0.4639  0.5615
10334TIP3    H152493   6.610   1.822   2.352  1.0603 -0.0585 -0.6013
10334TIP3    H252494   6.524   1.698   2.370 -2.1542  2.2890  0.5359
10335TIP3   OH252495   1.365   4.625   5.123  0.0273  0.4975  0.0489
10335TIP3    H152496   1.452   4.658   5.144  0.0636  0.2650  0.2615
10335TIP3    H252497   1.374   4.530   5.127 -0.5736  0.4915  1.4196
10336TIP3   OH252498   1.708   1.346  10.819  0.0432 -0.2269 -0.0965
10336TIP3    H152499   1.620   1.362  10.784 -0.0192 -0.5220 -0.0811
10336TIP3    H252500   1.766   1.353  10.744 -0.0918 -0.8734 -0.2678
10337TIP3   OH252501   6.512   1.496  16.197 -0.4294  0.3719  0.5952
10337TIP3    H152502   6.571   1.566  16.168 -2.3737  2.4940  1.6147
10337TIP3    H252503   6.559   1.415  16.175  1.3623  1.9483 -1.6729
10338TIP3   OH252504   1.617   2.033   5.145 -0.1689 -0.3060 -0.6443
10338TIP3    H152505   1.642   1.983   5.222 -0.8821  1.9582  1.0910
10338TIP3    H252506   1.701   2.059   5.105  0.2592  1.2355  1.1889
10339TIP3   OH252507   6.224   3.315  15.902 -0.0526  0.0805  0.3488
10339TIP3    H152508   6.206   3.288  15.992 -2.3130  3.0158  0.8650
10339TIP3    H252509   6.271   3.398  15.911 -1.1066  0.8708 -1.1351
10340TIP3   OH252510   3.611   4.389   4.050 -1.1066 -0.3374  0.1425
10340TIP3    H152511   3.594   4.401   3.957  2.8217  0.6330 -0.5407
10340TIP3    H252512   3.539   4.434   4.094 -2.0636  0.7169 -2.4304
10341TIP3   OH252513   2.214   1.106  15.684  0.4786 -0.0119  0.5924
10341TIP3    H152514   2.126   1.143  15.678  1.5066  2.4990  0.2145
10341TIP3    H252515   2.217   1.065  15.770 -1.3377 -0.9758  0.2384
10342TIP3   OH252516   6.520   6.525   1.627 -0.0842  0.2280 -0.2397
10342TIP3    H152517   6.510   6.566   1.714  1.9802  1.3435 -0.5096
10342TIP3    H252518   6.430   6.504   1.601 -0.6452 -1.2269  2.6809
10343TIP3   OH252519   2.228   5.351   2.556  0.6940 -0.2079  0.0647
10343TIP3    H152520   2.238   5.362   2.651 -0.0492 -1.8247  0.3549
10343TIP3    H252521   2.201   5.260   2.546  0.1726  0.1282 -1.6616
10344TIP3   OH252522   5.524   3.835  15.274  0.0664 -0.2209  0.1911
10344TIP3    H152523   5.532   3.762  15.213  0.3651 -0.7501  0.8588
10344TIP3    H252524   5.471   3.900  15.228 -0.6515 -1.0835 -0.1891
10345TIP3   OH252525   3.253   3.589   5.488 -0.0813  0.1065  0.3039
10345TIP3    H152526   3.286   3.676   5.508  0.5072 -0.1617  0.5203
10345TIP3    H252527   3.279   3.573   5.397  0.7043 -0.2424  0.5826
10346TIP3   OH252528   2.454   4.095  12.246  0.0477 -0.6519 -0.7518
10346TIP3    H152529   2.379   4.140  12.206  0.6087  1.4143  0.4170
10346TIP3    H252530   2.528   4.154  12.230  0.5810 -0.5331  1.8968
10347TIP3   OH252531   0.464   3.981   5.260  0.3285  0.7287 -0.0876
10347TIP3    H152532   0.388   4.030   5.228  1.1644  1.6169 -0.7137
10347TIP3    H252533   0.526   3.980   5.187  0.0718 -1.8443 -0.3210
10348TIP3   OH252534   3.291   2.791  12.159  0.1895 -0.1996 -0.3787
10348TIP3    H152535   3.218   2.846  12.130 -0.1576 -1.3849 -1.8754
10348TIP3    H252536   3.358   2.802  12.091  0.3180 -1.1845 -0.4308
10349TIP3   OH252537   3.223   4.662   3.951 -0.5076 -0.3084  0.2236
10349TIP3    H152538   3.313   4.658   3.984 -0.1500  0.4498 -0.6347
10349TIP3    H252539   3.174   4.708   4.019  0.4180  2.0987 -0.6986
10350TIP3   OH252540   4.725   3.922   3.924 -0.0078 -0.0887  0.9735
10350TIP3    H152541   4.631   3.941   3.916  0.4375  1.9219  0.0263
10350TIP3    H252542   4.766   4.008   3.932  1.8171 -0.8986  0.6867
10351TIP3   OH252543   3.371   1.823  17.004  0.6989 -0.3368  0.1465
10351TIP3    H152544   3.373   1.851  17.096 -0.1576 -1.2436  0.4503
10351TIP3    H252545   3.317   1.744  17.004  0.4417 -0.1729 -1.1902
10352TIP3   OH252546   3.149   4.394   1.283  0.0287  0.1841  0.4053
10352TIP3    H152547   3.115   4.483   1.293  1.1975  0.5216  1.5537
10352TIP3    H252548   3.072   4.337   1.291 -0.6440  1.0579  0.1974
10353TIP3   OH252549   6.628   4.482  15.118 -0.3796  0.4110 -0.4371
10353TIP3    H152550   6.571   4.536  15.174  1.2694 -0.3501  2.0847
10353TIP3    H252551   6.658   4.542  15.050  0.2199  2.3650  1.4596
10354TIP3   OH252552   1.652   4.735   1.493 -0.4787  0.8736  0.0591
10354TIP3    H152553   1.580   4.744   1.556 -1.3007  0.4349 -0.8091
10354TIP3    H252554   1.702   4.816   1.503 -0.9578  1.0837  0.8336
10355TIP3   OH252555   4.348   5.659  14.181  0.1447  0.3976 -0.0730
10355TIP3    H152556   4.395   5.596  14.235 -0.1717  0.5496  0.3782
10355TIP3    H252557   4.257   5.654  14.211 -0.1933 -0.0949 -1.1190
10356TIP3   OH252558   0.248   3.054   2.232 -0.1288 -0.3842 -0.7037
10356TIP3    H152559   0.285   3.142   2.227 -0.8085 -0.1431 -1.7654
10356TIP3    H252560   0.323   2.995   2.219  0.1101  0.0730 -1.4269
10357TIP3   OH252561   4.936   0.499   0.146 -0.1208  0.0283 -0.3968
10357TIP3    H152562   4.880   0.483   0.222 -0.3423 -2.3590 -0.9973
10357TIP3    H252563   5.019   0.528   0.182 -0.7075  0.3767  0.6809
10358TIP3   OH252564   1.716   0.627  17.277 -0.0576  0.4321 -0.3959
10358TIP3    H152565   1.743   0.616  17.368  2.3168  0.3578 -1.0905
10358TIP3    H252566   1.705   0.538  17.244  2.1825  0.3878 -1.0677
10359TIP3   OH252567   5.799   5.446  14.023 -0.0256  0.0680  0.6555
10359TIP3    H152568   5.797   5.459  14.118  0.3583  1.0510  0.5305
10359TIP3    H252569   5.759   5.524  13.986 -1.2914 -0.8561  0.0397
10360TIP3   OH252570   5.516   3.239  12.827  0.2006 -0.1017 -0.6131
10360TIP3    H152571   5.575   3.230  12.751 -0.8021 -0.7176 -1.3333
10360TIP3    H252572   5.439   3.284  12.792 -0.4357 -0.7423 -0.0429
10361TIP3   OH252573   1.203   2.238  12.648  0.2781 -0.0506  0.1639
10361TIP3    H152574   1.208   2.326  12.610 -1.2983 -0.6084 -1.4074
10361TIP3    H252575   1.113   2.230  12.679  0.3325 -1.2218  0.0376
10362TIP3   OH252576   0.468   2.063   5.147  0.4140 -0.2982 -0.0571
10362TIP3    H152577   0.498   2.149   5.118 -1.0798  0.6493  1.1398
10362TIP3    H252578   0.440   2.019   5.067 -2.3237  1.7392 -0.2761
10363TIP3   OH252579   1.673   4.240  14.420  0.2323  0.0093  0.4424
10363TIP3    H152580   1.639   4.181  14.488  2.7322  0.6488  2.3168
10363TIP3    H252581   1.597   4.294  14.396 -0.6951 -0.1507  2.8440
10364TIP3   OH252582   3.880   5.117   4.850 -0.4427 -0.1285  0.7153
10364TIP3    H152583   3.880   5.047   4.915  0.9066 -1.1600 -0.3632
10364TIP3    H252584   3.894   5.072   4.767 -0.9569  1.2957 -0.1558
10365TIP3   OH252585   5.864   6.017  11.128  0.7076 -0.0209 -0.4765
10365TIP3    H152586   5.936   5.970  11.088  0.6050  0.4590 -1.2352
10365TIP3    H252587   5.786   5.986  11.082  0.3971 -0.6675  0.4565
10366TIP3   OH252588   2.132   3.159  12.778 -0.2040 -0.0212  0.5504
10366TIP3    H152589   2.151   3.204  12.860 -0.1494 -0.1109  0.5885
10366TIP3    H252590   2.051   3.198  12.747  1.8644  2.9703 -1.4447
10367TIP3   OH252591   3.310   2.717   1.253  0.0532 -0.0375 -0.1026
10367TIP3    H152592   3.314   2.744   1.162  1.4934 -1.3930 -0.4618
10367TIP3    H252593   3.390   2.753   1.292 -0.7795  0.9327  0.7533
10368TIP3   OH252594   4.294   3.421  11.733  0.2745 -0.2288  0.1422
10368TIP3    H152595   4.326   3.443  11.821  1.3166 -0.1539 -0.2514
10368TIP3    H252596   4.237   3.494  11.709  1.0699  0.4295  0.2096
10369TIP3   OH252597   5.182   2.524  10.600 -0.4028  0.3017  0.0955
10369TIP3    H152598   5.177   2.582  10.676 -1.8892  0.6245 -0.2243
10369TIP3    H252599   5.091   2.504  10.580  0.1116 -3.6988  1.3481
10370TIP3   OH252600   3.678   6.286   2.239 -1.3386  0.5287 -0.3267
10370TIP3    H152601   3.669   6.378   2.261  0.1061  0.5446  0.2340
10370TIP3    H252602   3.713   6.245   2.319  0.6552 -0.0135 -1.4310
10371TIP3   OH252603   2.001   2.787  11.673 -0.7125 -0.1967 -0.5311
10371TIP3    H152604   1.960   2.710  11.632  0.4851 -0.4917 -1.2044
10371TIP3    H252605   2.065   2.750  11.733 -2.2457  0.2463  1.4389
10372TIP3   OH252606   0.301   2.896  16.044 -0.4124  0.2265 -0.2541
10372TIP3    H152607   0.392   2.899  16.075 -0.5436 -1.5511  0.3581
10372TIP3    H252608   0.296   2.966  15.978  1.4563  0.2032 -0.4513
10373TIP3   OH252609   5.238   5.227  11.019 -0.1038  0.1033  0.5883
10373TIP3    H152610   5.152   5.197  10.990 -0.5923  1.4059  0.6959
10373TIP3    H252611   5.240   5.320  10.998  1.7460 -0.1473 -0.5623
10374TIP3   OH252612   4.004   0.838  13.853 -0.6360 -0.0521  0.1945
10374TIP3    H152613   4.006   0.932  13.872 -0.0086 -0.3024  1.4556
10374TIP3    H252614   3.918   0.823  13.815 -1.0470  0.9066  0.7237
10375TIP3   OH252615   0.891   5.323   1.468  0.1210 -0.0264 -0.4139
10375TIP3    H152616   0.951   5.380   1.421 -0.1662  1.3745  0.8678
10375TIP3    H252617   0.886   5.361   1.556  0.7743 -2.6611  0.8097
10376TIP3   OH252618   4.821   4.827  16.666  0.0673 -0.6825  0.3341
10376TIP3    H152619   4.905   4.788  16.640 -0.3951 -1.5199  0.0952
10376TIP3    H252620   4.764   4.752  16.683 -0.6763 -0.1102  0.3674
10377TIP3   OH252621   1.112   1.808   0.826 -0.0895 -0.1306 -0.1950
10377TIP3    H152622   1.139   1.855   0.748  0.6796 -2.0246 -1.1047
10377TIP3    H252623   1.031   1.764   0.801 -0.9371  0.8653  0.7226
10378TIP3   OH252624   3.242   3.485   4.578  0.3308  0.1265 -0.9028
10378TIP3    H152625   3.289   3.402   4.584  1.6725  0.8044 -1.6562
10378TIP3    H252626   3.297   3.547   4.627 -0.4762  0.6418 -0.6386
10379TIP3   OH252627   2.878   4.533   5.023 -0.4436  0.1794  0.3530
10379TIP3    H152628   2.805   4.559   4.967 -0.8277  0.4078  0.9488
10379TIP3    H252629   2.843   4.538   5.112  0.6401  1.4183  0.7195
10380TIP3   OH252630   1.557   2.531  17.174  0.0140  0.4492  0.0448
10380TIP3    H152631   1.534   2.589  17.101  3.0655  0.5373 -0.9095
10380TIP3    H252632   1.569   2.590  17.248 -1.0773  0.5702  0.1351
10381TIP3   OH252633   4.974   5.021  16.264  0.3849  0.0201 -0.4540
10381TIP3    H152634   4.887   4.983  16.280  0.3570 -0.2713 -1.2725
10381TIP3    H252635   4.969   5.055  16.175  0.2517  2.4230  0.4211
10382TIP3   OH252636   1.353   6.349   3.082  0.7637  0.1965  0.3447
10382TIP3    H152637   1.316   6.393   3.005  0.1686 -0.5304  0.2148
10382TIP3    H252638   1.332   6.257   3.070  1.2852 -0.0202  1.0368
10383TIP3   OH252639   3.359   1.260  13.490 -0.6031 -0.3774  0.0885
10383TIP3    H152640   3.303   1.329  13.455  0.0907  0.4262  0.5471
10383TIP3    H252641   3.415   1.235  13.416 -0.4718 -0.0568  0.0801
10384TIP3   OH252642   2.752   0.707   1.080  0.2344 -0.3958  0.0904
10384TIP3    H152643   2.784   0.702   1.169  2.1103  0.2818 -0.5324
10384TIP3    H252644   2.822   0.750   1.031 -0.0696 -2.1982 -2.0243
10385TIP3   OH252645   2.901   6.627  12.564 -0.4943 -0.4306  0.1791
10385TIP3    H152646   2.979   6.603  12.614  0.5532 -1.4169 -1.8612
10385TIP3    H252647   2.929   6.700  12.509 -0.5726 -1.7154 -1.6071
10386TIP3   OH252648   0.780   0.786   2.381  0.5447 -0.3490  0.6524
10386TIP3    H152649   0.826   0.706   2.356  3.2602  1.4324 -0.2363
10386TIP3    H252650   0.700   0.785   2.327  0.0347 -2.9303  1.4093
10387TIP3   OH252651   1.610   1.871  12.860  0.5030 -0.6537 -1.0132
10387TIP3    H152652   1.546   1.920  12.912  1.2307  0.1869 -0.9042
10387TIP3    H252653   1.642   1.933  12.796  3.6643 -0.0569  1.0454
10388TIP3   OH252654   5.209   2.783   1.760  0.0171 -0.4530  0.2267
10388TIP3    H152655   5.119   2.814   1.747 -0.0641 -0.9905 -0.5003
10388TIP3    H252656   5.218   2.776   1.855  0.3081  2.6244  0.4978
10389TIP3   OH252657   3.942   0.406   3.433 -0.1776  0.2672  0.4475
10389TIP3    H152658   4.020   0.351   3.435 -0.7701 -0.5862  0.7089
10389TIP3    H252659   3.950   0.464   3.508  1.8297  2.5023 -1.4154
10390TIP3   OH252660   2.617   4.152  16.607  0.2994 -0.7187  0.1460
10390TIP3    H152661   2.663   4.072  16.584  1.1076 -0.9659  2.5658
10390TIP3    H252662   2.540   4.123  16.656  0.2671 -0.0452  0.5013
10391TIP3   OH252663   0.464   5.258  15.995  0.1449  1.1817 -0.0466
10391TIP3    H152664   0.473   5.299  16.081 -0.7282  0.0094  0.6136
10391TIP3    H252665   0.524   5.307  15.939  0.7420  1.9383  1.2340
10392TIP3   OH252666   1.984   0.763  12.781  0.0603  0.1484 -0.4964
10392TIP3    H152667   2.037   0.771  12.860 -0.6837 -0.1802  0.0413
10392TIP3    H252668   2.045   0.783  12.709  0.6358  0.8464  0.1766
10393TIP3   OH252669   1.396   3.366  10.247 -0.5206 -0.2368 -0.1612
10393TIP3    H152670   1.422   3.391  10.335 -2.1699  0.1811  0.2311
10393TIP3    H252671   1.418   3.441  10.192  1.6262 -0.9664 -0.3383
10394TIP3   OH252672   3.533   0.747  14.036  0.8561 -0.1145  0.1457
10394TIP3    H152673   3.444   0.781  14.024  1.0628 -0.1688 -1.7295
10394TIP3    H252674   3.530   0.702  14.121 -1.0364 -0.5336 -0.1105
10395TIP3   OH252675   6.334   4.363  15.256 -0.1702  0.0302  0.4814
10395TIP3    H152676   6.282   4.400  15.326  0.0448  0.2921  0.5047
10395TIP3    H252677   6.331   4.429  15.186  0.1033  0.0335  0.4718
10396TIP3   OH252678   1.105   4.769  14.896 -0.5718  1.0241  0.6816
10396TIP3    H152679   1.021   4.804  14.925 -0.0547 -0.5884  4.4913
10396TIP3    H252680   1.168   4.838  14.916 -0.5352  0.8093  1.3420
10397TIP3   OH252681   5.164   1.031   0.052 -0.1825  0.5386 -0.3205
10397TIP3    H152682   5.144   1.114   0.009 -1.2665  1.4395  1.8501
10397TIP3    H252683   5.174   0.968  -0.020  0.1733  2.4232 -1.9664
10398TIP3   OH252684   6.149   4.602   4.197  0.0754  0.1077  0.2721
10398TIP3    H152685   6.187   4.690   4.204  0.1533  0.0681  0.3425
10398TIP3    H252686   6.202   4.559   4.130 -0.0181  0.1437  0.1762
10399TIP3   OH252687   6.334   6.650  14.648 -0.0247 -0.0833 -0.1006
10399TIP3    H152688   6.363   6.727  14.698  0.9380  0.0514 -0.8537
10399TIP3    H252689   6.323   6.683  14.559  1.2559 -1.0227 -0.6075
10400TIP3   OH252690   0.902   2.560  11.525 -0.7928 -0.0523  0.3572
10400TIP3    H152691   0.995   2.583  11.528 -0.8957  0.6784 -1.5722
10400TIP3    H252692   0.893   2.489  11.589  1.1205 -0.2511  0.4351
10401TIP3   OH252693   5.779   1.167  15.001  0.2716  0.5145 -0.3041
10401TIP3    H152694   5.705   1.135  15.054  0.6252  0.2254  0.0134
10401TIP3    H252695   5.773   1.263  15.007 -1.0696  0.5387 -1.6413
10402TIP3   OH252696   0.990   6.763   5.865 -0.0859 -0.0021  0.4226
10402TIP3    H152697   1.026   6.735   5.780  0.1650  0.5033  0.3600
10402TIP3    H252698   1.058   6.819   5.902 -0.6606  0.6766  0.4620
10403TIP3   OH252699   1.649   6.376   2.024  0.6554  0.5927  0.3032
10403TIP3    H152700   1.598   6.411   1.952 -1.2539 -0.9142  0.8719
10403TIP3    H252701   1.704   6.308   1.984 -1.1857 -0.9949  0.3999
10404TIP3   OH252702   1.466   6.580  12.575  0.1401  0.6609 -0.5415
10404TIP3    H152703   1.481   6.662  12.529  0.4912  1.6743  1.3137
10404TIP3    H252704   1.371   6.574  12.584  0.1227  0.9635 -0.5183
10405TIP3   OH252705   6.226   4.865  17.226  0.1078  0.0707 -0.0259
10405TIP3    H152706   6.225   4.786  17.281 -0.3355  0.7459  0.9623
10405TIP3    H252707   6.180   4.930  17.279  0.0457  0.8510 -1.0480
10406TIP3   OH252708   0.407   2.104   3.622 -0.1583  0.0505 -0.8638
10406TIP3    H152709   0.497   2.108   3.657 -0.8410 -0.3709  1.0301
10406TIP3    H252710   0.414   2.138   3.533  2.4172 -2.6580 -1.8092
10407TIP3   OH252711   1.986   2.676   1.191  0.5659  0.3052  0.1565
10407TIP3    H152712   1.972   2.769   1.207  0.6066  0.1129  1.3335
10407TIP3    H252713   2.076   2.661   1.218  0.5040 -0.1078  0.1276
10408TIP3   OH252714   0.439   0.450   5.921 -0.3969 -0.6091 -0.0033
10408TIP3    H152715   0.447   0.521   5.985  0.3449 -0.4972 -0.2140
10408TIP3    H252716   0.509   0.467   5.858 -1.1050 -0.7325 -0.8341
10409TIP3   OH252717   3.272   2.864  16.279 -0.0158  0.6738 -0.0969
10409TIP3    H152718   3.344   2.906  16.326  0.2154  0.5257 -0.3166
10409TIP3    H252719   3.283   2.771  16.297  0.0551  0.6174 -0.4104
10410TIP3   OH252720   2.112   6.723  14.493  0.2986  0.6711 -0.0459
10410TIP3    H152721   2.085   6.778  14.566  0.8919 -0.0147  0.7043
10410TIP3    H252722   2.155   6.783  14.432 -3.3074  1.8654 -1.4931
10411TIP3   OH252723   2.205   4.252   4.502  0.6504 -0.1415 -0.5238
10411TIP3    H152724   2.111   4.262   4.489  0.5631  0.6082  0.6285
10411TIP3    H252725   2.244   4.278   4.419 -0.0978  0.7178 -0.6080
10412TIP3   OH252726   1.181   0.274  10.393 -0.7708 -0.0973 -0.4545
10412TIP3    H152727   1.087   0.259  10.400 -0.6595  0.1972  2.0238
10412TIP3    H252728   1.219   0.225  10.466  0.6756  2.5476  0.6150
10413TIP3   OH252729   1.279   5.025   2.601  0.2487 -0.2381 -0.0896
10413TIP3    H152730   1.337   5.068   2.538 -0.8310  0.2234 -0.7825
10413TIP3    H252731   1.251   4.944   2.557 -0.8113  0.2704 -0.3710
10414TIP3   OH252732   5.971   2.315   5.409  0.5433  0.5502 -0.1782
10414TIP3    H152733   6.005   2.231   5.439  1.7042  1.6484  1.6001
10414TIP3    H252734   5.888   2.325   5.455 -0.2143 -0.1690 -1.3399
10415TIP3   OH252735   2.422   3.132   4.125 -0.5542 -0.2299 -0.3257
10415TIP3    H152736   2.482   3.135   4.050 -0.3258 -0.9867 -0.1741
10415TIP3    H252737   2.336   3.112   4.087 -0.4414 -0.5949 -0.3909
10416TIP3   OH252738   2.165   4.114  16.282  0.0549 -0.1014 -0.1626
10416TIP3    H152739   2.148   4.093  16.374  0.1919  1.0880  0.1528
10416TIP3    H252740   2.245   4.067  16.260  1.1051  1.1374  0.9138
10417TIP3   OH252741   0.091   6.013  17.124 -0.1049  0.1716  0.2595
10417TIP3    H152742   0.157   5.968  17.177  0.5943 -0.3931 -1.0795
10417TIP3    H252743   0.015   6.019  17.181  0.3777 -1.1498  1.0587
10418TIP3   OH252744   2.089   6.593  16.088  0.1815 -0.2211  0.6672
10418TIP3    H152745   2.111   6.633  16.004  2.4865  0.7220  1.6650
10418TIP3    H252746   2.029   6.655  16.129  1.3247  0.7424  0.9093
10419TIP3   OH252747   0.036   0.505   5.292 -0.2587  0.2086 -0.0075
10419TIP3    H152748   0.063   0.550   5.212 -0.9397  1.8797  0.6776
10419TIP3    H252749   0.100   0.434   5.302  1.9990  2.1753 -0.0819
10420TIP3   OH252750   1.613   5.876  11.024  0.0972 -0.2832  0.1558
10420TIP3    H152751   1.640   5.967  11.041  2.7607 -0.9383 -0.3214
10420TIP3    H252752   1.665   5.850  10.948 -1.7408 -1.7523 -0.6245
10421TIP3   OH252753   4.324   2.149   4.621  0.4710 -0.0823  0.0407
10421TIP3    H152754   4.392   2.111   4.564 -0.5349 -0.2890 -1.0342
10421TIP3    H252755   4.265   2.195   4.561  0.4939  1.3916  1.1218
10422TIP3   OH252756   4.570   5.022   5.687 -0.4056  0.1650  0.2313
10422TIP3    H152757   4.545   5.021   5.594 -1.3462  0.6116  0.4706
10422TIP3    H252758   4.624   5.100   5.696  1.6704 -1.1726 -0.4332
10423TIP3   OH252759   2.136   4.593  13.608  0.1268 -0.2806 -0.2190
10423TIP3    H152760   2.227   4.623  13.609 -0.7478  2.4909  2.3272
10423TIP3    H252761   2.085   4.674  13.613 -2.4857 -1.8610 -0.8162
10424TIP3   OH252762   4.772   0.846   2.604 -0.3902  0.4600 -0.3227
10424TIP3    H152763   4.679   0.869   2.607 -0.9314 -1.7004  0.2946
10424TIP3    H252764   4.774   0.753   2.580  1.5813  0.3534  0.1265
10425TIP3   OH252765   6.760   4.424   4.032 -0.6746 -0.1552 -0.1397
10425TIP3    H152766   6.822   4.480   3.985 -0.0499 -2.0954 -1.7155
10425TIP3    H252767   6.788   4.428   4.123  0.3846  0.7671 -0.4899
10426TIP3   OH252768   4.308   3.177  12.692  0.1445 -0.8557 -0.5954
10426TIP3    H152769   4.245   3.152  12.625 -1.7810 -2.8071  1.8709
10426TIP3    H252770   4.322   3.098  12.744  1.8464  0.5213  1.1340
10427TIP3   OH252771   6.792   4.992   0.862 -0.3681  0.0493 -0.2774
10427TIP3    H152772   6.754   4.983   0.949  0.4949  1.6006  0.2789
10427TIP3    H252773   6.840   4.911   0.848  1.6534  0.8483  1.7826
10428TIP3   OH252774   2.501   3.320   1.108 -0.1672  0.6841  0.2063
10428TIP3    H152775   2.468   3.410   1.104 -2.0058  0.0700  1.3939
10428TIP3    H252776   2.584   3.324   1.059 -1.9900  2.2268 -2.9637
10429TIP3   OH252777   2.507   2.714   4.834 -0.3182  0.0009 -0.4691
10429TIP3    H152778   2.467   2.677   4.756 -4.3461  2.1327  0.4380
10429TIP3    H252779   2.481   2.656   4.905  0.2936  0.0620 -0.1872
10430TIP3   OH252780   4.069   0.104   2.576 -0.0525 -0.3043 -0.1942
10430TIP3    H152781   4.099   0.020   2.612 -0.7840  0.0579  1.3232
10430TIP3    H252782   4.148   0.157   2.570  0.1461 -0.5176  0.5028
10431TIP3   OH252783   5.888   2.304  14.922 -0.3771  0.1181 -0.0979
10431TIP3    H152784   5.904   2.373  14.858 -2.9084 -0.1049 -1.0260
10431TIP3    H252785   5.919   2.224  14.880  1.6333  0.5014  0.5835
10432TIP3   OH252786   0.189   5.917  11.717  0.4117 -0.1806 -0.3446
10432TIP3    H152787   0.253   5.872  11.662  1.3783 -0.4879  1.0099
10432TIP3    H252788   0.201   6.010  11.697 -0.5646 -0.4056 -2.0505
10433TIP3   OH252789   0.568   2.659   1.293  0.4109 -0.2207  0.1220
10433TIP3    H152790   0.510   2.713   1.346  0.8657  0.7738 -0.3665
10433TIP3    H252791   0.554   2.689   1.203  0.4786 -1.0980 -0.1859
10434TIP3   OH252792   2.574   1.220   4.804 -0.4004 -0.8129  0.0295
10434TIP3    H152793   2.505   1.225   4.870  0.4771 -0.0119  0.8964
10434TIP3    H252794   2.580   1.310   4.770 -0.5259 -1.1169 -0.8280
10435TIP3   OH252795   4.023   3.863   1.020 -0.2926  0.3091  0.0403
10435TIP3    H152796   4.106   3.817   1.008 -0.0174  0.6205  0.7366
10435TIP3    H252797   4.042   3.931   1.085 -1.3296 -0.2715  0.9692
10436TIP3   OH252798   1.293   5.080  12.902 -0.1208  0.2444  0.2555
10436TIP3    H152799   1.352   5.020  12.948  0.5132 -0.1327 -1.0514
10436TIP3    H252800   1.212   5.031  12.892 -1.0974  1.1534  3.0677
10437TIP3   OH252801   0.735   4.631   3.369  0.2801  0.5604  0.2158
10437TIP3    H152802   0.709   4.586   3.289  1.4776 -0.8180  0.5755
10437TIP3    H252803   0.742   4.723   3.344  1.0024  0.0875 -1.3685
10438TIP3   OH252804   3.684   5.743  12.458  0.4849  0.0714  0.7418
10438TIP3    H152805   3.710   5.834  12.444  2.4693 -0.4149  1.0979
10438TIP3    H252806   3.589   5.746  12.463  0.4370  1.9395 -0.6043
10439TIP3   OH252807   1.938   2.026  17.224  0.5122 -0.2811  0.7364
10439TIP3    H152808   1.967   1.997  17.137  0.3029 -0.5657  0.7610
10439TIP3    H252809   1.897   1.949  17.263  1.9309 -0.5824  1.6754
10440TIP3   OH252810   2.695   0.850   4.187  0.2081  0.1679 -0.2466
10440TIP3    H152811   2.680   0.928   4.133 -1.4043  0.4408  0.5733
10440TIP3    H252812   2.645   0.865   4.267  1.3561 -0.9081  0.7028
10441TIP3   OH252813   5.239   2.332   0.359  0.0990  0.6580  0.3091
10441TIP3    H152814   5.162   2.283   0.332 -0.3563  1.0403  0.9273
10441TIP3    H252815   5.212   2.380   0.437  0.5568  1.8652 -0.2670
10442TIP3   OH252816   5.611   4.150  15.439  0.2241  0.4492  0.4062
10442TIP3    H152817   5.677   4.202  15.486  0.3544 -0.8396  1.6915
10442TIP3    H252818   5.658   4.070  15.413  0.1806  1.2009 -2.0536
10443TIP3   OH252819   6.819   0.109  11.285 -0.1041 -0.6503 -0.2809
10443TIP3    H152820   6.834   0.063  11.367  2.8891  0.5478 -0.1210
10443TIP3    H252821   6.885   0.075  11.225 -0.6376  0.3308 -1.4577
10444TIP3   OH252822   5.615   2.480   3.643 -0.0288 -0.5223 -0.3165
10444TIP3    H152823   5.705   2.483   3.613  0.9359  0.4789  2.5152
10444TIP3    H252824   5.621   2.450   3.734 -2.4954  0.1512  0.1087
10445TIP3   OH252825   2.784   5.876  16.113  0.8810 -0.4748  0.4645
10445TIP3    H152826   2.865   5.841  16.151  0.1874 -2.8388 -0.1746
10445TIP3    H252827   2.773   5.827  16.031 -2.0705 -1.3580  1.3508
10446TIP3   OH252828   3.548   3.431   4.181 -0.1765 -0.4584 -0.6604
10446TIP3    H152829   3.462   3.473   4.191  1.7608  4.0883 -1.7413
10446TIP3    H252830   3.552   3.407   4.088  0.0197  0.1137 -0.8040
10447TIP3   OH252831   2.971   1.900   5.768  0.0201  0.2365 -0.6790
10447TIP3    H152832   2.901   1.965   5.771 -0.4543 -0.3500  1.1365
10447TIP3    H252833   3.048   1.946   5.800 -0.1287  0.1447 -0.1869
10448TIP3   OH252834   3.499   2.822  11.935 -0.0477 -0.1329  0.5873
10448TIP3    H152835   3.430   2.821  11.868  0.5343 -1.0466  0.0002
10448TIP3    H252836   3.557   2.893  11.908  0.4695 -0.8332 -0.1791
10449TIP3   OH252837   0.724   2.225   0.580  0.0844  0.3517 -0.5809
10449TIP3    H152838   0.632   2.236   0.559 -0.2950 -2.1331 -0.3250
10449TIP3    H252839   0.749   2.142   0.538  1.6883  0.0106  0.9746
10450TIP3   OH252840   6.429   1.795   0.197  0.7334  0.3109  0.2421
10450TIP3    H152841   6.516   1.824   0.171  0.4795 -0.2464 -1.2748
10450TIP3    H252842   6.426   1.702   0.172 -0.3203  0.3444  0.2109
10451TIP3   OH252843   6.698   4.696   4.663  0.5383 -0.2206  0.1308
10451TIP3    H152844   6.779   4.682   4.713 -0.5083 -1.9852  1.3987
10451TIP3    H252845   6.656   4.770   4.707 -0.1692 -1.4929  1.6621
10452TIP3   OH252846   2.298   2.152  15.287 -0.4875  0.4137 -0.2519
10452TIP3    H152847   2.346   2.225  15.325 -1.0381  0.3213  0.6224
10452TIP3    H252848   2.367   2.091  15.259 -0.0902  0.1965  1.1653
10453TIP3   OH252849   3.393   4.094   4.589 -0.2778 -0.3495 -0.6475
10453TIP3    H152850   3.371   4.183   4.561  0.1967  0.2691  0.8338
10453TIP3    H252851   3.467   4.069   4.534 -0.2699  0.2766 -0.9253
10454TIP3   OH252852   2.650   1.893  15.879 -0.4167 -0.4867  0.3273
10454TIP3    H152853   2.563   1.930  15.864  0.7025  1.6613 -1.1482
10454TIP3    H252854   2.669   1.842  15.799  0.1558  0.0258  0.1338
10455TIP3   OH252855   4.914   0.980  17.220  0.4572  0.0407  0.1363
10455TIP3    H152856   4.911   0.885  17.215  0.1448  0.0547 -0.0092
10455TIP3    H252857   4.836   1.003  17.271  0.9317  0.1770  0.7967
10456TIP3   OH252858   0.684   3.470   4.507  0.7531  0.6799  0.0858
10456TIP3    H152859   0.589   3.479   4.501  0.4150 -0.6624  2.6334
10456TIP3    H252860   0.708   3.412   4.434 -0.5832 -0.2477  0.3848
10457TIP3   OH252861   4.581   3.127   4.831 -0.5302  0.2771 -0.2429
10457TIP3    H152862   4.599   3.043   4.873 -1.9028  0.2822  0.3831
10457TIP3    H252863   4.604   3.113   4.739 -0.3853 -0.6641 -0.0665
10458TIP3   OH252864   1.513   6.696   0.067  0.4952  0.3162 -0.3273
10458TIP3    H152865   1.428   6.705   0.111  0.7668  1.5582 -0.0649
10458TIP3    H252866   1.551   6.617   0.105 -1.3053 -1.2923 -1.7225
10459TIP3   OH252867   5.196   1.005  13.832  0.2094  0.5840 -0.1322
10459TIP3    H152868   5.114   1.024  13.786  0.2055  1.5535  0.2559
10459TIP3    H252869   5.241   1.090  13.835  1.3200  0.0214 -0.5264
10460TIP3   OH252870   5.003   5.537  16.592 -0.7673  0.6435  0.1528
10460TIP3    H152871   5.004   5.624  16.631 -0.0702  0.3529  0.7916
10460TIP3    H252872   5.017   5.477  16.666 -0.9332  0.0055 -0.3237
10461TIP3   OH252873   2.856   6.221   4.013  0.3679  0.5883 -0.6719
10461TIP3    H152874   2.824   6.196   3.926  0.4593  0.3309 -0.6339
10461TIP3    H252875   2.805   6.298   4.036  0.1855  0.5253 -0.8602
10462TIP3   OH252876   4.034   6.114  14.738 -0.0003  0.3188 -0.4301
10462TIP3    H152877   4.127   6.116  14.760 -0.2747  1.6167  0.7241
10462TIP3    H252878   4.030   6.073  14.652  1.5197 -0.8881  0.0538
10463TIP3   OH252879   4.021   5.996  13.286 -0.3446 -0.3249 -0.2330
10463TIP3    H152880   4.107   6.015  13.248  0.4995 -1.5348  0.9973
10463TIP3    H252881   3.970   5.961  13.213  0.6666 -0.9020 -0.6790
10464TIP3   OH252882   1.963   4.742  14.609  0.4910 -0.3045  0.2552
10464TIP3    H152883   2.032   4.786  14.561  1.2373 -1.3405  0.3651
10464TIP3    H252884   1.912   4.696  14.542  1.4035 -1.5725  0.4001
10465TIP3   OH252885   5.009   1.705   1.777 -0.0485  0.7561  0.1670
10465TIP3    H152886   4.932   1.680   1.725  0.9634  0.0784 -1.0247
10465TIP3    H252887   4.975   1.718   1.866 -1.5805  0.7111 -0.3965
10466TIP3   OH252888   0.677   1.016  12.822  0.2126  0.2750 -0.1360
10466TIP3    H152889   0.752   1.012  12.762 -1.4575  0.7103 -2.3082
10466TIP3    H252890   0.633   1.098  12.800 -1.1087 -0.1553  0.8589
10467TIP3   OH252891   0.367   1.412  12.772 -0.0358  0.0501  0.2686
10467TIP3    H152892   0.326   1.344  12.825  1.2771 -0.6180  0.4455
10467TIP3    H252893   0.381   1.484  12.833  0.9306 -0.4953  0.7009
10468TIP3   OH252894   6.172   5.304  14.862 -0.3912  0.2260 -0.3542
10468TIP3    H152895   6.182   5.295  14.956 -0.0909 -1.3342 -0.5220
10468TIP3    H252896   6.113   5.233  14.836 -0.7479  0.8476 -1.2855
10469TIP3   OH252897   6.736   3.474  14.562  0.4547  0.7328  0.2804
10469TIP3    H152898   6.647   3.438  14.566  0.6270  0.3159  0.4058
10469TIP3    H252899   6.732   3.540  14.493 -0.2548  1.5507  1.0727
10470TIP3   OH252900   3.157   3.859   0.125  0.2408 -0.5732  0.4155
10470TIP3    H152901   3.100   3.841   0.200  2.0741 -0.3776  1.8947
10470TIP3    H252902   3.160   3.777   0.077 -1.1616 -0.6233  0.3882
10471TIP3   OH252903   1.248   6.534   4.801 -0.0224 -0.3400  0.4773
10471TIP3    H152904   1.303   6.598   4.847 -2.1055  0.5298  1.8521
10471TIP3    H252905   1.217   6.580   4.723  0.6684 -0.6134  0.0379
10472TIP3   OH252906   0.310   5.439   0.183  0.0322 -0.1849 -0.2193
10472TIP3    H152907   0.394   5.457   0.140 -0.4451  1.9340 -0.3060
10472TIP3    H252908   0.335   5.394   0.264  1.2017 -0.4123 -0.6914
10473TIP3   OH252909   6.308   1.089  15.819  0.4397  0.2250  0.4676
10473TIP3    H152910   6.306   1.164  15.879  0.3259  0.7900 -0.2338
10473TIP3    H252911   6.376   1.112  15.755 -0.6292  0.4042 -0.6191
10474TIP3   OH252912   2.475   3.593   5.638 -0.4311 -0.4549  0.0009
10474TIP3    H152913   2.479   3.609   5.544 -0.5029  1.5417  0.3166
10474TIP3    H252914   2.448   3.677   5.676  0.2305 -1.0434  1.8526
10475TIP3   OH252915   2.744   3.099  12.707 -0.4626  0.1211 -0.5629
10475TIP3    H152916   2.653   3.075  12.721 -0.6081  0.1029 -1.5029
10475TIP3    H252917   2.794   3.021  12.730 -0.5293  0.7536  1.8756
10476TIP3   OH252918   6.366   5.323  15.160  0.4981  0.4903  0.2113
10476TIP3    H152919   6.375   5.234  15.195  0.7185  0.0205 -1.0357
10476TIP3    H252920   6.273   5.332  15.140  0.8555 -0.3568 -1.9842
10477TIP3   OH252921   4.693   0.577   2.255  0.4391 -0.5556 -0.4758
10477TIP3    H152922   4.741   0.605   2.177 -1.2117  0.5738 -1.0997
10477TIP3    H252923   4.636   0.506   2.224 -1.1114  0.7240 -0.5607
10478TIP3   OH252924   6.374   0.309  13.568  0.1123  0.0745  0.0585
10478TIP3    H152925   6.439   0.374  13.594  0.7203  0.2761 -1.9124
10478TIP3    H252926   6.425   0.238  13.529 -0.7818 -0.1325 -0.7597
10479TIP3   OH252927   4.535   5.007   1.903 -0.4042 -0.2118  0.7726
10479TIP3    H152928   4.557   5.100   1.897  0.4403 -0.3242  1.8326
10479TIP3    H252929   4.451   4.999   1.858  0.2650  0.7768 -0.6942
10480TIP3   OH252930   5.225   6.713  11.552  0.1952 -0.6527  0.0814
10480TIP3    H152931   5.267   6.658  11.618  0.0005 -0.5991  0.2496
10480TIP3    H252932   5.134   6.685  11.552  0.1285 -0.4312  0.0607
10481TIP3   OH252933   2.617   6.216  12.157 -0.0708 -0.7557  0.3888
10481TIP3    H152934   2.597   6.270  12.233 -0.6176 -1.2005  0.5629
10481TIP3    H252935   2.646   6.278  12.090  0.5791 -0.3800  1.0144
10482TIP3   OH252936   5.766   0.606  13.991 -0.7658 -0.3730 -0.1155
10482TIP3    H152937   5.687   0.645  13.953  0.5254  0.4581 -2.0571
10482TIP3    H252938   5.773   0.521  13.948  0.2969  0.2661 -1.2621
10483TIP3   OH252939   5.290   3.947   5.980 -0.0036 -0.1587 -0.4285
10483TIP3    H152940   5.295   3.956   6.075  0.5429  1.5551 -0.6061
10483TIP3    H252941   5.238   3.867   5.966  3.1912 -2.6571  1.2963
10484TIP3   OH252942   4.169   0.042   3.435  0.2374  0.1792  0.5249
10484TIP3    H152943   4.192   0.032   3.343  2.4320  1.2075  0.9192
10484TIP3    H252944   4.106  -0.028   3.452 -1.2661  0.8392 -2.0737
10485TIP3   OH252945   4.150   4.801  11.628  0.0310 -0.2675  0.2960
10485TIP3    H152946   4.072   4.819  11.575 -0.3814 -0.7840  0.7176
10485TIP3    H252947   4.115   4.782  11.715  0.6256 -0.6456  0.4519
10486TIP3   OH252948   0.371   5.401  14.317  0.2350  0.1956  0.0796
10486TIP3    H152949   0.335   5.316  14.343 -0.0932 -0.2421 -1.7378
10486TIP3    H252950   0.309   5.434  14.252  1.0483  1.2475 -0.1638
10487TIP3   OH252951   6.214   1.799  14.963 -0.4809 -0.1464  0.1652
10487TIP3    H152952   6.276   1.732  14.992  0.5616  0.4922 -0.5200
10487TIP3    H252953   6.187   1.770  14.876 -0.2005  0.1934 -0.0387
10488TIP3   OH252954   2.693   2.287   5.681  0.0513  0.3131  0.1680
10488TIP3    H152955   2.697   2.213   5.741 -1.5238 -0.2684 -0.4247
10488TIP3    H252956   2.725   2.361   5.732  0.7831 -0.5999  1.0427
10489TIP3   OH252957   5.768   4.945   0.834  0.0470 -0.1604 -0.3874
10489TIP3    H152958   5.672   4.953   0.833 -0.0449 -1.1020  0.3139
10489TIP3    H252959   5.789   4.897   0.754 -0.0463  0.1977 -0.6295
10490TIP3   OH252960   4.828   2.582   5.068 -0.1872 -0.1117 -0.9780
10490TIP3    H152961   4.799   2.557   5.155 -0.7050  0.7076 -0.9055
10490TIP3    H252962   4.826   2.678   5.068  3.0929  0.0315 -0.7828
10491TIP3   OH252963   1.690   0.736  14.387 -0.6542  0.1343  0.4487
10491TIP3    H152964   1.713   0.712  14.297  1.5244  1.3633  0.6426
10491TIP3    H252965   1.616   0.795  14.378  0.8614  1.9186 -0.7008
10492TIP3   OH252966   0.641   4.219   1.983 -0.0872 -0.1616  0.4578
10492TIP3    H152967   0.587   4.298   1.974 -1.6379 -1.2209  0.2507
10492TIP3    H252968   0.578   4.149   2.000  1.0839 -1.6920 -1.3301
10493TIP3   OH252969   5.606   2.919  12.731  0.3703  0.0702  0.2387
10493TIP3    H152970   5.616   2.837  12.684 -1.5478  1.0708 -2.0272
10493TIP3    H252971   5.695   2.947  12.751  1.0846 -1.8355 -0.2065
10494TIP3   OH252972   5.814   2.662   4.448 -0.0549 -0.3713  0.4171
10494TIP3    H152973   5.859   2.623   4.374 -0.7832  0.8844 -0.7105
10494TIP3    H252974   5.859   2.627   4.525  0.4285 -2.0061 -0.5960
10495TIP3   OH252975   3.617   6.673   3.151  0.2025 -0.3770  0.4200
10495TIP3    H152976   3.639   6.711   3.066  0.0331 -2.4247 -0.5663
10495TIP3    H252977   3.701   6.647   3.188  0.1854 -0.3883  0.4506
10496TIP3   OH252978   1.636   2.225   2.269  0.3770 -0.1056 -0.5693
10496TIP3    H152979   1.686   2.193   2.345 -1.4815  0.6200  1.0129
10496TIP3    H252980   1.611   2.314   2.293 -0.3475  0.0845 -1.9913
10497TIP3   OH252981   3.802   3.275  12.230 -0.1608  0.3387 -0.4121
10497TIP3    H152982   3.759   3.361  12.223 -0.6695  0.1076 -0.1332
10497TIP3    H252983   3.741   3.222  12.280  1.4103  0.6144  1.8557
10498TIP3   OH252984   0.289   6.279   1.345  0.4717 -0.3896  0.0931
10498TIP3    H152985   0.264   6.251   1.433 -0.8690  0.6710  0.0632
10498TIP3    H252986   0.245   6.216   1.287 -0.7073  0.4181  0.1018
10499TIP3   OH252987   4.631   3.597   4.714 -0.1478 -0.2703 -0.0349
10499TIP3    H152988   4.632   3.522   4.773 -1.4995 -1.5778 -1.6202
10499TIP3    H252989   4.617   3.560   4.627 -0.3876  1.7716 -0.9102
10500TIP3   OH252990   6.378   6.583   5.053  0.0970  0.1883  0.6435
10500TIP3    H152991   6.371   6.618   4.965  0.5522 -1.2489  0.0203
10500TIP3    H252992   6.469   6.553   5.061 -0.7030 -2.4041  0.5251
10501TIP3   OH252993   1.903   5.584   3.710  0.1657 -0.7264 -0.2419
10501TIP3    H152994   1.870   5.647   3.774  1.2469 -1.3001  0.9092
10501TIP3    H252995   1.825   5.551   3.666 -0.5034  0.4420  0.0589
10502TIP3   OH252996   0.594   0.326   5.155  0.3622  0.3551  0.2352
10502TIP3    H152997   0.583   0.254   5.094 -1.1161  0.8120 -0.0453
10502TIP3    H252998   0.550   0.297   5.235 -2.2200  1.8145 -0.5948
10503TIP3   OH252999   3.840   2.306  12.222 -0.2506  0.2164  0.0870
10503TIP3    H153000   3.789   2.228  12.242 -0.0948  0.1680  0.2993
10503TIP3    H253001   3.877   2.333  12.306 -1.1432  1.1183  0.2092
10504TIP3   OH253002   4.018   3.876  15.782 -0.1349 -0.0598  0.4600
10504TIP3    H153003   4.005   3.831  15.865  0.0972 -0.1362  0.4557
10504TIP3    H253004   4.099   3.924  15.793  0.0721 -0.3348  0.1634
10505TIP3   OH253005   4.638   4.107  11.628  0.5897  0.1059 -0.2729
10505TIP3    H153006   4.623   4.022  11.670  1.2123  0.2785  0.3054
10505TIP3    H253007   4.719   4.095  11.579 -0.6834 -0.4133 -2.3090
10506TIP3   OH253008   2.579   2.706   2.578 -0.4536 -0.0316  0.4516
10506TIP3    H153009   2.616   2.728   2.492 -0.1405  1.6035  0.9814
10506TIP3    H253010   2.651   2.664   2.625 -0.7522 -1.3215 -0.2243
10507TIP3   OH253011   3.094   1.982   4.383 -0.2322  0.0099  0.1613
10507TIP3    H153012   3.171   1.988   4.440  0.6660 -1.0304 -0.8989
10507TIP3    H253013   3.115   2.037   4.308  0.5250 -2.1133 -1.2458
10508TIP3   OH253014   5.255   3.453   1.186 -0.3859  0.0106 -0.3242
10508TIP3    H153015   5.277   3.522   1.123 -0.4346 -1.3499 -1.8691
10508TIP3    H253016   5.326   3.390   1.178 -1.1870 -0.9282 -0.1178
10509TIP3   OH253017   2.346   1.658   5.920 -0.3719  0.0516  0.0395
10509TIP3    H153018   2.363   1.593   5.989 -1.6310  0.5387  0.8257
10509TIP3    H253019   2.252   1.677   5.928 -0.8701 -0.9850 -2.7881
10510TIP3   OH253020   6.758   1.283  14.504 -0.0298  0.2563 -0.1397
10510TIP3    H153021   6.797   1.262  14.420  0.1394 -0.6065  0.1514
10510TIP3    H253022   6.737   1.198  14.543 -2.2414  0.7074 -0.3025
10511TIP3   OH253023   1.152   1.547  11.177 -0.1699 -0.3992  0.0786
10511TIP3    H153024   1.157   1.462  11.134  1.1232  0.8228 -2.3054
10511TIP3    H253025   1.097   1.600  11.119 -1.3084  0.3089  1.7464
10512TIP3   OH253026   5.786   6.614  12.796  0.1759  0.2380  0.4302
10512TIP3    H153027   5.808   6.548  12.731  0.4803 -0.7329  1.5069
10512TIP3    H253028   5.752   6.565  12.871 -1.1383  1.4013  0.6317
10513TIP3   OH253029   0.702   2.561  16.122 -0.0418 -0.0386  0.1557
10513TIP3    H153030   0.698   2.581  16.029  0.5210 -0.5628  0.0107
10513TIP3    H253031   0.733   2.641  16.163  0.3637 -0.0202 -0.1868
10514TIP3   OH253032   0.910   6.638  14.200  0.1791  0.6121 -0.7764
10514TIP3    H153033   0.946   6.674  14.119 -0.1060  1.8037 -0.3876
10514TIP3    H253034   0.843   6.701  14.227 -0.2821 -0.1798 -0.0382
10515TIP3   OH253035   1.954   4.834  10.503 -0.4970 -0.1366  0.1734
10515TIP3    H153036   1.968   4.838  10.597  0.3143  0.7635  0.0217
10515TIP3    H253037   1.878   4.776  10.492  1.1809 -2.6299  1.2098
10516TIP3   OH253038   0.768   2.694  13.312  0.0257  0.2289 -0.0519
10516TIP3    H153039   0.741   2.786  13.308  0.6456  0.4604  0.7809
10516TIP3    H253040   0.746   2.658  13.226  0.5516  1.3797 -0.6770
10517TIP3   OH253041   4.710   4.824  11.225  0.4224 -0.1534 -0.3432
10517TIP3    H153042   4.771   4.755  11.199 -0.7948 -1.0365 -0.8977
10517TIP3    H253043   4.623   4.785  11.215 -0.2183  0.7438  1.4377
10518TIP3   OH253044   1.548   0.703   5.215 -0.3034  0.1620  0.4836
10518TIP3    H153045   1.507   0.657   5.142  0.2606 -0.4807  0.5607
10518TIP3    H253046   1.642   0.683   5.206 -0.2540 -0.1169  1.5017
10519TIP3   OH253047   1.249   1.185   3.171  0.2217  0.1147  0.9300
10519TIP3    H153048   1.231   1.097   3.138  1.4485 -0.5852  2.0735
10519TIP3    H253049   1.282   1.232   3.094  1.9328 -1.1589  0.8262
10520TIP3   OH253050   4.981   5.515  12.980  0.2288  0.4412  0.1612
10520TIP3    H153051   4.905   5.548  12.932 -0.8542 -1.3562  0.5894
10520TIP3    H253052   5.029   5.462  12.917  0.0923  0.0076  0.4243
10521TIP3   OH253053   3.983   5.768   5.529  0.2218 -0.5702  0.0533
10521TIP3    H153054   4.067   5.810   5.547  0.5464 -0.5553 -1.4221
10521TIP3    H253055   4.005   5.676   5.514  0.0580 -0.4525 -0.9336
10522TIP3   OH253056   1.318   0.514  12.869 -0.3162  0.0389  0.2390
10522TIP3    H153057   1.249   0.579  12.861  0.0441  0.6500  1.9376
10522TIP3    H253058   1.285   0.450  12.932 -0.0415 -0.5915 -0.2508
10523TIP3   OH253059   1.760   2.339  17.211  0.4299  0.1542 -0.4434
10523TIP3    H153060   1.804   2.316  17.129  1.3883  2.2383 -0.5532
10523TIP3    H253061   1.689   2.397  17.185  0.0738 -0.0361  0.1037
10524TIP3   OH253062   4.405   5.408  13.262 -0.1123 -0.6912 -0.0792
10524TIP3    H153063   4.496   5.433  13.246  0.0444 -1.6545 -0.7593
10524TIP3    H253064   4.412   5.328  13.315 -0.5415 -1.2519 -0.8612
10525TIP3   OH253065   6.477   6.387   3.083 -0.7410  0.2198  0.0776
10525TIP3    H153066   6.482   6.345   3.169 -1.3547  0.7984  0.4021
10525TIP3    H253067   6.418   6.461   3.096  0.4081  1.2543 -0.4550
10526TIP3   OH253068   4.825   0.067  13.181  0.5209  0.1173 -0.0103
10526TIP3    H153069   4.788   0.081  13.268  3.1229  2.9708  0.7177
10526TIP3    H253070   4.857  -0.023  13.182 -2.9411 -1.2117  0.5690
10527TIP3   OH253071   6.619   1.061  14.571 -0.0964 -0.2147 -0.3794
10527TIP3    H153072   6.605   0.968  14.589 -1.2389  0.0649  0.2330
10527TIP3    H253073   6.599   1.105  14.653 -0.1225  0.6322 -0.8275
10528TIP3   OH253074   3.658   1.139  14.094  0.4845  0.2268  0.0191
10528TIP3    H153075   3.588   1.130  14.158  1.0822  0.3647  0.6963
10528TIP3    H253076   3.736   1.107  14.139  0.5654 -1.5118 -1.2845
10529TIP3   OH253077   1.692   4.792   4.298  0.3638 -0.3962 -0.5607
10529TIP3    H153078   1.764   4.809   4.358  0.1256 -0.5405 -0.2321
10529TIP3    H253079   1.673   4.877   4.259 -0.1404 -0.1066  0.3070
10530TIP3   OH253080   5.294   0.665   2.915  0.0918 -0.5706  0.1839
10530TIP3    H153081   5.302   0.760   2.920 -0.7554 -0.4454 -0.6641
10530TIP3    H253082   5.240   0.650   2.838  1.4486 -1.8135 -0.5362
10531TIP3   OH253083   6.114   1.715  13.469  0.2255 -0.4212 -0.3690
10531TIP3    H153084   6.142   1.803  13.492 -0.5396 -0.0623 -0.7970
10531TIP3    H253085   6.174   1.657  13.516 -0.9777  0.2984  2.1324
10532TIP3   OH253086   6.729   4.660   0.254 -0.1057  0.6913 -0.8283
10532TIP3    H153087   6.734   4.646   0.349  1.5015  0.8760 -0.8770
10532TIP3    H253088   6.789   4.732   0.237 -1.4770  1.6151 -1.8076
10533TIP3   OH253089   4.514   2.356   4.471 -0.0048 -0.4248  0.4558
10533TIP3    H153090   4.559   2.436   4.443 -1.0803 -0.3640 -1.1746
10533TIP3    H253091   4.582   2.301   4.508  1.3400 -0.1608 -1.5661
10534TIP3   OH253092   0.953   1.798   2.326  0.3292 -0.0410  0.1949
10534TIP3    H153093   0.904   1.876   2.302  1.1181 -0.3400 -2.4639
10534TIP3    H253094   1.035   1.804   2.277  0.3521 -2.5752 -0.1491
10535TIP3   OH253095   2.889   5.548   0.147  0.5309 -0.2566 -0.0990
10535TIP3    H153096   2.804   5.571   0.109  0.5137 -0.5523 -0.2423
10535TIP3    H253097   2.952   5.596   0.094  0.3509  1.2803  1.0566
10536TIP3   OH253098   0.623   2.742   3.427 -0.2815 -0.0733 -0.3758
10536TIP3    H153099   0.668   2.814   3.472  0.9569 -1.4932  0.7174
10536TIP3    H253100   0.671   2.732   3.344  0.2608 -0.3519 -0.0359
10537TIP3   OH253101   2.842   4.796  13.091  0.6107  0.5103  0.1844
10537TIP3    H153102   2.866   4.840  13.172  1.1511  3.0571 -1.2784
10537TIP3    H253103   2.756   4.833  13.069  1.0988  0.9178 -1.0997
10538TIP3   OH253104   1.030   0.766   1.531 -0.3375  0.6753  0.5073
10538TIP3    H153105   0.956   0.725   1.575 -0.3305  1.6268  1.4287
10538TIP3    H253106   1.095   0.697   1.523 -0.3852  0.4617  1.8934
10539TIP3   OH253107   5.331   4.000   2.963 -0.3635  0.7974 -0.2311
10539TIP3    H153108   5.365   4.072   3.016  0.6820  0.1840 -0.0537
10539TIP3    H253109   5.384   4.003   2.883  0.5805 -0.5701  0.3179
10540TIP3   OH253110   1.118   0.988   1.704  0.1336  0.6001  0.0444
10540TIP3    H153111   1.099   0.902   1.666 -1.9052  1.4623 -0.9671
10540TIP3    H253112   1.050   1.000   1.770  0.4915  1.3780  0.2714
10541TIP3   OH253113   3.784   2.607   4.450  0.6188 -0.1101 -0.1741
10541TIP3    H153114   3.879   2.600   4.460  0.5051  0.1458  1.1568
10541TIP3    H253115   3.753   2.631   4.537 -0.8531 -1.9851 -0.1538
10542TIP3   OH253116   6.472   5.618  14.917 -0.1026  0.1116 -0.3924
10542TIP3    H153117   6.377   5.602  14.922  0.0297 -0.3063  1.2736
10542TIP3    H253118   6.491   5.667  14.997  1.1584 -0.2140 -0.4912
10543TIP3   OH253119   5.812   5.455   0.211  0.1629  0.7628 -0.5899
10543TIP3    H153120   5.785   5.428   0.299  1.0495  2.8955  0.3861
10543TIP3    H253121   5.730   5.478   0.166 -0.2319  0.4257 -0.0446
10544TIP3   OH253122   6.661   3.116   5.293  0.0862 -0.3839 -0.1915
10544TIP3    H153123   6.617   3.138   5.211 -0.3370 -0.3071  0.0514
10544TIP3    H253124   6.754   3.126   5.275  0.0412 -1.2839 -0.9356
10545TIP3   OH253125   4.519   3.528   2.460  0.3175 -0.0703  0.1053
10545TIP3    H153126   4.496   3.620   2.442 -0.2063 -0.4559 -1.2967
10545TIP3    H253127   4.561   3.530   2.546 -0.2168  1.4044  0.3492
10546TIP3   OH253128   2.095   2.152   5.330 -0.4975 -0.4417 -0.4045
10546TIP3    H153129   2.042   2.222   5.290  0.0936  0.2960  0.0807
10546TIP3    H253130   2.032   2.097   5.376 -0.8861  0.2565 -0.0862
10547TIP3   OH253131   4.153   2.912   5.975  0.6023  0.3779  0.1639
10547TIP3    H153132   4.068   2.886   6.011  0.9735 -1.2447 -0.0876
10547TIP3    H253133   4.209   2.924   6.052  1.2273 -2.4936  0.2495
10548TIP3   OH253134   2.315   4.281  14.543 -0.7655 -0.0127  0.2561
10548TIP3    H153135   2.242   4.226  14.572 -0.3628 -0.4065  0.5138
10548TIP3    H253136   2.371   4.290  14.620 -0.5967  0.3878  0.0876
10549TIP3   OH253137   4.640   3.725  11.201  0.7940  0.9367  0.2485
10549TIP3    H153138   4.603   3.764  11.280 -1.1436  0.1365 -0.2346
10549TIP3    H253139   4.627   3.791  11.133  0.5079  0.7691  0.1394
10550TIP3   OH253140   3.227   5.889  13.873  0.2588  0.2937 -0.7485
10550TIP3    H153141   3.235   5.805  13.828  1.6569  0.3041 -0.5240
10550TIP3    H253142   3.153   5.877  13.933  1.8644 -1.5260  0.9212
10551TIP3   OH253143   3.393   1.110  15.424  0.4939  0.2627  0.3521
10551TIP3    H153144   3.392   1.199  15.388  0.7431  0.2553  0.3273
10551TIP3    H253145   3.452   1.062  15.366  0.5260  0.1340  0.4917
10552TIP3   OH253146   1.396   6.655  11.362 -0.0560  0.1918  0.5976
10552TIP3    H153147   1.478   6.638  11.316  0.3338  0.3656  1.2253
10552TIP3    H253148   1.333   6.593  11.324 -0.4659  2.1913 -2.1497
10553TIP3   OH253149   3.152   6.174  15.736 -0.3494 -0.0309  0.0587
10553TIP3    H153150   3.241   6.205  15.722  0.0048 -1.1777 -0.3061
10553TIP3    H253151   3.133   6.121  15.658 -1.1357 -0.2665  0.4048
10554TIP3   OH253152   0.568   0.741   5.875  0.1936 -0.3432 -0.0714
10554TIP3    H153153   0.604   0.681   5.940 -1.6619 -1.3070  0.0930
10554TIP3    H253154   0.484   0.767   5.911 -0.0741  0.4815 -1.2892
10555TIP3   OH253155   6.590   0.374  15.450  0.4579 -0.4359 -0.4374
10555TIP3    H153156   6.580   0.334  15.537  0.0894  1.6198  0.5023
10555TIP3    H253157   6.509   0.353  15.404 -0.7042  1.0481  0.8414
10556TIP3   OH253158   3.517   5.203  15.975 -0.2081  0.2039 -0.0191
10556TIP3    H153159   3.535   5.275  16.035 -0.0707  0.9524 -0.9505
10556TIP3    H253160   3.481   5.134  16.031  1.6417  0.2111  1.2241
10557TIP3   OH253161   3.915   0.832   5.329 -0.4042 -0.3696 -0.0071
10557TIP3    H153162   3.857   0.890   5.378  1.1406  1.1800  0.0183
10557TIP3    H253163   3.942   0.884   5.253  1.7632 -0.6994  0.5129
10558TIP3   OH253164   5.321   0.782  11.874  0.5308 -0.0452  0.2235
10558TIP3    H153165   5.340   0.847  11.806 -0.8929  0.8634  0.6704
10558TIP3    H253166   5.273   0.831  11.941  0.2543 -1.3551  1.0019
10559TIP3   OH253167   3.835   4.309  16.373  0.6602 -0.7139 -0.9778
10559TIP3    H153168   3.923   4.348  16.367  1.1774 -1.1310  2.5701
10559TIP3    H253169   3.847   4.232  16.429 -2.1666 -0.0717  0.6012
10560TIP3   OH253170   1.012   0.753   0.830  0.4292  0.0468 -0.4966
10560TIP3    H153171   1.025   0.815   0.757 -1.5640  0.7687 -0.2869
10560TIP3    H253172   0.926   0.776   0.865  0.4005 -1.7667  0.6796
10561TIP3   OH253173   5.357   4.744   4.483  0.3458 -0.2258 -0.2069
10561TIP3    H153174   5.321   4.816   4.432 -2.3946 -2.6725 -1.9193
10561TIP3    H253175   5.417   4.700   4.423  0.8434 -0.2425  0.3068
10562TIP3   OH253176   5.572   4.771   1.570  0.1112 -0.4190  0.2261
10562TIP3    H153177   5.502   4.781   1.506  1.2899 -0.2319 -1.0656
10562TIP3    H253178   5.555   4.687   1.612 -0.0806 -1.0585 -1.0914
10563TIP3   OH253179   5.449   0.221   4.813 -0.0843  0.0958 -0.1639
10563TIP3    H153180   5.496   0.286   4.762 -0.3797  0.6350  0.2454
10563TIP3    H253181   5.360   0.222   4.779 -0.5059  1.0730  0.9153
10564TIP3   OH253182   1.668   6.328  14.927  0.3004  0.1940  0.3479
10564TIP3    H153183   1.598   6.317  14.864  0.3531 -1.4843  0.5623
10564TIP3    H253184   1.644   6.407  14.976  1.2020  2.5744 -2.9257
10565TIP3   OH253185   0.109   4.047  12.744  0.1476 -0.7385 -0.5147
10565TIP3    H153186   0.195   4.037  12.703 -0.2257 -1.5424 -1.1175
10565TIP3    H253187   0.097   3.967  12.795  1.2914  0.9404  2.4956
10566TIP3   OH253188   6.017   6.091   5.203  0.1172 -0.1768  0.3057
10566TIP3    H153189   5.927   6.094   5.172  0.1403  2.2229  0.3359
10566TIP3    H253190   6.070   6.100   5.123  0.2564  1.1299  0.5245
10567TIP3   OH253191   5.996   0.633   6.721  0.2014 -0.4808 -0.1193
10567TIP3    H153192   6.082   0.599   6.747 -0.2404 -0.2732  1.7396
10567TIP3    H253193   5.934   0.578   6.769 -0.6886 -0.4453 -1.2387
10568TIP3   OH253194   1.225   5.843  16.641 -0.4385 -0.0134  0.1043
10568TIP3    H153195   1.290   5.883  16.583 -0.3994  1.6050  1.2327
10568TIP3    H253196   1.148   5.899  16.633 -0.4282  0.2309  1.6114
10569TIP3   OH253197   4.472   5.561  12.781  0.4294 -0.2033 -0.4974
10569TIP3    H153198   4.440   5.510  12.855  1.5131  0.0662  0.1818
10569TIP3    H253199   4.402   5.557  12.716 -2.0210  2.4750  1.8969
10570TIP3   OH253200   3.475   5.964  14.060  0.3568  0.0841  0.5380
10570TIP3    H153201   3.412   5.893  14.074 -0.4184  0.8190  0.7864
10570TIP3    H253202   3.556   5.931  14.099 -0.1273 -0.4803  1.0815
10571TIP3   OH253203   2.368   3.946   2.948 -0.7338  0.0672  0.3797
10571TIP3    H153204   2.296   3.885   2.932 -0.4411 -1.0772  3.1233
10571TIP3    H253205   2.359   3.970   3.041 -0.2234  3.4197 -0.3566
10572TIP3   OH253206   2.157   3.708  10.914 -0.9853 -0.5138 -0.2578
10572TIP3    H153207   2.206   3.690  10.834 -2.1297 -0.3702 -1.0006
10572TIP3    H253208   2.205   3.781  10.956 -0.8516 -0.0412 -1.2222
10573TIP3   OH253209   4.534   5.686  12.336  0.8311  0.0593  0.7346
10573TIP3    H153210   4.618   5.675  12.381  1.3362  2.2190  0.3748
10573TIP3    H253211   4.532   5.779  12.313 -0.9636 -0.3167 -0.6570
10574TIP3   OH253212   5.595   6.417   0.482 -0.0284  0.3389 -0.3102
10574TIP3    H153213   5.509   6.383   0.459  0.4151 -0.9416 -0.1078
10574TIP3    H253214   5.587   6.444   0.573  0.0934 -0.8391  0.0587
10575TIP3   OH253215   5.889   0.830   2.007  0.3615  0.0480  0.2613
10575TIP3    H153216   5.855   0.874   2.085  0.2124  1.0502 -0.3590
10575TIP3    H253217   5.975   0.870   1.992  0.1991  0.1921 -0.3379
10576TIP3   OH253218   6.286   1.938  15.740  0.0803  0.2337 -0.0474
10576TIP3    H153219   6.319   1.893  15.817 -0.6820 -0.1144  0.0811
10576TIP3    H253220   6.193   1.952  15.759 -0.3672 -0.8709 -1.3871
10577TIP3   OH253221   3.654   5.806  13.784 -0.4615 -0.1588  0.2163
10577TIP3    H153222   3.722   5.859  13.745  0.3213  0.2598  2.0998
10577TIP3    H253223   3.573   5.854  13.766 -0.3386 -0.7953 -2.2540
10578TIP3   OH253224   2.543   1.523   4.711  0.1455 -0.3618  0.0248
10578TIP3    H153225   2.532   1.597   4.652  0.1877 -1.0538 -0.8761
10578TIP3    H253226   2.549   1.561   4.798 -1.2009  0.5839 -0.2877
10579TIP3   OH253227   1.885   5.589   2.960 -0.5922 -0.0056 -0.6049
10579TIP3    H153228   1.853   5.530   2.892  1.6534 -1.1169 -0.7110
10579TIP3    H253229   1.868   5.543   3.042 -0.0495 -0.2049 -0.6079
10580TIP3   OH253230   1.014   3.170  16.376  1.2220  0.3832 -0.1883
10580TIP3    H153231   0.978   3.082  16.390  1.0480  0.5549  0.4291
10580TIP3    H253232   1.098   3.154  16.331  1.0646 -0.0829 -0.3215
10581TIP3   OH253233   0.502   5.158   3.763  0.4061 -0.0128  0.2709
10581TIP3    H153234   0.478   5.196   3.678  0.7228  1.0728  0.6549
10581TIP3    H253235   0.422   5.117   3.794  0.1542  0.0215 -0.3200
10582TIP3   OH253236   3.024   1.641   4.511  0.3036  0.3564  0.3316
10582TIP3    H153237   3.038   1.555   4.549 -1.5749 -0.1402 -0.0634
10582TIP3    H253238   3.112   1.673   4.490  1.0215 -1.3388  0.7433
10583TIP3   OH253239   2.335   4.486  13.387  0.1048 -0.3439  0.1925
10583TIP3    H153240   2.280   4.463  13.462 -1.0122 -0.4708 -0.6509
10583TIP3    H253241   2.273   4.514  13.320  0.9387 -2.2201 -1.3978
10584TIP3   OH253242   4.752   0.792  11.588  0.1238 -0.0426  0.3926
10584TIP3    H153243   4.775   0.713  11.638 -1.3333 -1.7266 -1.5014
10584TIP3    H253244   4.658   0.782  11.572  0.3829  0.9614 -1.8221
10585TIP3   OH253245   6.335   5.612  15.625  0.5341 -0.4129 -0.2903
10585TIP3    H153246   6.405   5.547  15.635  0.6004 -0.3611 -0.4187
10585TIP3    H253247   6.294   5.590  15.541  0.7300 -0.1191 -0.4607
10586TIP3   OH253248   1.657   6.533  15.159  0.0191  0.4774 -0.3774
10586TIP3    H153249   1.591   6.500  15.220 -0.2204  0.3527 -0.7027
10586TIP3    H253250   1.666   6.626  15.182 -0.4172  0.5429 -0.4678
10587TIP3   OH253251   4.078   1.992   4.535  0.5294  0.2867 -0.5719
10587TIP3    H153252   4.047   2.079   4.559  2.4799  0.6014  0.8727
10587TIP3    H253253   4.022   1.932   4.585  1.4301  0.8231  1.1224
10588TIP3   OH253254   1.794   6.655  13.922  0.0009 -0.4207 -0.2275
10588TIP3    H153255   1.731   6.586  13.942 -1.0523  0.4574 -0.4578
10588TIP3    H253256   1.872   6.634  13.974 -1.2885 -0.2736  1.7876
10589TIP3   OH253257   6.032   5.437   2.304 -0.1788 -0.5310  0.6005
10589TIP3    H153258   6.105   5.380   2.282 -0.9149 -0.4872 -2.1247
10589TIP3    H253259   6.029   5.501   2.232 -3.0467 -0.6974  0.5228
10590TIP3   OH253260   2.601   5.426   5.229 -0.8334 -0.1569  0.5506
10590TIP3    H153261   2.563   5.342   5.202 -1.7475  0.3469  0.2660
10590TIP3    H253262   2.535   5.491   5.205 -0.2590  0.6149  1.0554
10591TIP3   OH253263   4.263   3.776  13.940  0.2753  0.1534 -0.1676
10591TIP3    H153264   4.212   3.827  13.877  1.0040  1.0850 -0.0285
10591TIP3    H253265   4.266   3.831  14.018  0.0488 -0.6441  0.4056
10592TIP3   OH253266   6.487   2.169  13.741 -0.1172  0.4287  0.0824
10592TIP3    H153267   6.513   2.194  13.653  1.6879  0.3595  0.5783
10592TIP3    H253268   6.483   2.252  13.790 -2.7330  0.6586 -0.4442
10593TIP3   OH253269   0.119   0.833  12.991 -0.4543 -0.3702 -0.2983
10593TIP3    H153270   0.089   0.836  12.900  0.3284  1.5436 -0.5430
10593TIP3    H253271   0.061   0.894  13.037 -0.5584 -0.9921  0.3991
10594TIP3   OH253272   5.546   0.452   4.712 -0.1338 -0.3993 -0.1290
10594TIP3    H153273   5.635   0.487   4.714  0.7749 -2.5130 -1.9348
10594TIP3    H253274   5.522   0.453   4.620 -1.0041 -2.2292  0.0714
10595TIP3   OH253275   0.974   6.158  16.635  1.1415 -0.1140 -0.4823
10595TIP3    H153276   0.907   6.194  16.577 -0.8865 -1.1349  1.1542
10595TIP3    H253277   1.055   6.203  16.610 -0.6511  3.0866 -0.7367
10596TIP3   OH253278   6.380   3.698   2.041 -0.7294  0.6062 -0.0809
10596TIP3    H153279   6.319   3.761   2.079 -2.8364  0.1081 -2.5241
10596TIP3    H253280   6.348   3.613   2.070  0.6723  0.4735  1.1756
10597TIP3   OH253281   0.533   5.286  11.368 -0.0682  0.4672 -0.0700
10597TIP3    H153282   0.522   5.235  11.449  1.3224 -0.2049 -0.2870
10597TIP3    H253283   0.572   5.224  11.306 -0.7945  1.0826 -1.1490
10598TIP3   OH253284   5.259   0.347   6.534  0.0346  0.0609  0.0966
10598TIP3    H153285   5.238   0.338   6.627 -0.5472 -0.5139 -0.0835
10598TIP3    H253286   5.184   0.394   6.498 -0.3202 -0.7997 -0.3032
10599TIP3   OH253287   3.996   6.306   1.300 -0.0960 -0.0756  0.1549
10599TIP3    H153288   3.972   6.239   1.364 -2.4586  1.0678  0.4854
10599TIP3    H253289   4.049   6.369   1.350 -0.5701 -0.0222  0.5895
10600TIP3   OH253290   1.255   5.599   5.282 -0.2801  0.2107  0.0198
10600TIP3    H153291   1.172   5.620   5.325 -0.9553 -0.0771 -1.1294
10600TIP3    H253292   1.268   5.505   5.299  0.3425  0.4741  1.0756
10601TIP3   OH253293   0.543   6.435  12.531 -0.0609  0.0661 -0.1847
10601TIP3    H153294   0.613   6.378  12.563 -0.7830 -1.2468 -0.9023
10601TIP3    H253295   0.529   6.497  12.602  1.4632  0.0093  0.1884
10602TIP3   OH253296   1.252   4.208  10.977  0.6122 -0.2146  0.0629
10602TIP3    H153297   1.248   4.278  10.912  0.2755  0.4045  0.7435
10602TIP3    H253298   1.176   4.153  10.957  0.8313 -0.3475 -0.4215
10603TIP3   OH253299   3.113   6.155  16.337 -0.1070  0.4165  0.0692
10603TIP3    H153300   3.031   6.201  16.322 -0.5614 -0.6274 -0.7536
10603TIP3    H253301   3.148   6.140  16.249  0.4846  0.0124  0.3675
10604TIP3   OH253302   3.949   2.900  14.897 -0.5552  0.2766 -0.0654
10604TIP3    H153303   3.984   2.989  14.894 -1.5342  0.6670  0.0717
10604TIP3    H253304   3.948   2.872  14.806 -1.0325  0.7111 -0.1939
10605TIP3   OH253305   0.690   3.415  14.606 -0.2445 -0.0886 -0.5912
10605TIP3    H153306   0.642   3.465  14.540 -0.1004  0.1007 -0.5540
10605TIP3    H253307   0.756   3.367  14.556  0.3124  0.5893 -0.5130
10606TIP3   OH253308   1.616   1.251   3.580  0.0733 -0.1433  0.2173
10606TIP3    H153309   1.582   1.338   3.604  0.1383 -0.2373  0.6676
10606TIP3    H253310   1.688   1.236   3.642 -0.3370 -0.7816  0.5494
10607TIP3   OH253311   1.193   0.101   5.921  0.0415 -0.3232 -0.3309
10607TIP3    H153312   1.231   0.073   5.838  0.8618 -1.0839  0.2882
10607TIP3    H253313   1.266   0.137   5.971 -0.1713 -1.1233  0.5893
10608TIP3   OH253314   4.508   4.108   1.972 -0.0876  0.4614  0.1504
10608TIP3    H153315   4.476   4.157   2.048 -1.4563 -0.0540 -0.0739
10608TIP3    H253316   4.521   4.019   2.005  1.3212  0.7054  0.2819
10609TIP3   OH253317   5.778   2.969  11.417  0.1796 -0.2502 -0.3487
10609TIP3    H153318   5.698   2.980  11.468  0.9470 -1.0956  1.0642
10609TIP3    H253319   5.759   2.896  11.358 -0.4737  0.2844 -0.8046
10610TIP3   OH253320   2.953   6.615  15.924 -0.4544 -0.4867 -0.5931
10610TIP3    H153321   2.903   6.537  15.901 -1.1522 -1.0444  2.5622
10610TIP3    H253322   3.000   6.591  16.004 -2.0323  2.8285  1.4568
10611TIP3   OH253323   1.459   3.506   5.892  0.3300  0.0167  0.0486
10611TIP3    H153324   1.514   3.550   5.957  0.0994  0.8148 -0.2935
10611TIP3    H253325   1.372   3.506   5.932 -0.0277  1.4488 -0.7027
10612TIP3   OH253326   4.536   4.768   0.574 -0.3116  0.4591 -0.0286
10612TIP3    H153327   4.560   4.701   0.638  1.7843  2.1110  0.9971
10612TIP3    H253328   4.475   4.825   0.620 -1.6264 -0.3765 -0.7068
10613TIP3   OH253329   6.078   2.349  13.086  0.7098  0.4555 -0.2819
10613TIP3    H153330   5.996   2.300  13.082  0.0785  1.2882  1.6257
10613TIP3    H253331   6.133   2.311  13.018 -0.2853 -1.9348  0.2239
10614TIP3   OH253332   5.356   5.808  11.376  0.3493  0.2722  0.3469
10614TIP3    H153333   5.417   5.776  11.442 -0.7018 -0.6748  0.8825
10614TIP3    H253334   5.269   5.791  11.413 -0.2496  0.4462 -0.9374
10615TIP3   OH253335   4.387   2.159  13.395  0.3704 -0.0546  0.2691
10615TIP3    H153336   4.451   2.099  13.357  2.6975  1.6840  1.2844
10615TIP3    H253337   4.414   2.167  13.487 -0.8503  1.2833  0.5246
10616TIP3   OH253338   3.610   2.625   2.610  0.2101 -0.1234  0.1150
10616TIP3    H153339   3.589   2.532   2.615 -0.3926  0.0583  1.1267
10616TIP3    H253340   3.571   2.663   2.689 -0.1811  1.1131 -0.6527
10617TIP3   OH253341   4.853   0.805  12.712  0.0586 -0.1983 -0.2734
10617TIP3    H153342   4.763   0.822  12.685  0.2370 -0.1853 -0.8487
10617TIP3    H253343   4.844   0.747  12.789 -0.4286 -0.4495 -0.5181
10618TIP3   OH253344   4.593   1.889  14.955  0.0239 -0.1059  0.3003
10618TIP3    H153345   4.677   1.848  14.932 -0.9197 -1.5091 -0.7630
10618TIP3    H253346   4.596   1.975  14.912  0.0587 -1.0027 -1.5728
10619TIP3   OH253347   1.742   2.601   6.793 -0.1741 -0.3848  0.6995
10619TIP3    H153348   1.695   2.600   6.710  1.1249 -1.2484 -0.0364
10619TIP3    H253349   1.673   2.602   6.859 -1.2302  0.9434 -0.3733
10620TIP3   OH253350   5.838   1.439  16.209 -0.1368  0.5577  0.0865
10620TIP3    H153351   5.852   1.421  16.302 -0.5643  1.8320  0.4154
10620TIP3    H253352   5.916   1.405  16.166 -1.9347 -4.1698  0.3372
10621TIP3   OH253353   5.089   0.605  15.299  0.0506  0.2259 -0.3274
10621TIP3    H153354   5.075   0.624  15.392  1.9805 -2.4623  0.5570
10621TIP3    H253355   5.028   0.534  15.280 -1.5267  1.8644 -1.6014
10622TIP3   OH253356   3.824   5.844   6.555 -0.2132 -0.1712  0.6492
10622TIP3    H153357   3.735   5.815   6.537 -0.9357  0.5003  3.0249
10622TIP3    H253358   3.877   5.764   6.549 -0.6342 -0.2718 -2.6010
10623TIP3   OH253359   4.322   5.307   3.623 -0.2161 -0.1002  0.1640
10623TIP3    H153360   4.232   5.287   3.651 -0.0786 -0.7602  0.1180
10623TIP3    H253361   4.311   5.360   3.544 -0.5472 -0.9332 -0.3461
10624TIP3   OH253362   3.510   2.204  12.807 -0.3064  0.3820 -0.4471
10624TIP3    H153363   3.480   2.171  12.721 -0.0513  0.6826 -0.6521
10624TIP3    H253364   3.443   2.267  12.833 -0.5474  0.0607 -0.2776
10625TIP3   OH253365   3.426   2.311   4.355  0.1664  0.0437 -0.3975
10625TIP3    H153366   3.408   2.405   4.362  0.8783  0.3248 -2.1629
10625TIP3    H253367   3.521   2.305   4.343  0.0577 -0.8723 -0.8627
10626TIP3   OH253368   4.698   2.025  13.333 -0.3424  0.0673  0.0292
10626TIP3    H153369   4.772   2.069  13.375  1.0287 -0.6233 -1.6341
10626TIP3    H253370   4.696   2.059  13.244 -0.6142 -1.6072 -0.6302
10627TIP3   OH253371   5.954   6.332   2.169  0.0464  0.0230 -0.1518
10627TIP3    H153372   5.914   6.247   2.187 -0.8209  0.5556  0.4594
10627TIP3    H253373   6.028   6.337   2.230 -0.7927  0.3386  0.8437
10628TIP3   OH253374   1.811   0.642   1.155 -0.2874 -0.5573 -0.4153
10628TIP3    H153375   1.758   0.665   1.078 -0.3282 -2.4664 -0.9848
10628TIP3    H253376   1.781   0.554   1.178  0.6582 -0.5110  0.9887
10629TIP3   OH253377   4.914   0.824  12.015  0.1385  0.3705 -0.4736
10629TIP3    H153378   4.877   0.888  11.955 -0.8979 -1.1784 -1.5283
10629TIP3    H253379   4.838   0.786  12.059  0.6184 -1.1060 -0.8800
10630TIP3   OH253380   5.922   3.835   1.409  0.3090  0.3971  0.3020
10630TIP3    H153381   5.868   3.756   1.415  0.8926  0.0937  1.6721
10630TIP3    H253382   5.990   3.823   1.475  0.3939  2.0501  0.5390
10631TIP3   OH253383   5.076   0.821  12.573 -0.3779 -0.3616  0.0235
10631TIP3    H153384   4.997   0.814  12.627 -1.0868 -0.8506 -1.0743
10631TIP3    H253385   5.068   0.751  12.509  2.0014 -1.7914  1.2185
10632TIP3   OH253386   5.013   5.166   2.166  0.1176  0.0689  0.0077
10632TIP3    H153387   5.093   5.118   2.143 -0.3063 -0.8754  0.4724
10632TIP3    H253388   5.044   5.235   2.225  0.6377 -0.1010 -0.0597
10633TIP3   OH253389   1.051   3.363   6.552 -0.0558 -0.0560 -0.0831
10633TIP3    H153390   1.114   3.432   6.529  0.6746 -0.5391  0.4330
10633TIP3    H253391   1.027   3.325   6.467 -0.1871  0.5949 -0.3418
10634TIP3   OH253392   0.886   6.384   3.529 -0.1603  0.3348  0.6044
10634TIP3    H153393   0.826   6.454   3.556 -0.1158  0.4672  0.3583
10634TIP3    H253394   0.875   6.378   3.434 -1.6029 -1.3219  0.8409
10635TIP3   OH253395   4.124   3.104  16.024 -0.3584  0.4495 -0.0389
10635TIP3    H153396   4.097   3.106  16.116  0.5991 -0.1777  0.2660
10635TIP3    H253397   4.212   3.141  16.025 -0.0049 -0.3883 -0.5873
10636TIP3   OH253398   0.982   2.415  16.515 -0.1777 -0.1236 -0.1193
10636TIP3    H153399   1.073   2.444  16.520  0.8423 -2.4519 -3.0613
10636TIP3    H253400   0.972   2.353  16.588  0.3666  0.7022  0.6606
10637TIP3   OH253401   1.733   0.200   3.775  0.0151 -0.2092 -0.0889
10637TIP3    H153402   1.647   0.224   3.808 -0.4352 -1.9450  0.0035
10637TIP3    H253403   1.716   0.162   3.689  0.7925  0.3620 -0.5082
10638TIP3   OH253404   3.171   0.937  14.733 -0.1587 -0.6182 -0.4996
10638TIP3    H153405   3.132   0.899  14.654  0.3126 -1.2636 -0.4229
10638TIP3    H253406   3.174   1.031  14.715  0.9529 -0.8662 -1.6945
10639TIP3   OH253407   1.013   5.251  12.600  0.3811 -0.1036  0.5130
10639TIP3    H153408   0.978   5.305  12.528 -0.8294 -0.4926  0.7905
10639TIP3    H253409   1.088   5.206  12.562 -0.6122 -0.7829 -0.7166
10640TIP3   OH253410   4.198   4.632  16.779  0.3713 -0.2964 -0.0430
10640TIP3    H153411   4.264   4.621  16.847  0.3697 -1.0331 -0.1625
10640TIP3    H253412   4.135   4.562  16.794  0.7746 -0.9406 -1.2738
10641TIP3   OH253413   0.104   0.406   1.107  0.0510  0.1287  0.0424
10641TIP3    H153414   0.098   0.408   1.012 -0.7422 -0.5421  0.0715
10641TIP3    H253415   0.073   0.492   1.135 -1.2337 -0.2374 -0.2354
10642TIP3   OH253416   0.760   6.099  11.487 -0.1309  0.2478  0.5055
10642TIP3    H153417   0.802   6.148  11.416  0.7415 -0.4655  0.5289
10642TIP3    H253418   0.672   6.079  11.454  0.4265 -0.4764 -0.5556
10643TIP3   OH253419   1.501   3.029  16.465 -0.0186  0.1441 -0.3659
10643TIP3    H153420   1.482   3.122  16.451 -0.0933  0.5718  2.3202
10643TIP3    H253421   1.415   2.987  16.463 -0.0680  0.2571 -0.6978
10644TIP3   OH253422   2.197   1.852  15.462 -0.2607  0.2017 -0.1023
10644TIP3    H153423   2.165   1.832  15.374  3.1712  0.0554 -1.3760
10644TIP3    H253424   2.236   1.771  15.493  0.4086  0.8228  0.7105
10645TIP3   OH253425   5.424   2.964   2.877 -0.2811 -0.1138  0.6283
10645TIP3    H153426   5.374   2.883   2.885  0.7746 -0.8570 -0.2304
10645TIP3    H253427   5.396   3.016   2.953 -1.7294 -0.8437  0.6264
10646TIP3   OH253428   0.702   4.799  15.698  0.5366 -0.4254  0.1608
10646TIP3    H153429   0.725   4.823  15.788  2.3364 -0.1812 -0.3460
10646TIP3    H253430   0.626   4.854  15.677  1.0280  0.6016  1.0172
10647TIP3   OH253431   5.088   4.009   3.631  0.4781 -0.1359  0.3392
10647TIP3    H153432   5.054   4.098   3.624  0.0747 -0.2688  0.5613
10647TIP3    H253433   5.053   3.964   3.553  4.1364  0.9972 -2.0798
10648TIP3   OH253434   2.759   2.138  11.674  0.1565 -0.6148 -0.0238
10648TIP3    H153435   2.674   2.104  11.704 -0.8430  0.9294 -1.0478
10648TIP3    H253436   2.809   2.151  11.755 -0.4958 -1.7598  0.5721
10649TIP3   OH253437   3.618   5.484   1.266  0.4027 -0.1581 -0.1251
10649TIP3    H153438   3.544   5.424   1.266  0.1223  0.1588  1.6368
10649TIP3    H253439   3.615   5.526   1.352  1.9641  0.6806 -0.4561
10650TIP3   OH253440   2.916   2.925  12.798  0.3121  0.0462  0.0531
10650TIP3    H153441   2.967   3.006  12.794  0.0138  0.3908  2.5314
10650TIP3    H253442   2.976   2.861  12.837 -0.1833 -0.3181  0.2280
10651TIP3   OH253443   6.587   2.203  11.626  0.0159 -0.6255 -0.1101
10651TIP3    H153444   6.615   2.166  11.710  0.0266 -2.1775 -0.7704
10651TIP3    H253445   6.661   2.257  11.598  0.7003 -1.4387  0.0944
10652TIP3   OH253446   1.228   4.842  16.118 -0.4050  0.1426  0.2466
10652TIP3    H153447   1.203   4.791  16.195  0.0632 -0.3186  0.1014
10652TIP3    H253448   1.278   4.780  16.064  0.1165  0.7410  0.0381
10653TIP3   OH253449   0.227   0.279  12.065  0.1502 -0.3279  0.0812
10653TIP3    H153450   0.262   0.351  12.013  0.2459  0.6291  1.4556
10653TIP3    H253451   0.270   0.288  12.150 -0.9128 -1.1588  0.7095
10654TIP3   OH253452   2.876   1.483   0.366 -0.2475  0.6722 -0.1898
10654TIP3    H153453   2.853   1.491   0.273  2.0752  3.3325 -0.5802
10654TIP3    H253454   2.824   1.551   0.409  0.4808  1.0273  0.1237
10655TIP3   OH253455   6.012   1.748  13.908 -0.0127 -0.3160  0.0968
10655TIP3    H153456   5.917   1.736  13.900  0.1220 -2.3957  1.1726
10655TIP3    H253457   6.022   1.838  13.939 -1.7172 -0.4664  1.1438
10656TIP3   OH253458   4.325   6.337  16.958  0.2987 -0.2143  0.3992
10656TIP3    H153459   4.370   6.402  16.903 -0.3424  0.3351  0.5313
10656TIP3    H253460   4.335   6.255  16.909 -2.6081  0.7224 -1.9402
10657TIP3   OH253461   4.354   2.279   5.590 -0.1886 -0.1092  0.3851
10657TIP3    H153462   4.263   2.303   5.572 -0.4541 -0.9554  0.6241
10657TIP3    H253463   4.401   2.304   5.510 -0.8305 -0.7906 -0.2122
10658TIP3   OH253464   6.711   0.053   2.528 -0.2815 -0.3583  0.1659
10658TIP3    H153465   6.764   0.075   2.605 -0.6312  0.0929  0.2805
10658TIP3    H253466   6.644  -0.006   2.562  0.3481 -1.1911 -0.0432
10659TIP3   OH253467   4.668   3.552   5.259 -0.1709 -0.4665 -0.3439
10659TIP3    H153468   4.586   3.581   5.299  0.3648  1.4049 -0.5959
10659TIP3    H253469   4.717   3.632   5.243  1.1707 -1.4835 -1.3975
10660TIP3   OH253470   1.401   4.854  16.452 -0.3684  0.4204 -0.2190
10660TIP3    H153471   1.425   4.823  16.539  0.3925  1.4817 -0.0348
10660TIP3    H253472   1.358   4.780  16.410  2.6436 -1.3178 -0.3144
10661TIP3   OH253473   0.267   5.650  11.099 -0.2957  0.3327 -0.2486
10661TIP3    H153474   0.239   5.703  11.024 -0.0219 -0.8889 -1.2369
10661TIP3    H253475   0.217   5.685  11.173 -0.8791  1.2965 -1.0831
10662TIP3   OH253476   2.945   2.433  11.504 -0.4421  0.3637 -0.1546
10662TIP3    H153477   2.987   2.361  11.458  0.4567  0.0431  1.1571
10662TIP3    H253478   2.992   2.511  11.473 -0.5417  0.2640 -0.5673
10663TIP3   OH253479   4.644   5.633   0.135 -0.1677  0.2255 -0.0625
10663TIP3    H153480   4.620   5.583   0.057  0.0590  0.8988 -0.5604
10663TIP3    H253481   4.563   5.677   0.161  0.4326  2.3626 -1.6455
10664TIP3   OH253482   1.020   5.898  14.116 -0.2862  0.0337  0.1341
10664TIP3    H153483   1.095   5.842  14.136 -0.5573 -0.7096 -0.8652
10664TIP3    H253484   1.056   5.968  14.062 -0.1125  0.3011  0.5949
10665TIP3   OH253485   1.002   4.547   5.749 -0.1282  0.2746 -0.2710
10665TIP3    H153486   1.003   4.639   5.724  1.1331  0.4813  0.5090
10665TIP3    H253487   0.929   4.509   5.699  1.4714  0.9299 -3.1950
10666TIP3   OH253488   1.104   1.685   0.505 -0.0267 -0.0331 -0.1249
10666TIP3    H153489   1.194   1.655   0.517  0.6427  2.1107  0.4868
10666TIP3    H253490   1.053   1.633   0.567  1.3065  1.0842  1.9853
10667TIP3   OH253491   3.024   0.522  12.746 -0.2092 -0.0310 -0.3403
10667TIP3    H153492   3.049   0.445  12.796 -1.0223  0.7438  1.2989
10667TIP3    H253493   2.969   0.573  12.806  0.3631  1.8444 -1.3680
10668TIP3   OH253494   1.850   1.723   1.772 -0.4158 -1.0284 -0.0401
10668TIP3    H153495   1.755   1.719   1.782 -0.5686 -1.7495 -1.6774
10668TIP3    H253496   1.872   1.645   1.722  0.9711 -0.5311 -0.2224
10669TIP3   OH253497   5.656   2.141  13.388  0.5422 -0.0905 -0.2509
10669TIP3    H153498   5.586   2.166  13.326  1.4414 -2.7696 -2.4553
10669TIP3    H253499   5.614   2.080  13.448  0.2238  0.7231  0.3502
10670TIP3   OH253500   1.394   2.421  16.948 -0.0565  0.2167 -0.1900
10670TIP3    H153501   1.373   2.351  17.010 -0.9045 -1.6235 -2.4685
10670TIP3    H253502   1.436   2.488  17.001 -0.9178 -1.2113  2.3999
10671TIP3   OH253503   0.339   1.899   0.391 -0.8226 -0.7088 -0.0153
10671TIP3    H153504   0.421   1.862   0.424  0.4650  0.9736 -1.2305
10671TIP3    H253505   0.306   1.952   0.463  0.0488 -0.0428 -0.0927
10672TIP3   OH253506   1.177   6.401  15.616  0.1460 -0.0025  0.3669
10672TIP3    H153507   1.268   6.418  15.642 -0.2274  1.4318  0.7384
10672TIP3    H253508   1.143   6.345  15.686  0.7397 -0.5792  0.2089
10673TIP3   OH253509   1.716   4.515  16.072  0.3733  0.1110 -0.1897
10673TIP3    H153510   1.725   4.583  16.139 -2.3618  0.2043  0.1366
10673TIP3    H253511   1.806   4.490  16.051  1.3285  1.2620  2.3049
10674TIP3   OH253512   4.669   0.243   3.101 -0.7905 -0.2000  0.2925
10674TIP3    H153513   4.740   0.273   3.158  0.2637  0.4703 -1.3237
10674TIP3    H253514   4.599   0.307   3.115 -0.6481 -0.2141  1.0667
10675TIP3   OH253515   3.724   4.215  13.757 -0.2693 -0.3426 -0.3626
10675TIP3    H153516   3.675   4.184  13.834 -0.4597  0.4165 -0.1715
10675TIP3    H253517   3.657   4.243  13.696 -0.0925  0.1453 -0.3370
10676TIP3   OH253518   6.707   1.118   3.646  0.2214  0.0982 -0.2598
10676TIP3    H153519   6.739   1.058   3.714  0.4126  1.2719  0.6971
10676TIP3    H253520   6.786   1.147   3.600  0.3352  1.2899  0.6792
10677TIP3   OH253521   0.351   4.707   3.707  0.2059  0.1146 -0.0354
10677TIP3    H153522   0.300   4.711   3.788 -0.9025 -1.9175 -0.6061
10677TIP3    H253523   0.285   4.701   3.637  1.1908 -0.3946 -0.9415
10678TIP3   OH253524   5.180   6.234  16.912 -0.3576  0.6984  0.1569
10678TIP3    H153525   5.245   6.194  16.854 -0.1467  0.9133  0.2428
10678TIP3    H253526   5.108   6.258  16.854  0.0760  1.3943 -0.1094
10679TIP3   OH253527   0.931   3.940  11.516  0.3634 -0.3675 -0.2050
10679TIP3    H153528   0.924   3.952  11.610 -1.8569  1.7976 -0.5828
10679TIP3    H253529   0.853   3.888  11.492  1.5163 -1.9070 -0.7212
10680TIP3   OH253530   2.424   6.603   3.266 -0.3846 -0.3919 -0.5277
10680TIP3    H153531   2.359   6.587   3.197 -0.9819 -3.3209  0.6189
10680TIP3    H253532   2.401   6.688   3.302 -0.1882  1.1188 -3.7804
10681TIP3   OH253533   0.903   2.090  16.432 -0.9710  0.1480 -0.2239
10681TIP3    H153534   0.880   2.140  16.353 -2.7375  0.9990  0.7836
10681TIP3    H253535   0.820   2.084  16.481  0.4630  1.1898  2.4177
10682TIP3   OH253536   5.319   5.818   5.003  0.6830  0.1733  0.0713
10682TIP3    H153537   5.335   5.726   4.979 -1.1906 -0.5137  1.2824
10682TIP3    H253538   5.340   5.822   5.096 -1.5036  0.3638  0.5815
10683TIP3   OH253539   0.185   4.685   4.428  0.0983 -0.2115  0.8589
10683TIP3    H153540   0.145   4.625   4.365 -0.0683 -0.6357  1.3649
10683TIP3    H253541   0.226   4.752   4.374 -0.5036 -0.2785  0.3111
10684TIP3   OH253542   4.317   2.940  12.809 -0.4586 -0.0808 -0.6624
10684TIP3    H153543   4.352   2.903  12.890 -1.7245  0.8895  0.3590
10684TIP3    H253544   4.227   2.906  12.805 -1.7834  3.0301  0.4806
10685TIP3   OH253545   2.804   4.760  15.473  0.7778  0.2262 -0.1109
10685TIP3    H153546   2.874   4.713  15.517  2.3445  1.0040 -1.7320
10685TIP3    H253547   2.845   4.800  15.397 -1.4912  0.4527 -1.2716
10686TIP3   OH253548   6.027   1.051  16.157 -0.0923 -0.1834 -0.0343
10686TIP3    H153549   6.099   1.111  16.134 -0.5739  1.4786  2.4812
10686TIP3    H253550   6.065   0.995  16.225 -0.8445  0.0429  0.5805
10687TIP3   OH253551   3.112   4.754   1.979  0.2381  0.3697  0.8567
10687TIP3    H153552   3.040   4.704   2.017  0.0652 -1.1000 -1.3144
10687TIP3    H253553   3.072   4.834   1.947 -0.3321 -0.1466  0.2578
10688TIP3   OH253554   3.805   3.005   3.182  0.0549 -0.2533 -0.1368
10688TIP3    H153555   3.711   2.995   3.165  0.5515 -3.8947 -1.0505
10688TIP3    H253556   3.844   3.009   3.094  0.7685  1.3225  0.2413
10689TIP3   OH253557   2.693   4.009  10.853 -0.1480  0.4376 -0.0941
10689TIP3    H153558   2.603   4.027  10.824 -0.2671  0.1489  0.0926
10689TIP3    H253559   2.746   4.016  10.774 -0.4988 -0.5693 -0.4259
10690TIP3   OH253560   0.207   4.826   0.331  0.4273 -0.5617 -0.0553
10690TIP3    H153561   0.247   4.913   0.324 -1.2334  0.5974  3.4624
10690TIP3    H253562   0.129   4.830   0.277  0.6985 -0.0782 -0.4114
10691TIP3   OH253563   1.236   2.840  16.987  0.3777  0.2322 -0.6035
10691TIP3    H153564   1.248   2.933  17.005 -1.2527  0.1348  1.0852
10691TIP3    H253565   1.142   2.826  16.992  0.4748 -1.2369 -2.3042
10692TIP3   OH253566   0.460   6.488  13.633  0.0832  0.4501  0.5310
10692TIP3    H153567   0.541   6.538  13.643  1.4929 -1.1030 -2.2316
10692TIP3    H253568   0.394   6.552  13.608  1.0171  1.4039  0.4889
10693TIP3   OH253569   3.214   3.316  14.432 -0.0926 -0.0717  0.1588
10693TIP3    H153570   3.128   3.298  14.471 -0.4860  0.0410 -0.6358
10693TIP3    H253571   3.259   3.231  14.434 -1.2629 -0.7965 -1.9211
10694TIP3   OH253572   0.330   3.891   4.708  0.1531 -0.0881 -0.2888
10694TIP3    H153573   0.410   3.900   4.759  1.7665  1.4079 -3.0080
10694TIP3    H253574   0.331   3.801   4.676 -0.5618 -0.8468  1.7173
10695TIP3   OH253575   4.092   0.879  15.640 -0.0790  0.0587  0.2521
10695TIP3    H153576   4.169   0.927  15.611  1.0755 -0.8408  1.7207
10695TIP3    H253577   4.114   0.851  15.729 -2.5936  0.8337  1.1336
10696TIP3   OH253578   0.362   5.507  12.714  0.3951  0.1074  0.2812
10696TIP3    H153579   0.344   5.594  12.679 -0.6584 -0.4874 -0.6933
10696TIP3    H253580   0.353   5.448  12.639  0.9327 -0.8591  0.9590
10697TIP3   OH253581   2.971   1.142   3.807  0.2015  0.8637 -0.1940
10697TIP3    H153582   3.020   1.170   3.730  0.5037 -1.6399 -0.9625
10697TIP3    H253583   2.920   1.067   3.777  1.9505 -1.5382  2.5481
10698TIP3   OH253584   5.682   3.759   0.396 -0.2123  0.5130 -0.1480
10698TIP3    H153585   5.630   3.679   0.395  2.9356 -1.6282 -2.9193
10698TIP3    H253586   5.633   3.821   0.341 -1.9251 -0.0016  0.7865
10699TIP3   OH253587   0.266   0.765   0.266  0.3058  0.2246 -0.5351
10699TIP3    H153588   0.210   0.783   0.190  2.2152 -2.2928 -2.6560
10699TIP3    H253589   0.211   0.716   0.326 -0.5769  0.1821 -1.3658
10700TIP3   OH253590   3.968   3.379  15.286  0.1157 -0.4542  0.5074
10700TIP3    H153591   3.921   3.311  15.335 -0.2162  1.3291  2.7093
10700TIP3    H253592   3.956   3.459  15.337  0.8866  1.2047 -1.8097
10701TIP3   OH253593   2.037   4.969  14.767  0.5375  0.2130  0.0425
10701TIP3    H153594   1.975   5.040  14.750  0.1940 -0.2555 -0.6759
10701TIP3    H253595   1.986   4.890  14.756  1.3152 -0.1875 -0.7745
10702TIP3   OH253596   6.689   4.321   0.361 -0.3969  0.3781  0.5592
10702TIP3    H153597   6.734   4.403   0.343  2.9515 -0.9067  2.4601
10702TIP3    H253598   6.687   4.275   0.277  1.2160  0.8022  0.2739
10703TIP3   OH253599   4.850   3.263   3.037 -0.6918  0.1172 -0.2511
10703TIP3    H153600   4.879   3.320   2.966 -1.4489  0.3591 -0.3641
10703TIP3    H253601   4.889   3.178   3.016  0.2804  0.5393 -0.1815
10704TIP3   OH253602   3.921   0.360  17.113  0.3889  0.0723 -0.2132
10704TIP3    H153603   3.980   0.339  17.185  0.2878 -0.2231 -0.2149
10704TIP3    H253604   3.967   0.427  17.063  0.5063  0.1986  0.0656
10705TIP3   OH253605   6.356   3.566   2.813  0.0896  0.2960 -1.0239
10705TIP3    H153606   6.423   3.549   2.747  1.6128  0.5840  0.4355
10705TIP3    H253607   6.343   3.482   2.856  0.3484  0.5046 -0.5364
10706TIP3   OH253608   5.891   1.301   6.116 -0.0555  0.0235 -0.5579
10706TIP3    H153609   5.942   1.298   6.197 -0.0762  1.4074 -0.4800
10706TIP3    H253610   5.895   1.212   6.081 -0.0105 -0.5800  0.9439
10707TIP3   OH253611   0.242   4.740   5.432  0.5531 -0.0170 -0.1292
10707TIP3    H153612   0.183   4.706   5.364  2.5951 -1.4318 -1.2609
10707TIP3    H253613   0.270   4.663   5.481 -2.5219  1.1958  3.7934
10708TIP3   OH253614   5.192   3.808   1.808  0.2499  0.2538  0.4875
10708TIP3    H153615   5.153   3.893   1.828  1.9482  1.1971 -0.0968
10708TIP3    H253616   5.206   3.767   1.893  2.2833  1.8822  0.9678
10709TIP3   OH253617   4.923   4.307  16.935  0.3342 -0.0982 -0.1875
10709TIP3    H153618   4.923   4.345  16.847  1.8573 -0.0882 -0.1829
10709TIP3    H253619   5.014   4.313  16.964 -0.4780  1.6979  2.1742
10710TIP3   OH253620   1.566   6.325  12.639 -0.1767 -0.7413 -0.0800
10710TIP3    H153621   1.526   6.411  12.627 -0.0555 -0.8100 -0.9907
10710TIP3    H253622   1.647   6.343  12.687 -0.7172 -0.4786  0.7498
10711TIP3   OH253623   0.901   3.544  11.609 -0.6322  0.2600  0.3181
10711TIP3    H153624   0.856   3.602  11.548 -2.7567 -0.9089  0.7068
10711TIP3    H253625   0.893   3.587  11.694 -0.7487  0.2107  0.3322
10712TIP3   OH253626   5.863   5.357  15.469  0.5526 -0.3688  0.1059
10712TIP3    H153627   5.865   5.368  15.564  1.3611  1.0799 -0.0584
10712TIP3    H253628   5.815   5.433  15.438 -0.6598 -1.4010 -0.5897
10713TIP3   OH253629   1.380   2.132   2.121 -0.3027 -0.6324 -0.3707
10713TIP3    H153630   1.462   2.166   2.156 -0.1754  1.0862 -2.2274
10713TIP3    H253631   1.313   2.189   2.159 -0.2948  0.2478 -1.6427
10714TIP3   OH253632   6.193   5.414  16.419  0.0366 -0.0341 -0.5002
10714TIP3    H153633   6.114   5.382  16.374 -1.5078  1.5480  1.0129
10714TIP3    H253634   6.169   5.501  16.449  2.1553  0.1926  0.5825
10715TIP3   OH253635   0.980   6.799  13.812  0.1681 -0.2440  0.0440
10715TIP3    H153636   1.052   6.756  13.859  1.0462  1.2752  0.1066
10715TIP3    H253637   1.016   6.818  13.726 -1.0323 -1.8666 -0.8546
10716TIP3   OH253638   3.215   6.349   0.842 -0.2769 -0.0693 -0.1052
10716TIP3    H153639   3.166   6.316   0.917 -1.7313  0.7508 -0.6754
10716TIP3    H253640   3.219   6.274   0.782  1.5109 -0.9513  1.0449
10717TIP3   OH253641   4.192   3.679  17.220 -0.0422 -0.1006 -0.2648
10717TIP3    H153642   4.147   3.700  17.139 -0.2759  0.7756  0.0795
10717TIP3    H253643   4.171   3.588  17.237 -1.9491  0.3806  0.0663
10718TIP3   OH253644   0.168   4.052  14.747 -0.4961  0.1181 -0.3422
10718TIP3    H153645   0.226   4.036  14.672  0.1742 -1.5540  0.5065
10718TIP3    H253646   0.141   4.143  14.737  1.1019  0.4879 -1.5706
10719TIP3   OH253647   5.640   6.258   2.351 -0.2085 -0.0340  0.3377
10719TIP3    H153648   5.548   6.266   2.374 -0.1839  1.4721 -0.0329
10719TIP3    H253649   5.649   6.308   2.270  1.0763  0.4766  0.7794
10720TIP3   OH253650   4.697   4.953  13.369 -0.4779 -0.5825  0.0691
10720TIP3    H153651   4.788   4.980  13.379 -0.3009 -0.8022 -0.8798
10720TIP3    H253652   4.699   4.887  13.300 -1.8466  2.1530 -2.6922
10721TIP3   OH253653   0.935   3.175   2.068  0.7579  0.6472 -0.0340
10721TIP3    H153654   1.030   3.163   2.062  0.7531  0.7652 -0.4025
10721TIP3    H253655   0.921   3.213   2.154  0.9025 -0.7109  0.5905
10722TIP3   OH253656   0.889   4.942  16.268 -0.4322  0.4131  0.2050
10722TIP3    H153657   0.941   5.018  16.244 -2.5447  2.3211  1.4399
10722TIP3    H253658   0.921   4.917  16.354 -2.0899  2.1527  1.3693
10723TIP3   OH253659   2.912   0.805  15.564  0.0687  0.3497 -0.0386
10723TIP3    H153660   2.984   0.749  15.536  0.2239  0.1040  0.8350
10723TIP3    H253661   2.834   0.767  15.524  0.4652  0.8346 -1.2927
10724TIP3   OH253662   1.030   5.626   0.729 -0.0287 -0.4331 -0.1221
10724TIP3    H153663   1.088   5.696   0.696 -0.4321 -0.5261 -1.0574
10724TIP3    H253664   1.089   5.564   0.771  0.2567  0.8634  1.4342
10725TIP3   OH253665   5.496   0.095   3.659 -0.7390 -0.2914 -0.1601
10725TIP3    H153666   5.439   0.089   3.736  1.2828  0.2921  1.4187
10725TIP3    H253667   5.537   0.181   3.667  2.0174 -1.5550 -0.0455
10726TIP3   OH253668   1.355   4.213   4.256 -0.5136  0.4646  0.2248
10726TIP3    H153669   1.433   4.259   4.287  0.4592 -0.3718 -0.9636
10726TIP3    H253670   1.288   4.282   4.251  1.7186  2.5583 -4.5124
10727TIP3   OH253671   0.565   0.916  10.848  0.3647  0.4166 -0.1233
10727TIP3    H153672   0.479   0.955  10.834 -0.5617 -1.5673 -0.2553
10727TIP3    H253673   0.600   0.902  10.760  1.2811  2.1835 -0.0427
10728TIP3   OH253674   4.437   1.767  10.742  0.4417 -0.1665  0.6833
10728TIP3    H153675   4.437   1.862  10.734  2.2246  0.0780  3.0262
10728TIP3    H253676   4.345   1.745  10.759 -0.0741  1.0589 -0.4148
10729TIP3   OH253677   2.377   2.807  12.488  0.0958  0.0069  0.1719
10729TIP3    H153678   2.469   2.780  12.480  0.4879  1.2524  0.4917
10729TIP3    H253679   2.380   2.899  12.511 -1.2449  0.0182  0.3628
10730TIP3   OH253680   3.254   5.626  12.166  0.4415  0.6015  0.3954
10730TIP3    H153681   3.161   5.613  12.188 -0.2729  2.4698 -1.3292
10730TIP3    H253682   3.302   5.580  12.235 -1.7837 -1.6896  0.4902
10731TIP3   OH253683   6.251   3.252  14.429  0.4618 -0.1392 -0.5274
10731TIP3    H153684   6.211   3.334  14.397  0.3314  0.5516  1.3267
10731TIP3    H253685   6.306   3.222  14.357  0.3418  1.4766 -1.3119
10732TIP3   OH253686   0.116   6.453  16.182 -0.2860  0.5750 -0.3926
10732TIP3    H153687   0.037   6.501  16.158 -0.5282  1.5046  2.1709
10732TIP3    H253688   0.174   6.518  16.221  1.0454 -0.4339 -0.6350
10733TIP3   OH253689   6.384   2.741   2.138 -0.2082  0.5676 -0.1767
10733TIP3    H153690   6.428   2.825   2.122  1.6877 -0.5383 -0.8966
10733TIP3    H253691   6.327   2.729   2.063 -2.4016  2.3741  1.1185
10734TIP3   OH253692   1.967   0.955  11.492  0.0232 -0.0410  0.0273
10734TIP3    H153693   1.903   1.025  11.504 -0.3264 -0.3434 -0.0659
10734TIP3    H253694   2.041   0.997  11.448 -0.9290 -0.1190 -1.6672
10735TIP3   OH253695   4.871   5.665   0.294  0.7396 -0.0935 -0.4223
10735TIP3    H153696   4.909   5.753   0.290  0.5931 -0.0693 -1.4911
10735TIP3    H253697   4.813   5.660   0.219 -0.6080 -0.4994  0.6284
10736TIP3   OH253698   4.957   2.520  11.121 -0.4359 -0.4279  0.2570
10736TIP3    H153699   4.863   2.511  11.139 -0.5379 -0.7544 -0.4043
10736TIP3    H253700   4.999   2.464  11.187 -0.7100 -0.3800  0.4735
10737TIP3   OH253701   1.170   1.976   2.849  0.0251 -0.3292  0.1657
10737TIP3    H153702   1.236   1.953   2.915 -1.6005  1.0797  2.3876
10737TIP3    H253703   1.096   1.918   2.868 -0.8980  0.8875  0.3531
10738TIP3   OH253704   3.237   2.622  15.740 -0.1935  0.3282  0.8998
10738TIP3    H153705   3.308   2.634  15.803  0.7297  0.1823 -0.0926
10738TIP3    H253706   3.227   2.528  15.732 -0.2067  0.3462  0.7050
10739TIP3   OH253707   4.499   0.786   4.901 -0.2466 -0.3893  0.2558
10739TIP3    H153708   4.435   0.849   4.935  0.0423 -0.3178  0.6699
10739TIP3    H253709   4.449   0.705   4.892 -0.4873 -0.2404  0.2323
10740TIP3   OH253710   1.301   2.963   2.838  0.4414 -0.1315  0.6235
10740TIP3    H153711   1.251   2.986   2.760 -0.6892 -1.3082  0.9763
10740TIP3    H253712   1.392   2.959   2.808  0.2647  1.3811 -0.1768
10741TIP3   OH253713   5.833   0.661  12.811 -0.2978 -0.2167  0.0579
10741TIP3    H153714   5.842   0.729  12.743  0.6153  1.4881  1.8383
10741TIP3    H253715   5.916   0.615  12.810  0.1052  0.4809  0.6992
10742TIP3   OH253716   4.491   5.150  12.559  0.0722  0.0425  0.2943
10742TIP3    H153717   4.472   5.215  12.492 -1.7867  0.8999  1.6103
10742TIP3    H253718   4.503   5.068  12.511  1.3139  1.1208 -1.2867
10743TIP3   OH253719   5.730   2.261  11.742 -0.3422 -0.9212 -0.5500
10743TIP3    H153720   5.819   2.269  11.710 -0.4690  0.7662 -0.4916
10743TIP3    H253721   5.738   2.211  11.824  0.5467 -0.6883 -0.4971
10744TIP3   OH253722   5.146   3.533  11.270 -0.0386  0.6472  0.7623
10744TIP3    H153723   5.090   3.497  11.201  1.1781 -2.4935  1.2802
10744TIP3    H253724   5.094   3.526  11.349 -0.0022  0.4714  0.7733
10745TIP3   OH253725   2.891   6.185   0.523 -0.1727 -0.6477  0.0465
10745TIP3    H153726   2.937   6.263   0.554  0.4174 -1.2682  0.7184
10745TIP3    H253727   2.935   6.163   0.441 -2.0259  1.2545 -1.5185
10746TIP3   OH253728   0.668   5.096  11.206  0.9025  0.1914  0.5700
10746TIP3    H153729   0.760   5.074  11.225  0.8658  0.0615  0.5957
10746TIP3    H253730   0.623   5.012  11.205  0.8547  0.2185  0.1673
10747TIP3   OH253731   1.954   6.431   2.284 -0.1269  0.0754 -0.4039
10747TIP3    H153732   1.968   6.461   2.194  0.5230  0.2169 -0.2576
10747TIP3    H253733   1.863   6.400   2.285 -0.0949 -0.0522 -1.1432
10748TIP3   OH253734   1.596   5.436  15.014 -0.3187  0.1276  0.6447
10748TIP3    H153735   1.687   5.458  15.031 -0.0780  0.2574 -0.7080
10748TIP3    H253736   1.599   5.374  14.941 -1.3008  0.0682  0.6385
10749TIP3   OH253737   4.698   5.416   4.158  0.3154 -0.2840  0.2658
10749TIP3    H153738   4.603   5.404   4.163  0.0383  1.7403  0.2357
10749TIP3    H253739   4.719   5.413   4.065  0.3202 -0.8408  0.2776
10750TIP3   OH253740   1.569   4.419   5.658 -0.3011 -0.1602  0.6596
10750TIP3    H153741   1.640   4.452   5.712 -0.7035  1.3294  0.2901
10750TIP3    H253742   1.512   4.372   5.720 -0.0098  0.3037  1.2840
10751TIP3   OH253743   6.510   2.497   1.921 -0.0485  0.6812  0.5150
10751TIP3    H153744   6.555   2.491   1.837 -0.3541  0.5820  0.3583
10751TIP3    H253745   6.579   2.483   1.986  0.2078  0.8779  0.2854
10752TIP3   OH253746   6.714   6.223   3.581 -0.1652  0.3373 -0.3981
10752TIP3    H153747   6.698   6.308   3.541  1.8064  0.8303 -0.1464
10752TIP3    H253748   6.680   6.231   3.670  3.7685  2.2845  1.0438
10753TIP3   OH253749   2.124   1.628  16.136  0.3291  0.1603 -0.0341
10753TIP3    H153750   2.047   1.622  16.079 -0.0515  1.8167  0.2710
10753TIP3    H253751   2.110   1.709  16.185  1.7428 -0.1053  0.8142
10754TIP3   OH253752   4.486   6.805  16.749  0.0731 -0.1433  0.1965
10754TIP3    H153753   4.556   6.864  16.778  0.0854 -0.2812  0.4489
10754TIP3    H253754   4.427   6.799  16.824 -0.1557 -0.1083  0.0197
10755TIP3   OH253755   0.739   3.687   0.406 -0.3461  0.2108  0.2879
10755TIP3    H153756   0.780   3.737   0.476  0.2878  0.2548 -0.1126
10755TIP3    H253757   0.800   3.694   0.333  0.1271 -1.7851  0.4733
10756TIP3   OH253758   2.093   4.432   3.309  0.6428 -0.2712  0.0873
10756TIP3    H153759   2.156   4.426   3.238  1.3107  0.2547  0.6251
10756TIP3    H253760   2.011   4.459   3.267  0.8063 -0.8516 -0.5945
10757TIP3   OH253761   6.273   2.296   1.049 -0.0624  0.2428 -0.1715
10757TIP3    H153762   6.182   2.284   1.078 -0.1667 -0.9489 -0.9380
10757TIP3    H253763   6.265   2.320   0.957  0.4320 -1.1223 -0.5827
10758TIP3   OH253764   5.228   0.411   0.766  0.3931  0.3014 -0.2324
10758TIP3    H153765   5.271   0.464   0.833 -0.9977  1.2638 -0.0826
10758TIP3    H253766   5.147   0.380   0.807 -0.5347  1.0057 -1.4818
10759TIP3   OH253767   1.660   1.090  13.568  0.1539  0.5843 -0.3791
10759TIP3    H153768   1.618   1.131  13.644  2.2483  0.1988  1.0106
10759TIP3    H253769   1.606   1.013  13.550 -0.7398  1.0408  0.3117
10760TIP3   OH253770   6.222   6.301  15.221 -0.3711 -0.5567  1.2015
10760TIP3    H153771   6.188   6.338  15.303 -1.3443 -2.9996  1.9464
10760TIP3    H253772   6.306   6.264  15.246  0.1873  0.3380  0.6602
10761TIP3   OH253773   1.967   3.913  16.604 -0.4543  0.3916  0.2031
10761TIP3    H153774   1.899   3.864  16.649  0.1872 -0.5741  0.1467
10761TIP3    H253775   1.945   3.905  16.511 -1.1274  1.4046  0.2621
10762TIP3   OH253776   0.309   1.600  17.048 -0.0183  0.2201  0.0845
10762TIP3    H153777   0.299   1.598  16.953  1.5154 -0.4360 -0.0829
10762TIP3    H253778   0.322   1.692  17.069  2.2157  0.1016 -0.6527
10763TIP3   OH253779   4.536   0.502   4.181  0.5819  0.2942  0.4392
10763TIP3    H153780   4.472   0.437   4.210  0.0809  0.3029 -0.6157
10763TIP3    H253781   4.588   0.455   4.115 -0.4180  1.2440 -1.0599
10764TIP3   OH253782   1.898   1.020   0.340  0.5841 -0.1632  0.1229
10764TIP3    H153783   1.855   0.982   0.263  0.2206  1.5145 -0.5336
10764TIP3    H253784   1.984   1.048   0.307 -0.0537  1.6934  0.0024
10765TIP3   OH253785   3.723   5.031  15.890  0.2376 -0.5538 -0.0347
10765TIP3    H153786   3.639   5.073  15.905  0.0758 -0.1365 -1.9826
10765TIP3    H253787   3.783   5.103  15.872  0.1861 -1.0246 -2.3310
10766TIP3   OH253788   2.135   4.317  15.211  0.2810 -0.6494  0.2936
10766TIP3    H153789   2.080   4.294  15.136  0.7728 -2.2372  0.3973
10766TIP3    H253790   2.074   4.334  15.282 -0.1391 -0.5455 -0.0965
10767TIP3   OH253791   2.469   2.665  14.579 -0.2295 -0.6560 -0.2062
10767TIP3    H153792   2.533   2.669  14.508  1.2173 -1.0659  1.0277
10767TIP3    H253793   2.462   2.755  14.610 -0.8519 -0.4799 -0.8731
10768TIP3   OH253794   0.535   0.072   1.042  0.2173 -0.2370 -0.0134
10768TIP3    H153795   0.471   0.094   0.974 -0.8098 -0.7088  0.8002
10768TIP3    H253796   0.483   0.053   1.120  1.2395 -2.4250  0.1716
10769TIP3   OH253797   1.763   0.997  15.389 -0.1394  0.0041  0.1317
10769TIP3    H153798   1.827   1.066  15.375  0.3407 -0.5879 -0.6557
10769TIP3    H253799   1.699   1.010  15.319 -0.5848  0.2679  0.5920
10770TIP3   OH253800   6.788   3.454  16.063  0.4850 -0.1909  0.7467
10770TIP3    H153801   6.875   3.468  16.101  1.4396  0.5179 -1.5937
10770TIP3    H253802   6.739   3.533  16.084  1.9203  1.4569 -1.8601
10771TIP3   OH253803   2.625   4.260  11.957  0.3091  0.3497 -0.0549
10771TIP3    H153804   2.684   4.317  11.909 -0.1949  0.0523 -1.0300
10771TIP3    H253805   2.556   4.238  11.895 -1.1944  1.2085  1.2694
10772TIP3   OH253806   2.829   2.097  15.057  0.5525  0.0418 -0.1799
10772TIP3    H153807   2.903   2.157  15.062  0.1191  0.5550  0.1733
10772TIP3    H253808   2.815   2.083  14.963  0.6972  0.4496 -0.2623
10773TIP3   OH253809   0.333   4.955   5.608 -0.3203 -0.2030 -0.2163
10773TIP3    H153810   0.316   4.870   5.567  2.3788 -1.2621  0.7505
10773TIP3    H253811   0.415   4.943   5.655 -0.7130  2.5005  1.2607
10774TIP3   OH253812   0.011   6.265   6.281  0.5505  0.2008 -0.1674
10774TIP3    H153813  -0.009   6.171   6.287  1.0720 -0.0784 -2.4593
10774TIP3    H253814   0.024   6.292   6.372 -0.0430 -1.8550  0.5565
10775TIP3   OH253815   0.336   5.633  17.116  0.1462  0.5156  0.5176
10775TIP3    H153816   0.285   5.586  17.182  0.6996 -2.0422 -0.8481
10775TIP3    H253817   0.420   5.649  17.158  0.5421 -1.2151  0.4056
10776TIP3   OH253818   4.523   5.693  13.021 -0.7002 -0.2498 -0.4261
10776TIP3    H153819   4.472   5.613  13.030 -0.5372 -0.2769  0.2733
10776TIP3    H253820   4.538   5.701  12.927 -0.9640 -0.8855 -0.5280
10777TIP3   OH253821   2.831   4.670  10.515  0.5231  0.0918  0.4221
10777TIP3    H153822   2.826   4.736  10.446  2.6578 -0.2104 -0.0516
10777TIP3    H253823   2.833   4.586  10.469 -1.3094 -0.2902  0.9902
10778TIP3   OH253824   5.404   6.382  13.564  0.2552 -0.5065  0.1067
10778TIP3    H153825   5.383   6.294  13.596  2.4671 -0.7035  1.0394
10778TIP3    H253826   5.483   6.407  13.611  0.6874  1.2512 -1.4963
10779TIP3   OH253827   5.994   6.719   0.318 -0.1860 -0.3013 -0.4443
10779TIP3    H153828   6.013   6.791   0.379 -0.4243 -1.2237  0.7436
10779TIP3    H253829   5.910   6.685   0.348  0.2226 -1.4723 -0.6057
10780TIP3   OH253830   4.306   1.249  14.971  0.3645 -0.5152  0.5157
10780TIP3    H153831   4.284   1.196  14.894  0.6110  0.9516 -0.5860
10780TIP3    H253832   4.236   1.314  14.976  0.5592 -0.3695  1.3120
10781TIP3   OH253833   2.691   2.769  15.932 -0.0393  0.0792 -0.3703
10781TIP3    H153834   2.751   2.766  16.006  1.4810  0.0711 -1.5819
10781TIP3    H253835   2.719   2.846  15.881  1.1717 -1.8629 -2.7655
10782TIP3   OH253836   0.344   3.772   1.184  0.0346 -0.1004 -0.1590
10782TIP3    H153837   0.305   3.848   1.226  3.9721  2.9006 -1.6371
10782TIP3    H253838   0.373   3.716   1.257  0.2867  1.5345  1.0175
10783TIP3   OH253839   5.538   3.441  14.597  0.1126  0.5448 -0.1960
10783TIP3    H153840   5.626   3.477  14.608  0.3661 -0.2592  0.4652
10783TIP3    H253841   5.483   3.491  14.657  0.3121  0.3784  0.1270
10784TIP3   OH253842   2.039   4.968  12.317  0.1117 -0.4348  0.0680
10784TIP3    H153843   1.976   5.037  12.337 -0.6878 -1.6564  1.8434
10784TIP3    H253844   2.002   4.889  12.356  1.6256 -1.6327 -0.8577
10785TIP3   OH253845   6.615   1.381   1.024 -0.4685  0.0816 -0.6942
10785TIP3    H153846   6.674   1.336   1.085 -1.7167 -0.8427 -0.1464
10785TIP3    H253847   6.591   1.314   0.961 -0.0293  0.7639 -1.6066
10786TIP3   OH253848   5.042   3.743   6.049  0.3522  0.3979  0.3378
10786TIP3    H153849   5.034   3.754   6.144  1.0497  0.0158  0.4443
10786TIP3    H253850   5.027   3.649   6.035  2.8279 -0.0244  0.3605
10787TIP3   OH253851   2.990   4.585  16.318 -0.1951 -0.4563  0.0435
10787TIP3    H153852   2.920   4.614  16.377 -1.4576 -1.1154 -1.1226
10787TIP3    H253853   2.987   4.646  16.245  0.5599 -0.4001  0.0543
10788TIP3   OH253854   6.045   5.422   2.578  0.1674 -0.3114  0.0291
10788TIP3    H153855   6.117   5.471   2.619  0.7182  0.0509 -1.3439
10788TIP3    H253856   6.042   5.455   2.489 -2.0051 -0.0336  0.1933
10789TIP3   OH253857   0.174   4.842   2.588  0.6103 -0.0615  0.4303
10789TIP3    H153858   0.237   4.781   2.549  1.1935  0.8266 -0.0423
10789TIP3    H253859   0.225   4.921   2.605  0.3834 -0.4435  3.0644
10790TIP3   OH253860   3.729   2.194   5.302  0.4381  0.2371  0.1240
10790TIP3    H153861   3.768   2.196   5.389 -0.9129 -1.0476  0.7730
10790TIP3    H253862   3.786   2.136   5.251  1.3080  1.0993  0.0818
10791TIP3   OH253863   3.921   5.594   0.653 -0.2069 -0.4711  0.3169
10791TIP3    H153864   3.944   5.686   0.648 -0.5764 -0.4862 -2.3454
10791TIP3    H253865   3.826   5.592   0.647 -0.1332 -1.0707 -0.8289
10792TIP3   OH253866   1.256   6.515  12.983  0.3594  0.0314  0.6515
10792TIP3    H153867   1.167   6.547  12.969  1.1539  2.2287  0.4996
10792TIP3    H253868   1.253   6.424  12.953 -2.0078 -0.1574  1.3276
10793TIP3   OH253869   3.693   2.120  12.982 -0.2218 -0.4058 -0.2673
10793TIP3    H153870   3.626   2.155  12.924 -0.6931  1.1199  1.1685
10793TIP3    H253871   3.645   2.072  13.049  0.1459  0.1933  0.4340
10794TIP3   OH253872   6.388   4.623  16.051 -0.7010 -0.2700 -0.1728
10794TIP3    H153873   6.445   4.687  16.093 -0.7509 -0.5551  0.3236
10794TIP3    H253874   6.304   4.669  16.040  0.0752  0.7333 -2.4166
10795TIP3   OH253875   1.875   4.831  11.942 -0.2398 -0.5129  0.6994
10795TIP3    H153876   1.916   4.886  11.875 -0.9773  0.4546  1.0167
10795TIP3    H253877   1.936   4.759  11.956  0.4203 -0.1392 -0.2363
10796TIP3   OH253878   0.424   3.107  14.660 -0.0497 -0.4031  0.3154
10796TIP3    H153879   0.382   3.192  14.650 -0.7567 -0.6993  0.7024
10796TIP3    H253880   0.430   3.072  14.571  1.8156  0.7800 -0.0533
10797TIP3   OH253881   6.034   1.037  15.080  0.4050 -0.1741  0.5727
10797TIP3    H153882   5.951   1.078  15.057 -0.3492 -0.3911  2.7496
10797TIP3    H253883   6.088   1.109  15.113  1.3273  0.0748 -1.4566
10798TIP3   OH253884   0.490   5.382  11.955  0.0420 -0.6592  0.6372
10798TIP3    H153885   0.502   5.455  11.893 -0.4577 -1.2116 -0.1188
10798TIP3    H253886   0.403   5.396  11.991  0.2509 -0.4563  1.0677
10799TIP3   OH253887   4.026   0.479  16.394  0.9127  0.1133 -0.3390
10799TIP3    H153888   4.051   0.428  16.471  3.7556  0.4191 -0.9946
10799TIP3    H253889   4.012   0.413  16.325 -0.6344 -0.0947  0.1632
10800TIP3   OH253890   1.856   3.701   5.002 -0.0231  0.1958 -0.4916
10800TIP3    H153891   1.884   3.786   4.969  0.3657  0.0127 -0.6342
10800TIP3    H253892   1.810   3.722   5.084  1.3836  0.4199  0.2448
10801TIP3   OH253893   6.027   3.710  11.438 -0.5573  0.6596 -0.2976
10801TIP3    H153894   6.041   3.788  11.383  1.2144  0.8483  0.3929
10801TIP3    H253895   6.045   3.740  11.527 -1.7829 -0.0699  0.2074
10802TIP3   OH253896   4.236   0.283   3.376  0.2002  0.2755 -0.1244
10802TIP3    H153897   4.322   0.322   3.394  0.1790  0.3956 -0.2849
10802TIP3    H253898   4.243   0.194   3.410  1.0241 -0.3313 -1.8143
10803TIP3   OH253899   5.110   2.361   3.460  0.3415 -0.1740  0.0821
10803TIP3    H153900   5.045   2.350   3.529  0.2776 -1.2468 -0.1307
10803TIP3    H253901   5.104   2.280   3.409 -0.2687  0.9997 -1.7507
10804TIP3   OH253902   1.407   5.970  16.442 -0.4577  0.4221  0.0676
10804TIP3    H153903   1.413   5.891  16.388 -1.7566  1.3609 -1.4596
10804TIP3    H253904   1.497   5.984  16.473  0.3617  0.0023 -2.0210
10805TIP3   OH253905   3.188   4.139   5.140  0.3926 -0.7494 -0.2556
10805TIP3    H153906   3.180   4.221   5.189 -1.2870 -0.1055 -1.5371
10805TIP3    H253907   3.252   4.087   5.189 -1.4602 -0.2826  2.7743
10806TIP3   OH253908   3.625   0.428  14.213 -0.2610  0.3647 -0.3067
10806TIP3    H153909   3.595   0.362  14.151 -0.6026  0.5817 -0.3722
10806TIP3    H253910   3.638   0.379  14.295 -0.3869  0.1919 -0.3890
10807TIP3   OH253911   2.000   6.682   4.929  0.5250 -0.1438 -0.0484
10807TIP3    H153912   2.025   6.666   5.020 -1.3258 -0.3989  0.4240
10807TIP3    H253913   1.905   6.673   4.928  0.2564  2.4188 -1.4728
10808TIP3   OH253914   3.844   4.942  16.394  0.1063  0.8799  0.6105
10808TIP3    H153915   3.848   5.012  16.459  2.9454  2.8591 -1.5825
10808TIP3    H253916   3.822   4.986  16.312  2.6629 -0.6404 -0.9568
10809TIP3   OH253917   0.322   6.636   3.899 -0.0532 -0.1647 -0.1278
10809TIP3    H153918   0.342   6.549   3.863 -0.7725  0.3988 -1.9271
10809TIP3    H253919   0.252   6.620   3.962 -1.3061 -0.6753 -1.6359
10810TIP3   OH253920   1.804   2.608   1.535 -0.2066  0.0577  0.2263
10810TIP3    H153921   1.811   2.547   1.462  0.4488  0.7977 -0.3392
10810TIP3    H253922   1.893   2.643   1.547 -0.7410  1.5938 -0.0776
10811TIP3   OH253923   4.272   2.318  12.134 -0.0504 -0.2138 -0.5147
10811TIP3    H153924   4.231   2.405  12.131 -0.0506 -0.2673 -2.4473
10811TIP3    H253925   4.345   2.323  12.073  1.3433 -0.9014  1.0522
10812TIP3   OH253926   2.450   6.623   1.543 -0.0479  0.4074 -0.0094
10812TIP3    H153927   2.531   6.572   1.545 -0.3178 -0.0630 -0.8996
10812TIP3    H253928   2.478   6.714   1.552  0.5503  0.2213  0.0102
10813TIP3   OH253929   4.654   4.839   5.033 -0.0301  0.2476  0.4634
10813TIP3    H153930   4.674   4.789   4.954 -1.1977 -1.0370  0.9684
10813TIP3    H253931   4.726   4.818   5.093 -0.2052 -0.3601  0.4618
10814TIP3   OH253932   0.163   1.530  14.540  0.4712 -0.0841 -0.1800
10814TIP3    H153933   0.085   1.532  14.596  0.8280  0.4168  0.3134
10814TIP3    H253934   0.144   1.591  14.469 -0.8396 -2.3362 -1.7775
10815TIP3   OH253935   5.518   1.343  16.802  0.0314  0.0145 -0.1504
10815TIP3    H153936   5.548   1.252  16.802  1.5013  0.4844 -0.2220
10815TIP3    H253937   5.426   1.338  16.778  0.2035 -1.4268 -0.5530
10816TIP3   OH253938   1.848   3.083  13.383 -0.2475 -0.1827 -0.1872
10816TIP3    H153939   1.895   3.000  13.380 -1.2567 -0.8356  1.3701
10816TIP3    H253940   1.916   3.150  13.390  0.5037 -0.9655 -0.0478
10817TIP3   OH253941   2.037   6.721   1.891 -0.3691 -0.2177 -0.1388
10817TIP3    H153942   2.013   6.662   1.962  0.0914  0.6602  0.7627
10817TIP3    H253943   1.958   6.728   1.837 -0.7290 -0.8567  0.3045
10818TIP3   OH253944   1.878   2.091  16.806 -0.1098 -0.2822  0.7413
10818TIP3    H153945   1.807   2.097  16.743  0.4360  0.1750  0.1714
10818TIP3    H253946   1.868   2.004  16.845 -0.0823 -0.8150 -0.4127
10819TIP3   OH253947   3.860   0.197  13.312  0.3216  0.4008  0.8224
10819TIP3    H153948   3.806   0.126  13.345  1.0552 -1.2155 -1.3338
10819TIP3    H253949   3.834   0.273  13.364 -3.7924 -0.3812  0.1366
10820TIP3   OH253950   4.665   6.754  13.841  0.0880 -0.2174  0.1382
10820TIP3    H153951   4.622   6.810  13.776  0.0698  0.1162  0.4409
10820TIP3    H253952   4.629   6.667  13.824  0.2080 -0.1608 -0.4101
10821TIP3   OH253953   3.182   4.848  10.939  0.1585  0.2023 -0.1619
10821TIP3    H153954   3.260   4.828  10.991  0.6067  1.3091 -0.4060
10821TIP3    H253955   3.119   4.780  10.964  1.0891 -0.5127  0.2709
10822TIP3   OH253956   3.318   6.118   5.476  0.3165 -0.0860 -0.2522
10822TIP3    H153957   3.301   6.062   5.552  0.5783 -0.9913 -0.8585
10822TIP3    H253958   3.332   6.057   5.404 -0.5561  0.7794 -1.1675
10823TIP3   OH253959   5.217   4.505   4.411 -0.2926 -0.2277 -0.4766
10823TIP3    H153960   5.126   4.534   4.416 -0.6722 -1.6356  1.4840
10823TIP3    H253961   5.267   4.573   4.455 -0.6522 -0.3808  0.1802
10824TIP3   OH253962   0.031   4.274  13.391 -0.3428 -0.2602 -0.2270
10824TIP3    H153963   0.096   4.284  13.321 -1.0835 -1.5393 -1.1231
10824TIP3    H253964   0.041   4.183  13.419 -1.8263 -0.4897 -0.4358
10825TIP3   OH253965   3.872   1.314  17.134  0.2981  0.5829 -0.2385
10825TIP3    H153966   3.786   1.298  17.173  0.1783  2.0000  0.0874
10825TIP3    H253967   3.885   1.408  17.142  1.9279  0.3629 -0.1933
10826TIP3   OH253968   4.774   0.748   1.353  0.5424 -0.0646 -0.9222
10826TIP3    H153969   4.762   0.663   1.395 -2.8867  0.0299 -1.5945
10826TIP3    H253970   4.839   0.731   1.284 -0.6719 -2.3611 -1.5567
10827TIP3   OH253971   5.489   0.299  15.416  0.4742 -0.6672 -0.2870
10827TIP3    H153972   5.483   0.261  15.504  1.1003 -1.7568 -0.7026
10827TIP3    H253973   5.409   0.270  15.372 -0.1641  0.4357  0.1234
10828TIP3   OH253974   0.794   6.455  13.818 -0.1038  0.4071 -0.2064
10828TIP3    H153975   0.718   6.405  13.844  1.1177 -0.5054  1.7064
10828TIP3    H253976   0.784   6.539  13.863 -1.7335  1.6465 -2.7632
10829TIP3   OH253977   2.286   5.144  16.560  0.6199  0.5402  0.0427
10829TIP3    H153978   2.231   5.222  16.566 -0.2302  0.1457 -2.2222
10829TIP3    H253979   2.375   5.176  16.566  0.2780  1.6940 -0.8926
10830TIP3   OH253980   4.206   0.376   5.098 -0.0706 -0.3172  0.4978
10830TIP3    H153981   4.164   0.352   5.015  0.8160  0.2718 -0.1250
10830TIP3    H253982   4.191   0.301   5.155 -0.5194 -0.8101 -0.2588
10831TIP3   OH253983   1.098   4.744   5.240 -0.9173 -0.6782 -0.2320
10831TIP3    H153984   1.046   4.664   5.251 -0.9708 -0.6085  0.0341
10831TIP3    H253985   1.189   4.713   5.232 -0.4908 -0.5907  3.4524
10832TIP3   OH253986   3.901   5.816  12.699  0.1864 -0.6928 -0.1332
10832TIP3    H153987   3.947   5.867  12.766 -0.3716  0.5786 -0.7064
10832TIP3    H253988   3.811   5.850  12.700  0.0195 -1.0841 -1.1097
10833TIP3   OH253989   3.526   6.589   4.463 -0.3097 -0.0518  0.2680
10833TIP3    H153990   3.490   6.520   4.408 -1.8744 -0.1534  1.4042
10833TIP3    H253991   3.621   6.576   4.459 -0.3530  0.1508 -2.6711
10834TIP3   OH253992   2.746   2.189   6.336 -0.3849 -0.3542  0.2118
10834TIP3    H153993   2.830   2.219   6.373 -0.1756 -0.2771 -0.3150
10834TIP3    H253994   2.702   2.145   6.409 -0.1088  0.0603  0.6302
10835TIP3   OH253995   5.031   2.692   3.237 -0.5049 -0.3859 -0.3743
10835TIP3    H153996   5.126   2.690   3.252 -0.7193  2.4239  1.9259
10835TIP3    H253997   5.020   2.742   3.157 -0.0702  0.3305  0.0070
10836TIP3   OH253998   2.118   3.951  16.923 -0.6914 -0.4400 -0.4646
10836TIP3    H153999   2.194   4.001  16.893  0.2271 -1.6008 -0.1396
10836TIP3    H254000   2.135   3.933  17.015 -0.8321 -1.6247 -0.6536
10837TIP3   OH254001   4.970   4.682  16.457 -1.0102  0.2760  0.4707
10837TIP3    H154002   4.985   4.590  16.438 -1.1605  0.0611  1.4019
10837TIP3    H254003   4.900   4.708  16.397 -3.3333 -1.0773  2.5243
10838TIP3   OH254004   6.808   3.659   4.070 -0.3473  0.3273 -0.3255
10838TIP3    H154005   6.726   3.627   4.107  0.3977 -0.6653  0.4803
10838TIP3    H254006   6.839   3.725   4.133 -0.0442  0.0068 -0.1355
10839TIP3   OH254007   3.135   5.084  13.441 -0.3829  0.0361 -0.7693
10839TIP3    H154008   3.125   5.081  13.346 -0.4123 -1.8914 -0.7165
10839TIP3    H254009   3.217   5.131  13.455 -0.0746 -0.2004 -1.7704
10840TIP3   OH254010   4.273   3.858   3.019 -0.1636  0.0755  0.0006
10840TIP3    H154011   4.285   3.953   3.018  1.3335 -0.1012 -0.0876
10840TIP3    H254012   4.361   3.822   3.003 -0.9265 -1.3030 -1.2628
10841TIP3   OH254013   3.413   3.614  10.507 -0.2642 -0.0266 -0.0349
10841TIP3    H154014   3.484   3.550  10.501 -0.6008 -0.4269  0.2963
10841TIP3    H254015   3.354   3.579  10.573 -0.5995  0.4800 -0.0620
10842TIP3   OH254016   3.240   4.724  14.306 -0.0536 -0.1330  0.7713
10842TIP3    H154017   3.325   4.767  14.296  0.6314 -1.0522  2.4120
10842TIP3    H254018   3.179   4.795  14.326  0.9864  0.1758  3.0417
10843TIP3   OH254019   1.208   4.164  11.477  0.1514  0.1172 -0.0703
10843TIP3    H154020   1.242   4.077  11.455  1.8952  0.2935  1.8296
10843TIP3    H254021   1.285   4.218  11.491 -0.9154  1.3342  1.2711
10844TIP3   OH254022   1.909   4.996  14.008  0.1167  0.3350  0.1340
10844TIP3    H154023   1.978   4.955  14.060 -2.0337 -1.4161  1.7125
10844TIP3    H254024   1.849   4.924  13.987 -1.6161  1.9310 -0.5419
10845TIP3   OH254025   0.655   1.115  13.818  0.9105 -0.0475 -0.2455
10845TIP3    H154026   0.586   1.163  13.772 -1.2377 -1.7064  1.1646
10845TIP3    H254027   0.654   1.150  13.907  2.0877  0.0879 -0.2714
10846TIP3   OH254028   4.256   1.114   1.436 -0.6825  0.2886  0.5072
10846TIP3    H154029   4.296   1.195   1.469 -0.8761  0.7342 -0.3352
10846TIP3    H254030   4.170   1.142   1.404  0.0497  0.1305 -1.6690
10847TIP3   OH254031   4.804   1.161   2.223 -0.3508  0.2981 -0.1720
10847TIP3    H154032   4.880   1.218   2.205 -2.3867  2.6472 -1.7094
10847TIP3    H254033   4.782   1.124   2.138 -0.3228 -1.2149  0.4662
10848TIP3   OH254034   6.091   2.396   5.750  0.0041  0.1493  0.2724
10848TIP3    H154035   6.048   2.438   5.825 -1.4357 -0.8377  0.0328
10848TIP3    H254036   6.019   2.379   5.688  0.6700 -1.9308  0.0279
10849TIP3   OH254037   3.864   2.652  12.076  0.3496  0.1710 -0.1661
10849TIP3    H154038   3.769   2.646  12.084  0.3175 -0.9590 -1.2520
10849TIP3    H254039   3.879   2.721  12.012  0.3004  0.9773  0.6759
10850TIP3   OH254040   6.702   4.263   5.561  0.2852  0.1050  0.2539
10850TIP3    H154041   6.614   4.289   5.586 -0.1868 -2.3182  1.2824
10850TIP3    H254042   6.689   4.195   5.494  1.4056  0.9352 -0.8368
10851TIP3   OH254043   2.021   2.347   6.190 -0.2031  0.3372  0.0291
10851TIP3    H154044   2.068   2.427   6.213  1.4069 -0.6448  0.2664
10851TIP3    H254045   2.010   2.301   6.273 -0.0952 -0.2095 -0.2541
10852TIP3   OH254046   6.596   3.503   5.299 -0.0360 -0.0885 -0.2840
10852TIP3    H154047   6.632   3.481   5.385  0.2263 -0.2528 -0.4353
10852TIP3    H254048   6.582   3.598   5.303  0.3554 -0.0304 -0.2002
10853TIP3   OH254049   3.057   6.262  15.975  0.2984  0.1503 -0.7959
10853TIP3    H154050   3.054   6.184  15.920 -1.8515  0.0304 -0.5280
10853TIP3    H254051   2.982   6.314  15.948 -0.1677  0.5995  1.2781
10854TIP3   OH254052   6.603   6.216   4.170 -0.2539  0.2210 -0.4875
10854TIP3    H154053   6.561   6.168   4.241  1.1148 -0.7584 -0.3149
10854TIP3    H254054   6.628   6.149   4.107 -1.4142  1.0787 -1.8992
10855TIP3   OH254055   0.485   1.747   6.573 -0.3189  0.6565  0.2898
10855TIP3    H154056   0.542   1.677   6.541  0.8198  1.1786  1.1349
10855TIP3    H254057   0.465   1.800   6.496 -1.7864 -1.0072 -0.4950
10856TIP3   OH254058   0.665   0.974   0.486 -0.0905  0.2358 -0.5535
10856TIP3    H154059   0.641   0.889   0.524 -0.8876  0.1079 -1.3181
10856TIP3    H254060   0.718   1.016   0.553  2.0509 -1.7047 -0.9893
10857TIP3   OH254061   3.539   2.131   6.159  0.6043 -0.3982 -0.2228
10857TIP3    H154062   3.581   2.184   6.227  0.5683 -1.4992  0.6797
10857TIP3    H254063   3.586   2.047   6.162 -0.2504 -0.8995 -0.6743
10858TIP3   OH254064   1.889   3.199   4.319 -0.7139 -0.6235 -0.5616
10858TIP3    H154065   1.809   3.252   4.315 -0.1202  0.3773  0.5236
10858TIP3    H254066   1.908   3.191   4.413  0.9854 -0.0542 -0.8505
10859TIP3   OH254067   0.891   0.909  15.690 -0.4001  0.2225  0.5414
10859TIP3    H154068   0.829   0.860  15.744 -0.0549 -0.9197 -0.0816
10859TIP3    H254069   0.851   0.910  15.603  1.2023 -1.9240 -0.2517
10860TIP3   OH254070   5.056   0.709   1.752  0.4014  0.4535  0.2679
10860TIP3    H154071   5.114   0.754   1.814  0.5953 -0.7721  1.0009
10860TIP3    H254072   5.026   0.778   1.693 -1.5486  2.1118  3.0506
10861TIP3   OH254073   2.579   0.582   5.245  0.0572  0.4328  0.4191
10861TIP3    H154074   2.565   0.657   5.302 -2.1449  1.1213 -0.9304
10861TIP3    H254075   2.661   0.544   5.274 -0.4340  1.4250  3.2877
10862TIP3   OH254076   6.714   1.104   5.835  0.3002  0.1190 -0.8399
10862TIP3    H154077   6.782   1.156   5.791 -0.5858 -0.1957 -2.6285
10862TIP3    H254078   6.746   1.014   5.831 -0.9194 -0.2574 -3.1405
10863TIP3   OH254079   5.024   5.021  13.820  1.1556  0.4448  0.4609
10863TIP3    H154080   5.087   4.948  13.819  0.5447 -0.0978  1.1671
10863TIP3    H254081   4.946   4.986  13.777 -0.0870 -0.1983  3.1288
10864TIP3   OH254082   5.080   1.000   5.707  0.3031  0.0593  0.5878
10864TIP3    H154083   5.039   1.007   5.793 -0.3393 -0.3849  0.3268
10864TIP3    H254084   5.067   0.908   5.682  0.6828  0.1313  0.1209
10865TIP3   OH254085   1.021   1.023   5.744 -0.3923  0.1896 -0.1386
10865TIP3    H154086   1.017   0.988   5.833 -0.3066 -0.2840 -0.3180
10865TIP3    H254087   1.110   1.059   5.737 -0.9336  1.6697  0.4958
10866TIP3   OH254088   4.659   5.714  16.004  0.4178  0.2222 -0.3892
10866TIP3    H154089   4.724   5.670  16.059  0.7187  0.4487 -0.5599
10866TIP3    H254090   4.627   5.786  16.058 -0.3708 -0.4483  0.0377
10867TIP3   OH254091   4.435   5.694  11.894 -0.4886  0.0223 -0.0897
10867TIP3    H154092   4.350   5.714  11.854  0.4451  0.6813 -1.7671
10867TIP3    H254093   4.494   5.760  11.860  0.7199 -0.4505  1.0547
10868TIP3   OH254094   3.982   5.041   2.307 -0.3559  0.0431 -0.1773
10868TIP3    H154095   4.041   5.070   2.237  0.0622 -1.3021 -0.3984
10868TIP3    H254096   3.924   4.977   2.265 -2.8429  2.2668 -0.2750
10869TIP3   OH254097   0.165   1.803  11.860  0.3093  0.6461  0.1860
10869TIP3    H154098   0.070   1.802  11.843 -0.0270  0.9264  1.9307
10869TIP3    H254099   0.200   1.866  11.797 -0.8855  1.7288  0.5911
10870TIP3   OH254100   1.421   6.813  13.437 -0.0676 -0.0859  0.1443
10870TIP3    H154101   1.511   6.826  13.407  0.0585  0.1439  0.6203
10870TIP3    H254102   1.384   6.749  13.375  0.3988 -0.1299 -0.0904
10871TIP3   OH254103   3.295   5.668   2.383  0.5495  0.0997  0.8790
10871TIP3    H154104   3.281   5.594   2.443  0.8810  1.4163  2.6184
10871TIP3    H254105   3.265   5.744   2.432 -0.0780  1.1053 -1.0188
10872TIP3   OH254106   4.013   1.343  16.250  0.4656 -0.2897  0.2924
10872TIP3    H154107   3.936   1.400  16.257  0.4604 -0.4961  2.1433
10872TIP3    H254108   3.999   1.275  16.315  1.9799 -0.6219  0.2993
10873TIP3   OH254109   1.306   1.801   3.448 -0.0167 -0.6356 -0.2576
10873TIP3    H154110   1.299   1.737   3.377 -0.2569  1.2908 -2.0221
10873TIP3    H254111   1.342   1.879   3.406 -0.4523  0.6501  1.6941
10874TIP3   OH254112   3.055   0.609   4.181  0.5061  0.1799 -0.3537
10874TIP3    H154113   2.965   0.591   4.208  0.2112 -1.1407 -2.1433
10874TIP3    H254114   3.053   0.699   4.148 -0.0701  0.2840 -0.0355
10875TIP3   OH254115   0.580   2.853  11.423 -0.2973 -0.1683  0.5603
10875TIP3    H154116   0.580   2.758  11.435  0.9821 -0.5349 -1.9067
10875TIP3    H254117   0.488   2.876  11.414 -0.4855 -1.7119 -2.1856
10876TIP3   OH254118   2.233   2.359  16.203 -0.0859 -0.4085  0.2614
10876TIP3    H154119   2.185   2.376  16.283 -0.7040  0.9466 -0.3803
10876TIP3    H254120   2.180   2.295  16.156 -0.0279 -0.7490  0.6635
10877TIP3   OH254121   5.538   6.045   3.011 -0.4033  0.0987  0.3066
10877TIP3    H154122   5.552   6.105   3.084 -0.2985 -0.2471  0.5752
10877TIP3    H254123   5.619   6.051   2.959 -0.8953  1.1287 -0.3595
10878TIP3   OH254124   1.210   5.587   1.937 -0.2098 -0.2207 -0.7746
10878TIP3    H154125   1.274   5.563   1.870 -1.5787  1.7043 -2.8436
10878TIP3    H254126   1.126   5.560   1.900 -1.1635  2.4408 -0.6458
10879TIP3   OH254127   1.906   2.509  14.247 -0.2801 -0.4688  0.1997
10879TIP3    H154128   1.903   2.557  14.164 -1.3012  0.5369  0.7970
10879TIP3    H254129   1.815   2.512  14.279 -0.0971 -1.7041  0.8703
10880TIP3   OH254130   0.680   6.568   5.660  0.1946  0.0692 -0.4041
10880TIP3    H154131   0.714   6.545   5.747  1.7444  0.0273 -0.9980
10880TIP3    H254132   0.591   6.533   5.658 -0.8647  2.4317  2.1742
10881TIP3   OH254133   1.399   1.062  10.805 -0.0377 -0.0362  0.1187
10881TIP3    H154134   1.433   0.975  10.788 -0.6819  0.1061 -2.0780
10881TIP3    H254135   1.324   1.071  10.747 -0.0529  1.9299  0.3796
10882TIP3   OH254136   4.881   0.298   4.287  0.3651  0.8361 -0.5104
10882TIP3    H154137   4.863   0.390   4.265  3.4032  1.6520  0.1125
10882TIP3    H254138   4.813   0.275   4.350 -0.4673  2.6381 -0.6932
10883TIP3   OH254139   5.963   6.700   1.282 -0.1222 -0.6009  0.2235
10883TIP3    H154140   5.888   6.675   1.336  0.2644 -1.9053  0.1767
10883TIP3    H254141   6.032   6.639   1.308  0.4769 -0.3437 -0.7529
10884TIP3   OH254142   2.508   1.674  15.356 -0.2084 -0.2709 -0.3730
10884TIP3    H154143   2.462   1.595  15.329 -0.3884 -0.4289  0.3718
10884TIP3    H254144   2.496   1.677  15.451  1.8073 -0.6315 -0.0831
10885TIP3   OH254145   4.474   0.729  13.753 -0.1075  0.5900  0.5900
10885TIP3    H154146   4.443   0.754  13.667  0.0499 -1.1497  0.0081
10885TIP3    H254147   4.424   0.783  13.814 -1.8271  0.2420 -0.4852
10886TIP3   OH254148   1.227   5.334  12.754  0.4126  0.5400  0.1623
10886TIP3    H154149   1.140   5.317  12.718  1.2368 -1.1950 -1.1154
10886TIP3    H254150   1.224   5.298  12.843  0.8438 -2.7127 -1.0697
10887TIP3   OH254151   5.763   4.887  11.580  0.2795  0.1799 -0.0033
10887TIP3    H154152   5.714   4.891  11.663 -0.7899 -1.4026 -0.5306
10887TIP3    H254153   5.733   4.806  11.539  0.3965  1.2283 -2.2102
10888TIP3   OH254154   5.529   5.181   2.132 -0.1132  0.0581  0.3310
10888TIP3    H154155   5.475   5.259   2.142 -2.7139 -1.5076 -0.8282
10888TIP3    H254156   5.538   5.147   2.222 -0.7075  0.5597  0.5837
10889TIP3   OH254157   0.489   2.698  15.514 -0.0602 -0.1188  0.5432
10889TIP3    H154158   0.432   2.757  15.563 -1.5121  0.2404 -1.5297
10889TIP3    H254159   0.559   2.755  15.481 -0.0484 -0.0307  0.7202
10890TIP3   OH254160   6.186   4.323  10.520  0.4095  0.1150  0.0088
10890TIP3    H154161   6.149   4.247  10.475 -1.1907  1.4939 -1.0301
10890TIP3    H254162   6.156   4.314  10.610 -2.0106  0.8776 -0.6782
10891TIP3   OH254163   5.139   5.778   2.614 -0.1327 -0.3587  0.2077
10891TIP3    H154164   5.128   5.784   2.520  1.4830  1.1661  0.0985
10891TIP3    H254165   5.230   5.750   2.626  0.1010  0.8175  1.3191
10892TIP3   OH254166   3.131   1.396   0.950  0.5655 -0.1065  0.3509
10892TIP3    H154167   3.172   1.440   0.875  1.6400  0.1637  1.0797
10892TIP3    H254168   3.088   1.467   0.998  1.9421  0.0950  1.2999
10893TIP3   OH254169   4.642   0.318  15.710  0.8623  0.2940 -0.5578
10893TIP3    H154170   4.614   0.394  15.761 -0.5153 -0.5557 -0.0321
10893TIP3    H254171   4.610   0.335  15.621  1.4140  0.7750 -0.6699
10894TIP3   OH254172   3.240   4.053  13.560 -0.2475 -0.4761 -0.1639
10894TIP3    H154173   3.145   4.055  13.568 -0.2828  0.2643 -0.7360
10894TIP3    H254174   3.259   4.104  13.481  0.6159 -0.6719 -0.0895
10895TIP3   OH254175   5.250   0.029  14.476  0.5799 -0.1231  0.1853
10895TIP3    H154176   5.191  -0.011  14.413  0.7909 -1.1187  0.6072
10895TIP3    H254177   5.218   0.118  14.487 -0.2951 -0.3825 -0.2739
10896TIP3   OH254178   1.404   6.656  15.984  1.2182  0.1221  0.2616
10896TIP3    H154179   1.350   6.581  16.009  0.9049  0.4169  0.4859
10896TIP3    H254180   1.494   6.624  15.987  0.9583 -0.9063 -1.9546
10897TIP3   OH254181   2.650   2.407   0.577 -0.4741  0.0120 -0.1761
10897TIP3    H154182   2.662   2.455   0.659 -0.5691 -1.0388  0.4708
10897TIP3    H254183   2.556   2.391   0.572 -0.4250 -0.2386 -0.3066
10898TIP3   OH254184   1.217   4.971   0.830 -0.0593 -0.1986 -0.3314
10898TIP3    H154185   1.294   4.947   0.779 -0.2263 -0.2365 -0.5672
10898TIP3    H254186   1.187   4.888   0.869 -1.7190 -0.7521 -2.6283
10899TIP3   OH254187   6.591   2.131  17.055 -0.9463 -0.1705  0.4442
10899TIP3    H154188   6.655   2.079  17.006 -0.7915 -0.9382  1.4557
10899TIP3    H254189   6.624   2.132  17.145 -1.6685  0.5418  0.7074
10900TIP3   OH254190   3.387   4.029   1.040 -0.5539 -0.2440  0.0230
10900TIP3    H154191   3.423   4.004   1.125  1.8454 -0.3130 -0.9645
10900TIP3    H254192   3.333   4.106   1.058  0.5216  0.1931  1.4991
10901TIP3   OH254193   1.890   2.149  13.504  0.6271  0.3911  0.2637
10901TIP3    H154194   1.839   2.184  13.576 -1.1112 -2.6925  0.6400
10901TIP3    H254195   1.840   2.172  13.425  0.0131 -0.3311  0.4340
10902TIP3   OH254196   1.754   6.737  10.677  0.1098 -0.0661  0.3155
10902TIP3    H154197   1.813   6.783  10.618 -1.4844  2.4977  0.6324
10902TIP3    H254198   1.671   6.732  10.630  0.0432 -2.0456  0.5829
10903TIP3   OH254199   0.007   2.395  12.529  0.3401 -0.4475  0.5333
10903TIP3    H154200  -0.050   2.418  12.603 -0.0319 -2.0396  0.7616
10903TIP3    H254201   0.073   2.464  12.528 -0.5505  0.4499  1.3864
10904TIP3   OH254202   4.257   4.486  17.187 -0.0333  0.5375  0.5832
10904TIP3    H154203   4.188   4.543  17.152  0.2706  1.1789  1.0291
10904TIP3    H254204   4.262   4.414  17.123 -0.9296  0.6166  0.4108
10905TIP3   OH254205   3.261   3.645   2.400  0.6083 -0.2847  0.1682
10905TIP3    H154206   3.294   3.695   2.325  1.3944  0.8856  1.2729
10905TIP3    H254207   3.319   3.570   2.407 -1.2207 -1.9706 -2.1619
10906TIP3   OH254208   6.794   1.150   1.804  0.5650  0.9642 -0.9249
10906TIP3    H154209   6.808   1.182   1.893 -0.0831 -0.3592 -0.3250
10906TIP3    H254210   6.708   1.183   1.779  0.5469  0.9435 -0.8892
10907TIP3   OH254211   0.941   1.724  15.822  0.0202 -0.6868 -0.0751
10907TIP3    H154212   0.898   1.798  15.864  1.9907  0.1440  0.5429
10907TIP3    H254213   0.991   1.682  15.892  1.4549 -0.6976 -1.0677
10908TIP3   OH254214   5.873   2.663   1.159  0.0996 -0.8868  0.4076
10908TIP3    H154215   5.847   2.637   1.071 -2.1622 -0.8626  1.0186
10908TIP3    H254216   5.793   2.654   1.211  0.8989  0.9722  2.0421
10909TIP3   OH254217   4.717   2.411   4.838 -0.4311  0.0297  0.2952
10909TIP3    H154218   4.627   2.378   4.845 -0.9724  1.0405 -1.5731
10909TIP3    H254219   4.726   2.472   4.911 -1.2448 -0.1234  0.5294
10910TIP3   OH254220   2.139   4.439   5.802  0.0893 -0.1392 -0.1178
10910TIP3    H154221   2.053   4.424   5.841  0.0636  0.1750 -0.0516
10910TIP3    H254222   2.190   4.481   5.871  0.6760 -1.4093  0.2435
10911TIP3   OH254223   4.696   0.595   0.927  0.2960 -0.4727  0.2277
10911TIP3    H154224   4.700   0.690   0.922  1.8978 -0.4377  1.6684
10911TIP3    H254225   4.657   0.577   1.013 -0.4738 -1.1170 -0.2458
10912TIP3   OH254226   5.466   1.590   1.107  0.5873  0.4506  0.1092
10912TIP3    H154227   5.462   1.510   1.158 -2.6371  0.9755  0.7690
10912TIP3    H254228   5.459   1.561   1.016  0.5508 -0.0801  0.2797
10913TIP3   OH254229   5.841   1.973   5.778  0.2847  0.1571  0.2347
10913TIP3    H154230   5.772   2.026   5.819  0.2309  0.3924 -0.1624
10913TIP3    H254231   5.920   1.994   5.829  0.4732  1.3821 -0.5567
10914TIP3   OH254232   4.453   3.556  13.930  0.6354 -0.3437 -0.1564
10914TIP3    H154233   4.404   3.636  13.914  0.5786 -0.2612  0.4081
10914TIP3    H254234   4.422   3.525  14.015  1.7540 -0.1345  0.3451
10915TIP3   OH254235   2.067   1.124   4.349 -0.4646  0.0520  1.0027
10915TIP3    H154236   2.111   1.050   4.308  1.7828  1.8438  0.0574
10915TIP3    H254237   2.100   1.124   4.439  0.1609  0.3797  0.7755
10916TIP3   OH254238   5.378   4.873   4.125  0.6532  0.3548 -0.0116
10916TIP3    H154239   5.451   4.832   4.171 -0.2250 -0.5629  0.5741
10916TIP3    H254240   5.307   4.809   4.128  0.9377 -0.2524 -3.7654
10917TIP3   OH254241   4.197   1.106   5.179 -0.7122 -0.3105  0.3734
10917TIP3    H154242   4.191   1.017   5.213 -1.1396  0.0893  1.3625
10917TIP3    H254243   4.245   1.154   5.246 -1.6310  0.5100  0.4582
10918TIP3   OH254244   3.621   2.637  15.617 -0.3986 -0.2161  0.2237
10918TIP3    H154245   3.695   2.607  15.564 -0.3868  1.8697 -1.0131
10918TIP3    H254246   3.662   2.683  15.691 -0.4376 -1.5206  1.0655
10919TIP3   OH254247   2.119   3.756  14.657 -0.4227  0.2728  0.1312
10919TIP3    H154248   2.036   3.710  14.647 -1.0421  1.0380  1.6524
10919TIP3    H254249   2.149   3.734  14.745 -0.2868  2.0475  0.5542
10920TIP3   OH254250   3.830   6.640   1.290  0.2586 -0.0290  0.3509
10920TIP3    H154251   3.812   6.717   1.235 -0.8573 -1.7146 -1.7152
10920TIP3    H254252   3.911   6.604   1.256  0.3624 -0.2226  0.7983
10921TIP3   OH254253   2.462   2.560  15.911 -0.4439 -0.0790  0.2274
10921TIP3    H154254   2.529   2.626  15.928  0.3426 -0.3823 -1.5150
10921TIP3    H254255   2.433   2.531  15.997 -0.2804  2.0153  1.0006
10922TIP3   OH254256   1.361   2.330  17.273  0.2305 -0.2059  0.9127
10922TIP3    H154257   1.366   2.418  17.236 -0.1064 -1.5781 -2.5340
10922TIP3    H254258   1.389   2.272  17.203 -1.8676 -3.0521  2.2974
10923TIP3   OH254259   1.727   0.513   3.945  0.0745  0.3844  0.0283
10923TIP3    H154260   1.688   0.426   3.957  0.4939  0.4880  2.3513
10923TIP3    H254261   1.797   0.499   3.882 -1.2326 -0.5428 -1.2667
10924TIP3   OH254262   1.797   4.274   4.944  0.3059  0.0775  0.6514
10924TIP3    H154263   1.779   4.367   4.957  0.0180  0.1971 -0.6113
10924TIP3    H254264   1.889   4.263   4.971  0.7328  0.9710 -0.4275
10925TIP3   OH254265   4.298   3.059   2.089  0.7536  0.2306 -0.5007
10925TIP3    H154266   4.371   3.113   2.061  1.4545 -0.5377 -0.1914
10925TIP3    H254267   4.220   3.107   2.063  1.3826  0.6323 -1.6517
10926TIP3   OH254268   1.284   5.252   5.620 -0.1615  0.0353 -0.1207
10926TIP3    H154269   1.351   5.202   5.666 -0.5016 -1.6342 -1.3710
10926TIP3    H254270   1.211   5.256   5.681  0.5170  0.5711  0.6735
10927TIP3   OH254271   2.676   4.790   0.438 -0.2763 -0.6766  0.5654
10927TIP3    H154272   2.591   4.754   0.460 -1.5227  1.0028 -1.3682
10927TIP3    H254273   2.690   4.766   0.347 -0.0147  1.5575 -0.0089
10928TIP3   OH254274   1.360   5.930   0.015  0.2394  0.4173  0.8454
10928TIP3    H154275   1.436   5.872   0.016  0.5103  0.7598  0.0616
10928TIP3    H254276   1.355   5.962  -0.074  0.1252  1.6677  1.2945
10929TIP3   OH254277   2.632   0.837  10.486  0.6856 -0.2453  0.1449
10929TIP3    H154278   2.653   0.818  10.577  1.0086 -0.6325 -0.0112
10929TIP3    H254279   2.671   0.765  10.436  0.3936 -0.1091 -0.2880
10930TIP3   OH254280   0.715   5.501   5.071  0.1240 -0.2376  0.3914
10930TIP3    H154281   0.671   5.425   5.108  1.7420 -1.4560 -0.1281
10930TIP3    H254282   0.805   5.496   5.104  0.7213  0.4537 -1.0670
10931TIP3   OH254283   5.443   0.487   2.131 -0.3559  0.1891  0.1741
10931TIP3    H154284   5.519   0.464   2.185 -0.5686  1.4847  1.0681
10931TIP3    H254285   5.374   0.507   2.194 -0.4478  2.2688 -0.5357
10932TIP3   OH254286   0.878   6.784   4.043  0.3303  0.0424 -0.6163
10932TIP3    H154287   0.793   6.798   4.003 -0.3971  0.6956  1.0982
10932TIP3    H254288   0.871   6.824   4.130  2.4862  0.4202 -0.5732
10933TIP3   OH254289   3.992   4.589   5.831 -0.2916 -0.6136  0.0353
10933TIP3    H154290   3.899   4.569   5.829 -0.4650  0.2299 -0.5172
10933TIP3    H254291   4.006   4.633   5.915 -0.5555  0.0582 -0.2754
10934TIP3   OH254292   2.617   4.014   3.469  0.5963 -0.0479 -0.4069
10934TIP3    H154293   2.621   4.010   3.564  2.5240  2.1240 -0.3519
10934TIP3    H254294   2.580   3.930   3.442 -1.0103 -0.2466  2.2973
10935TIP3   OH254295   4.753   0.193  16.301  0.5216  0.1177 -0.1205
10935TIP3    H154296   4.826   0.255  16.299  0.2689  0.5239  1.8886
10935TIP3    H254297   4.781   0.121  16.243  1.4072  1.4352 -1.3652
10936TIP3   OH254298   3.055   2.501  16.548  0.2512 -0.1201 -0.3435
10936TIP3    H154299   2.979   2.518  16.492  0.0316  0.7781  0.2241
10936TIP3    H254300   3.034   2.418  16.592  0.1388 -0.4944 -1.1069
10937TIP3   OH254301   3.203   1.222  13.719 -0.3992 -0.3959  0.0593
10937TIP3    H154302   3.232   1.241  13.629  0.6028 -0.4074  0.3716
10937TIP3    H254303   3.123   1.273  13.730  0.9676  1.7783  0.0809
10938TIP3   OH254304   6.551   1.018  16.605 -0.2585 -0.6603  0.5835
10938TIP3    H154305   6.465   0.982  16.583  0.0587 -1.1339  0.1118
10938TIP3    H254306   6.611   0.943  16.599  0.0257 -0.5516  1.8993
10939TIP3   OH254307   0.107   4.245   3.093 -0.6776 -0.5203 -0.0324
10939TIP3    H154308   0.116   4.332   3.055  0.6618 -0.3952  0.5485
10939TIP3    H254309   0.095   4.261   3.187  2.7229 -1.0405  0.5471
10940TIP3   OH254310   1.594   3.623   3.518  0.1233 -0.3807  0.3988
10940TIP3    H154311   1.663   3.621   3.584  0.1921  0.2723  0.3451
10940TIP3    H254312   1.621   3.557   3.454  0.9611  0.2260  0.1161
10941TIP3   OH254313   0.903   6.096  13.737  0.5200  0.0481 -0.5193
10941TIP3    H154314   0.982   6.122  13.783  0.6920 -0.6374 -0.4175
10941TIP3    H254315   0.935   6.059  13.654  0.3186 -0.2787 -0.4558
10942TIP3   OH254316   0.209   5.926  15.897 -0.0863 -0.1691 -0.4512
10942TIP3    H154317   0.201   5.888  15.809 -1.1925 -0.4475 -0.2373
10942TIP3    H254318   0.165   5.863  15.954  1.6462 -0.5787  0.4786
10943TIP3   OH254319   5.882   1.837   4.890 -0.7639 -0.0249  0.1044
10943TIP3    H154320   5.806   1.810   4.941 -0.6149  0.7972  0.7574
10943TIP3    H254321   5.952   1.778   4.917 -0.6495  0.4978  0.9470
10944TIP3   OH254322   0.166   2.481   5.613  0.0123  0.3565  1.1768
10944TIP3    H154323   0.072   2.499   5.613  0.1510  1.2917 -1.4162
10944TIP3    H254324   0.172   2.385   5.611 -0.8740  0.2883  1.8132
10945TIP3   OH254325   1.827   6.032  12.839  0.0642 -0.3647  0.1580
10945TIP3    H154326   1.851   5.957  12.894  1.1120  0.5858  1.0240
10945TIP3    H254327   1.908   6.051  12.790 -0.1797  0.2542  0.0002
10946TIP3   OH254328   6.423   6.626  15.991  0.0748 -0.0738 -0.0215
10946TIP3    H154329   6.516   6.619  16.013  0.1259  2.8505  0.9187
10946TIP3    H254330   6.421   6.677  15.910 -0.7235  0.3585  0.2631
10947TIP3   OH254331   3.176   6.201  11.890 -0.1461 -0.2309 -0.2882
10947TIP3    H154332   3.167   6.107  11.908 -0.2836 -0.5614 -1.9961
10947TIP3    H254333   3.164   6.209  11.795 -2.1951  1.7834  0.0959
10948TIP3   OH254334   1.722   3.336   0.111  0.4471  0.7046  0.1300
10948TIP3    H154335   1.760   3.372   0.191  0.4742  1.6341 -0.2882
10948TIP3    H254336   1.771   3.378   0.040  0.9038 -0.6530 -0.3701
10949TIP3   OH254337   0.896   5.565   3.540  0.6685  0.3377  0.1697
10949TIP3    H154338   0.901   5.656   3.510 -0.3856  0.1132 -0.7584
10949TIP3    H254339   0.869   5.571   3.631  0.2692  0.9492  0.0152
10950TIP3   OH254340   2.070   1.666  12.782  0.7096 -0.0945 -0.3287
10950TIP3    H154341   1.978   1.694  12.786  0.9761  0.6008  1.1966
10950TIP3    H254342   2.065   1.571  12.770 -0.2065  0.0484 -1.1586
10951TIP3   OH254343   4.629   3.506  12.191 -0.6366  0.2840 -0.8092
10951TIP3    H154344   4.547   3.475  12.228 -1.8412  2.4919 -1.5429
10951TIP3    H254345   4.619   3.493  12.097  1.2402 -2.5541 -0.6956
10952TIP3   OH254346   5.846   4.836   2.439 -0.5175 -0.2258  0.1038
10952TIP3    H154347   5.887   4.787   2.511  1.7059  0.6937 -0.4910
10952TIP3    H254348   5.786   4.896   2.482  1.1746  0.6852  1.2748
10953TIP3   OH254349   3.502   4.124   3.413 -0.0684 -0.2416  0.3943
10953TIP3    H154350   3.522   4.032   3.433 -0.5907  0.3921  4.1299
10953TIP3    H254351   3.482   4.124   3.319  0.9718 -3.7520  0.1023
10954TIP3   OH254352   0.501   4.124   4.513  0.5923 -0.0185  0.3894
10954TIP3    H154353   0.522   4.032   4.527 -0.6879 -0.4752 -0.6812
10954TIP3    H254354   0.544   4.147   4.431  1.3275  0.4755  0.9101
10955TIP3   OH254355   4.131   0.397  13.339  0.1212 -0.3420 -0.1912
10955TIP3    H154356   4.115   0.346  13.419  1.7813 -0.8742 -0.1730
10955TIP3    H254357   4.175   0.336  13.280  0.8276  0.6536 -0.7143
10956TIP3   OH254358   4.073   6.703  14.427  0.6680  0.1691 -0.2096
10956TIP3    H154359   4.062   6.683  14.334  2.0654 -1.3113 -0.0760
10956TIP3    H254360   3.992   6.671  14.467  0.2793  0.3505 -0.8331
10957TIP3   OH254361   2.934   4.349  14.211  0.2729 -0.2377 -0.0283
10957TIP3    H154362   2.994   4.413  14.249  1.6057 -0.7852 -1.1828
10957TIP3    H254363   2.882   4.318  14.285  0.3185  1.4032  0.7230
10958TIP3   OH254364   0.406   2.346   2.289 -0.0454 -0.1027 -0.1138
10958TIP3    H154365   0.486   2.294   2.292 -0.0945 -0.2225 -0.7655
10958TIP3    H254366   0.394   2.378   2.378  1.0282  0.3754 -0.1377
10959TIP3   OH254367   3.586   1.112   5.670  0.0558 -0.2298 -0.4810
10959TIP3    H154368   3.492   1.125   5.656  0.1227  1.4072  0.4786
10959TIP3    H254369   3.616   1.195   5.708  1.5925 -1.3062  0.6799
10960TIP3   OH254370   3.399   0.008   4.566  0.5882 -0.1363  0.0562
10960TIP3    H154371   3.457  -0.056   4.525  0.2072  0.4728 -1.4487
10960TIP3    H254372   3.399  -0.016   4.659 -0.2133 -2.8376 -0.6058
10961TIP3   OH254373   4.087   4.620  11.149  0.0972 -0.0331  0.2703
10961TIP3    H154374   4.163   4.619  11.207  1.1805 -0.5564 -1.1440
10961TIP3    H254375   4.048   4.533  11.158 -0.8565  0.5201  1.6515
10962TIP3   OH254376   3.459   0.089  10.606 -0.1440 -0.1704 -0.0088
10962TIP3    H154377   3.528   0.033  10.641 -0.5288 -0.5703  0.1225
10962TIP3    H254378   3.396   0.028  10.568  0.6567  0.2902 -2.1121
10963TIP3   OH254379   1.206   2.003   5.479 -0.1674  0.1035 -0.2405
10963TIP3    H154380   1.170   1.964   5.558 -0.5989 -0.2201 -0.5945
10963TIP3    H254381   1.299   1.980   5.481 -0.0200  0.7539  0.5585
10964TIP3   OH254382   0.593   0.522  13.847  1.2760 -0.0507  0.3555
10964TIP3    H154383   0.661   0.486  13.904 -0.1736 -2.6121  0.5471
10964TIP3    H254384   0.578   0.453  13.782 -0.0715  1.1035 -0.5701
10965TIP3   OH254385   3.172   5.188  16.220  0.0373 -0.1467 -0.3185
10965TIP3    H154386   3.188   5.211  16.312  0.3818  2.9520 -1.1108
10965TIP3    H254387   3.236   5.121  16.201 -1.4473 -2.4369  2.3053
10966TIP3   OH254388   6.436   4.739  11.469 -0.3345 -0.5271  0.1967
10966TIP3    H154389   6.427   4.803  11.398 -0.3163 -1.2117 -0.4206
10966TIP3    H254390   6.372   4.768  11.534  0.3678  0.7035  0.3592
10967TIP3   OH254391   1.613   1.496  11.278 -0.7008 -0.1992 -0.0009
10967TIP3    H154392   1.521   1.478  11.293 -1.0155  1.0486 -0.3314
10967TIP3    H254393   1.648   1.520  11.364 -0.6954 -0.6083  0.1112
10968TIP3   OH254394   4.970   4.405   6.478 -0.1812 -0.0636  0.0645
10968TIP3    H154395   4.944   4.477   6.420 -0.4368  0.7919  1.2096
10968TIP3    H254396   5.065   4.412   6.483 -0.2290  0.4034  0.4153
10969TIP3   OH254397   0.269   0.586  14.330 -0.3875  0.2728 -0.0415
10969TIP3    H154398   0.175   0.606  14.338 -0.8296 -0.7897 -2.0830
10969TIP3    H254399   0.295   0.626  14.246  0.9196  0.3016  0.3682
10970TIP3   OH254400   6.556   3.819   6.254 -0.0464  0.2461 -0.5897
10970TIP3    H154401   6.484   3.871   6.291 -0.8573 -2.4593  1.8271
10970TIP3    H254402   6.546   3.828   6.159 -2.2429  1.6998 -0.2533
10971TIP3   OH254403   1.732   1.879  12.108 -0.1852 -0.6136  0.0621
10971TIP3    H154404   1.669   1.922  12.165  1.4592  2.2014 -0.1299
10971TIP3    H254405   1.748   1.943  12.038  2.3985 -1.5230 -0.2168
10972TIP3   OH254406   6.307   1.058   2.846 -0.2540  0.8049 -0.0414
10972TIP3    H154407   6.353   0.991   2.797 -2.2537  0.1517 -1.0715
10972TIP3    H254408   6.373   1.126   2.861  2.2428 -1.9810  2.3153
10973TIP3   OH254409   1.463   0.727   4.351 -0.1287  0.1704  0.8114
10973TIP3    H154410   1.524   0.770   4.292 -0.9934  1.3171  0.7318
10973TIP3    H254411   1.469   0.777   4.433 -0.6704  0.0583  0.9226
10974TIP3   OH254412   1.308   6.472   5.929 -0.1050  0.6013 -0.8053
10974TIP3    H154413   1.293   6.507   5.842  1.8910  1.8814 -0.6852
10974TIP3    H254414   1.308   6.549   5.986  0.4623  0.0011  0.0290
10975TIP3   OH254415   3.422   2.030   3.296  0.1050  0.1643  0.4660
10975TIP3    H154416   3.498   2.087   3.292 -0.6068  1.1100  0.1510
10975TIP3    H254417   3.425   1.978   3.216  0.5924 -0.0403  0.6159
10976TIP3   OH254418   3.033   4.113  17.137  0.0741  0.0280 -0.2127
10976TIP3    H154419   2.983   4.072  17.207  0.9686 -2.9458 -1.2638
10976TIP3    H254420   2.970   4.173  17.095 -1.7587 -1.4531  0.3505
10977TIP3   OH254421   2.240   0.910   4.563 -0.0832 -0.0342  0.7110
10977TIP3    H154422   2.310   0.933   4.624 -0.0784  0.5937  0.4657
10977TIP3    H254423   2.231   0.815   4.573  0.7634 -0.1164  0.7875
10978TIP3   OH254424   0.981   3.268  15.987  0.4453  0.1632 -0.2379
10978TIP3    H154425   0.889   3.278  16.010 -0.3825 -1.8359 -2.4765
10978TIP3    H254426   1.028   3.303  16.062 -2.1256  0.5386  1.2620
10979TIP3   OH254427   1.856   2.339   3.182 -0.7565  0.4698  0.3520
10979TIP3    H154428   1.903   2.263   3.217 -0.1194  0.3000 -0.8596
10979TIP3    H254429   1.889   2.413   3.233  3.5100  0.9101 -2.7809
10980TIP3   OH254430   3.981   6.153  16.646  0.1093  0.2167  0.0532
10980TIP3    H154431   4.058   6.136  16.591  0.2990 -0.0091  0.3878
10980TIP3    H254432   4.016   6.200  16.722 -0.0297 -0.2171  0.3837
10981TIP3   OH254433   0.693   2.441   0.355  0.5789  0.5358  0.3883
10981TIP3    H154434   0.619   2.456   0.413  0.3718  0.8997  0.0381
10981TIP3    H254435   0.685   2.350   0.327  0.7195  0.3419  0.9820
10982TIP3   OH254436   3.318   6.042   3.054  0.2462 -0.2226  0.0459
10982TIP3    H154437   3.232   6.082   3.063  2.1034  4.3721 -1.2585
10982TIP3    H254438   3.349   6.032   3.144 -2.1103 -3.2530  0.6076
10983TIP3   OH254439   0.785   2.411  11.840  0.3503 -0.9042 -0.6998
10983TIP3    H154440   0.841   2.386  11.913 -0.4861  1.5329  0.8114
10983TIP3    H254441   0.705   2.442  11.880 -0.4547 -0.3305 -2.6893
10984TIP3   OH254442   2.116   2.479  13.634 -0.3056  0.5464 -0.5999
10984TIP3    H154443   2.129   2.386  13.654 -1.5164  0.4494 -0.2240
10984TIP3    H254444   2.151   2.489  13.546  0.4238 -0.1259 -0.3981
10985TIP3   OH254445   2.877   0.840   2.249 -0.1893  0.0861  1.1944
10985TIP3    H154446   2.824   0.769   2.214  1.0759 -0.3300  0.0791
10985TIP3    H254447   2.814   0.905   2.280 -1.3606 -1.5139  2.2352
10986TIP3   OH254448   2.499   6.589  11.701 -0.4073  0.3677  0.4281
10986TIP3    H154449   2.466   6.633  11.623  0.4814  0.1560 -0.0782
10986TIP3    H254450   2.571   6.645  11.731 -0.5648  0.3016  0.9363
10987TIP3   OH254451   0.681   3.794   6.515 -0.1571  0.5878 -0.1006
10987TIP3    H154452   0.654   3.792   6.607 -0.5846 -0.7576 -0.2456
10987TIP3    H254453   0.600   3.780   6.466  0.1173  1.0017 -0.6817
10988TIP3   OH254454   1.262   2.577  13.902 -0.0491  0.3593  0.2021
10988TIP3    H154455   1.309   2.613  13.977 -0.0632 -0.2903  0.5229
10988TIP3    H254456   1.330   2.550  13.841  0.0301 -1.6297  1.1528
10989TIP3   OH254457   4.662   0.965   4.198  0.5372 -0.4813 -0.2652
10989TIP3    H154458   4.579   0.942   4.157  0.6495  0.3045 -0.9226
10989TIP3    H254459   4.725   0.969   4.126  0.6018  1.5199 -0.1215
10990TIP3   OH254460   6.466   2.275  11.137  0.6466  0.1746  0.5038
10990TIP3    H154461   6.470   2.270  11.041 -4.0636  2.1084  0.1083
10990TIP3    H254462   6.528   2.344  11.160  1.8719 -0.3501 -1.0641
10991TIP3   OH254463   2.506   2.420   5.283 -0.2310  0.0993  0.0369
10991TIP3    H154464   2.474   2.435   5.372 -1.1668  0.4025 -0.3442
10991TIP3    H254465   2.595   2.388   5.295 -0.5225 -0.3420  1.1029
10992TIP3   OH254466   5.300   3.533  13.228  0.1073 -0.5839 -0.0145
10992TIP3    H154467   5.376   3.585  13.204 -0.6381 -0.3042 -1.7981
10992TIP3    H254468   5.284   3.477  13.152 -2.9384  1.0670 -0.6443
10993TIP3   OH254469   0.851   1.967   4.987 -0.4948 -0.1219  0.5464
10993TIP3    H154470   0.917   1.898   4.993 -0.3704 -0.0648 -0.1740
10993TIP3    H254471   0.902   2.048   4.989 -0.6595 -0.0427  1.6767
10994TIP3   OH254472   4.253   2.179  11.282  0.2785 -0.3232  0.3180
10994TIP3    H154473   4.242   2.209  11.192 -0.4158 -0.2993  0.4102
10994TIP3    H254474   4.346   2.193  11.301  1.1904 -3.4554 -1.5296
10995TIP3   OH254475   0.527   4.159   4.796  0.3773 -1.0019  0.2960
10995TIP3    H154476   0.613   4.178   4.833  0.4791  1.0344 -0.8829
10995TIP3    H254477   0.541   4.159   4.701 -0.9957 -0.1342  0.0687
10996TIP3   OH254478   3.356   1.329  12.982 -0.8929  0.0395  0.3488
10996TIP3    H154479   3.358   1.407  12.927 -1.8668 -1.5587 -2.0451
10996TIP3    H254480   3.437   1.282  12.961  0.1829  0.8746  2.5312
10997TIP3   OH254481   2.336   1.020  10.613 -0.0344 -0.5993  0.3135
10997TIP3    H154482   2.301   1.083  10.676 -1.2480 -0.1580 -0.7791
10997TIP3    H254483   2.273   1.021  10.541  0.0792 -2.8387  0.1424
10998TIP3   OH254484   0.016   0.082   3.380  0.2097  0.2440 -0.1555
10998TIP3    H154485   0.106   0.073   3.348 -0.1896  1.3744 -1.6554
10998TIP3    H254486  -0.036   0.098   3.301 -1.3747 -0.8331  0.6596
10999TIP3   OH254487   0.324   5.181  11.647 -0.0956 -0.1798  0.1962
10999TIP3    H154488   0.237   5.203  11.681 -1.7076 -1.1061 -3.1185
10999TIP3    H254489   0.328   5.086  11.650  0.1219 -0.2288 -1.1704
11000TIP3   OH254490   3.370   1.778   4.848 -0.3154 -0.1787  0.3882
11000TIP3    H154491   3.385   1.821   4.763  1.6282  0.6107  1.1140
11000TIP3    H254492   3.391   1.686   4.833 -0.1025 -0.0666 -0.0059
11001TIP3   OH254493   1.803   6.170   1.874 -0.0344 -0.0679 -0.2520
11001TIP3    H154494   1.860   6.184   1.798 -1.5597 -2.7308 -1.9622
11001TIP3    H254495   1.829   6.085   1.908  0.5584  1.0535  2.2337
11002TIP3   OH254496   4.324   6.349   5.469 -0.0436 -0.0046  0.1964
11002TIP3    H154497   4.327   6.307   5.555 -1.8310  0.6043  0.5778
11002TIP3    H254498   4.393   6.416   5.473  0.6243 -0.7195  0.7555
11003TIP3   OH254499   4.539   6.688   4.826  1.2430  0.1914  0.3560
11003TIP3    H154500   4.507   6.611   4.778  2.8330  0.2086 -0.7767
11003TIP3    H254501   4.462   6.745   4.833  0.0154 -1.5584  1.3572
11004TIP3   OH254502   6.325   2.121  13.393 -0.1820 -0.2974  0.0792
11004TIP3    H154503   6.377   2.074  13.458 -0.9936  1.2096  1.8705
11004TIP3    H254504   6.386   2.185  13.356 -0.1774 -0.0018  0.5978
11005TIP3   OH254505   5.485   2.900  11.498  0.0647  0.2475  0.4845
11005TIP3    H154506   5.400   2.872  11.531  0.6650 -0.7686  1.2274
11005TIP3    H254507   5.493   2.991  11.525 -0.1708 -0.0789  1.7225
11006TIP3   OH254508   0.784   0.048   2.481  0.2639 -0.1763  0.1507
11006TIP3    H154509   0.818  -0.009   2.550  0.6651 -0.4317 -0.2559
11006TIP3    H254510   0.704   0.086   2.518  0.8494  0.2246  1.0045
11007TIP3   OH254511   4.969   4.250   3.645  0.0092  0.3044 -0.5161
11007TIP3    H154512   4.925   4.209   3.719  0.4660 -0.6594 -0.7546
11007TIP3    H254513   4.899   4.279   3.587 -0.3253 -0.6254 -0.5808
11008TIP3   OH254514   0.799   1.161   4.635 -0.1917  0.1387  0.4570
11008TIP3    H154515   0.847   1.159   4.717  1.9605  0.2852 -0.7648
11008TIP3    H254516   0.854   1.213   4.576 -1.1995 -0.8097 -1.3729
11009TIP3   OH254517   4.194   5.725  16.285 -0.8138  0.1349  0.1065
11009TIP3    H154518   4.101   5.722  16.309 -1.0308  2.0966 -0.3960
11009TIP3    H254519   4.201   5.667  16.209 -1.9209  1.0400 -0.7091
11010TIP3   OH254520   5.346   6.362  12.694  0.2270 -0.2363  0.2734
11010TIP3    H154521   5.261   6.319  12.691 -0.1340  0.4311  0.9103
11010TIP3    H254522   5.336   6.439  12.639  0.3489 -0.0324  0.5358
11011TIP3   OH254523   3.087   5.761   0.527  0.4621 -0.2071  0.3206
11011TIP3    H154524   3.057   5.851   0.533  0.5499 -0.1243 -0.4791
11011TIP3    H254525   3.181   5.766   0.543  0.7415  0.0489 -1.2926
11012TIP3   OH254526   1.990   3.173  16.592 -0.3310  0.5821 -0.3349
11012TIP3    H154527   1.908   3.158  16.639 -1.1540 -0.0921 -1.9208
11012TIP3    H254528   2.026   3.086  16.577 -0.4260  0.7349 -1.5250
11013TIP3   OH254529   1.469   1.756   4.141 -0.2161  0.2437  0.7201
11013TIP3    H154530   1.548   1.785   4.186 -0.9341  1.6860  1.0817
11013TIP3    H254531   1.495   1.675   4.097  1.4913  0.7677  0.7279
11014TIP3   OH254532   2.128   1.133   0.208 -0.0848  0.5030  0.0685
11014TIP3    H154533   2.217   1.130   0.242  0.1336 -0.3473 -0.5753
11014TIP3    H254534   2.133   1.193   0.133  0.6650 -2.0587 -2.0079
11015TIP3   OH254535   3.433   1.754   2.048 -0.4609  1.1765 -0.1008
11015TIP3    H154536   3.418   1.663   2.025  1.3080  0.8562 -0.0433
11015TIP3    H254537   3.380   1.769   2.126 -0.8384  0.2238 -0.1778
11016TIP3   OH254538   3.784   2.319  14.418  0.1378  0.5002 -0.1912
11016TIP3    H154539   3.729   2.256  14.372 -1.2308  2.7993 -1.8223
11016TIP3    H254540   3.725   2.393  14.435  2.1420  2.0590  0.0974
11017TIP3   OH254541   0.724   0.888  13.589  0.7296  0.3735  0.1647
11017TIP3    H154542   0.764   0.907  13.674 -0.6373 -0.7891  1.1084
11017TIP3    H254543   0.772   0.812  13.556 -0.5792 -0.9385  1.2335
11018TIP3   OH254544   6.779   3.227   0.034 -0.0729 -0.4554  0.5078
11018TIP3    H154545   6.797   3.250  -0.057  0.4414  0.2814  0.7964
11018TIP3    H254546   6.807   3.135   0.041  3.0855  0.4779  0.7852
11019TIP3   OH254547   6.551   0.954   5.045 -0.1787 -0.3076 -0.1142
11019TIP3    H154548   6.613   1.025   5.059 -2.1456  1.4230  0.1377
11019TIP3    H254549   6.511   0.940   5.131 -0.1760 -1.3780 -0.2820
11020TIP3   OH254550   0.991   6.614  15.311 -0.0989 -0.3486  0.3957
11020TIP3    H154551   0.996   6.645  15.401  0.8652 -2.3472  1.0484
11020TIP3    H254552   1.082   6.601  15.285 -0.3691  0.2700 -0.8962
11021TIP3   OH254553   3.308   0.240   5.372  0.3207 -0.3591  0.3457
11021TIP3    H154554   3.354   0.213   5.293 -0.7600 -1.0428 -0.0598
11021TIP3    H254555   3.223   0.197   5.366 -0.5413  1.2349  0.8520
11022TIP3   OH254556   6.213   3.140  13.881 -0.5377  0.3674  0.8573
11022TIP3    H154557   6.305   3.147  13.907 -0.3303 -1.5738  0.6917
11022TIP3    H254558   6.211   3.173  13.791 -0.0269  0.5611  0.9187
11023TIP3   OH254559   6.143   0.804  14.520  0.0461 -0.3472 -0.0238
11023TIP3    H154560   6.064   0.751  14.521  0.3961 -0.8714  0.7819
11023TIP3    H254561   6.177   0.795  14.431  0.5490 -2.1724  0.3237
11024TIP3   OH254562   0.166   6.247  14.181  0.0989 -0.1939 -0.0446
11024TIP3    H154563   0.170   6.302  14.259  0.7094  1.0319 -0.9281
11024TIP3    H254564   0.090   6.190  14.195  0.1653  0.0499  1.4017
11025TIP3   OH254565   0.645   3.477  14.068 -0.5862  0.4514  0.8706
11025TIP3    H154566   0.552   3.483  14.089 -0.9497  0.8850 -0.7847
11025TIP3    H254567   0.654   3.394  14.020 -0.5981  1.6124 -1.2126
11026TIP3   OH254568   2.121   3.476   1.566 -0.4047  0.4571 -0.0091
11026TIP3    H154569   2.136   3.399   1.621  0.8940  0.7541  0.0715
11026TIP3    H254570   2.055   3.447   1.502 -0.2134 -0.6003  0.2545
11027TIP3   OH254571   1.897   3.665   2.708 -0.2117 -0.1608 -0.2007
11027TIP3    H154572   1.828   3.721   2.744  2.1498  1.6855  1.6281
11027TIP3    H254573   1.939   3.719   2.641  1.1640 -0.2427  0.5758
11028TIP3   OH254574   5.113   1.861   5.457  0.0300  0.3563 -0.2392
11028TIP3    H154575   5.104   1.954   5.437  0.2785  0.5595  0.5891
11028TIP3    H254576   5.096   1.817   5.373 -0.4299  1.1242 -0.5582
11029TIP3   OH254577   4.464   4.247  14.105  0.4208 -0.3124 -0.8721
11029TIP3    H154578   4.462   4.319  14.041  1.7098  0.5801  0.0614
11029TIP3    H254579   4.544   4.199  14.084 -1.4312 -2.7315 -2.7745
11030TIP3   OH254580   5.249   3.109   2.320 -0.1055 -0.3158 -0.6769
11030TIP3    H154581   5.263   3.034   2.378  0.3257 -0.0175 -0.3942
11030TIP3    H254582   5.259   3.186   2.377  0.1086 -0.0264 -1.1043
11031TIP3   OH254583   3.657   3.449   1.041  0.1026  0.0399 -0.6644
11031TIP3    H154584   3.741   3.403   1.045  1.2262  2.1147  0.4550
11031TIP3    H254585   3.639   3.458   0.947  0.4534 -1.5629 -0.9000
11032TIP3   OH254586   0.468   6.522  14.876 -0.2015 -0.0097 -0.8013
11032TIP3    H154587   0.547   6.468  14.865 -0.0976  0.2834 -1.4784
11032TIP3    H254588   0.430   6.527  14.789 -1.3536 -0.7221 -0.3506
11033TIP3   OH254589   3.669   4.020   1.737  0.4353 -0.1367  0.0844
11033TIP3    H154590   3.698   3.929   1.738 -1.5576 -0.8202 -1.3093
11033TIP3    H254591   3.692   4.052   1.649 -1.0702 -0.0585 -0.2971
11034TIP3   OH254592   5.181   4.864   3.884 -0.0755 -0.2665 -0.7277
11034TIP3    H154593   5.107   4.904   3.839  0.1645  0.8476 -0.1569
11034TIP3    H254594   5.168   4.770   3.874 -0.4518 -0.0558 -2.4294
11035TIP3   OH254595   6.480   0.663   3.291  0.5045 -0.3350  0.5084
11035TIP3    H154596   6.555   0.661   3.351  1.5544  2.4599 -0.6400
11035TIP3    H254597   6.519   0.666   3.204 -0.8802  1.6432 -0.0874
11036TIP3   OH254598   1.465   1.421   2.154 -0.4266 -0.1959  0.0104
11036TIP3    H154599   1.525   1.480   2.108  1.2088 -0.5701  1.6177
11036TIP3    H254600   1.381   1.467   2.153  0.3366  1.2211 -0.5757
11037TIP3   OH254601   0.233   6.584   4.300  0.1600  0.2722 -0.7921
11037TIP3    H154602   0.245   6.601   4.394  2.5056  1.7367 -1.3151
11037TIP3    H254603   0.189   6.499   4.296 -1.5541  0.9814  1.6765
11038TIP3   OH254604   5.764   6.205   5.097 -0.2349 -0.0031  0.4354
11038TIP3    H154605   5.797   6.287   5.059 -1.8417  0.4217 -0.1138
11038TIP3    H254606   5.689   6.233   5.150 -0.8486 -1.1272  0.1701
11039TIP3   OH254607   4.677   2.954   3.287 -0.0806 -0.6229  0.3773
11039TIP3    H154608   4.693   3.048   3.281 -1.1246 -0.5192 -0.7879
11039TIP3    H254609   4.614   2.935   3.218  1.4508 -2.4815 -0.5746
11040TIP3   OH254610   2.812   1.750   4.976  0.5820  0.0284  0.0416
11040TIP3    H154611   2.870   1.715   5.043 -0.3751  0.9759  1.3756
11040TIP3    H254612   2.827   1.845   4.977 -1.1707  0.3172  0.5848
11041TIP3   OH254613   4.821   2.760   1.387 -0.5988  0.0982  0.4435
11041TIP3    H154614   4.900   2.808   1.414 -0.4967  0.2644 -0.1499
11041TIP3    H254615   4.854   2.685   1.337 -0.6288 -1.9102  3.2755
11042TIP3   OH254616   0.747   4.486   1.863 -0.2193 -0.3079 -0.3111
11042TIP3    H154617   0.702   4.542   1.799 -0.6384  0.6757  0.8188
11042TIP3    H254618   0.691   4.490   1.941 -0.5287 -2.7326 -0.3838
11043TIP3   OH254619   6.163   1.787  12.134 -0.4795 -0.3610 -0.0948
11043TIP3    H154620   6.256   1.785  12.158 -0.3761  0.5826 -0.3906
11043TIP3    H254621   6.120   1.829  12.208 -0.3654  1.1594 -0.8535
11044TIP3   OH254622   3.126   1.430   3.888  0.5428  0.3148 -0.4641
11044TIP3    H154623   3.037   1.463   3.902  0.2431 -1.1283  1.2092
11044TIP3    H254624   3.143   1.445   3.795 -0.6122  2.5927 -0.3393
11045TIP3   OH254625   5.937   3.442   2.183 -0.7400 -0.1661  0.3863
11045TIP3    H154626   5.857   3.493   2.173  0.4508  1.4442 -1.2961
11045TIP3    H254627   5.919   3.384   2.257 -1.8194  3.3179  2.9974
11046TIP3   OH254628   1.747   5.058  16.686  0.1477  0.3249 -0.5340
11046TIP3    H154629   1.779   4.971  16.710  0.2662  0.3068 -0.7492
11046TIP3    H254630   1.685   5.081  16.755  0.2227  0.1288 -0.3992
11047TIP3   OH254631   6.456   1.698  15.791 -0.0424 -0.6864  0.3181
11047TIP3    H154632   6.370   1.659  15.776  0.0655 -0.7638 -0.0902
11047TIP3    H254633   6.490   1.714  15.704  1.1045 -2.2746  0.4574
11048TIP3   OH254634   4.584   6.322  14.612 -0.3113 -0.0532  0.1536
11048TIP3    H154635   4.636   6.243  14.627  0.5282  0.3186 -0.7496
11048TIP3    H254636   4.581   6.366  14.697  2.6771  1.0189 -0.2383
11049TIP3   OH254637   5.518   6.015   4.720  0.1866  0.5526  0.3256
11049TIP3    H154638   5.559   6.004   4.634 -0.0141 -1.6101  0.4699
11049TIP3    H254639   5.591   6.029   4.780  0.4144  0.7934 -0.0039
11050TIP3   OH254640   1.877   3.091   0.221  0.4598  0.3809  0.3106
11050TIP3    H154641   1.914   3.093   0.133  1.9872  3.6460  0.9750
11050TIP3    H254642   1.785   3.116   0.209  0.3142 -0.5012 -0.4837
11051TIP3   OH254643   1.741   2.035   6.093 -0.4077  0.3131 -0.4404
11051TIP3    H154644   1.677   1.991   6.149  0.1338 -0.0067 -0.0687
11051TIP3    H254645   1.767   1.968   6.029 -0.5648  0.4910 -0.6906
11052TIP3   OH254646   2.909   6.795   0.694 -0.0347  0.3962 -0.9256
11052TIP3    H154647   2.937   6.843   0.771  1.5159 -1.5871 -0.1938
11052TIP3    H254648   2.838   6.739   0.725 -0.6151  0.8797 -1.3594
11053TIP3   OH254649   2.234   0.260  13.139  0.0089 -0.1268 -0.2472
11053TIP3    H154650   2.267   0.180  13.099  0.6278 -0.4322  0.8480
11053TIP3    H254651   2.182   0.302  13.070 -0.0224 -1.2836 -0.9392
11054TIP3   OH254652   5.575   6.084  13.750  0.4631 -0.2976  0.3608
11054TIP3    H154653   5.577   6.057  13.658 -1.5596  2.1632 -0.4622
11054TIP3    H254654   5.599   6.177  13.749 -3.1355  0.7479  1.8376
11055TIP3   OH254655   4.169   3.182  10.488  0.2546 -0.2033 -0.1679
11055TIP3    H154656   4.156   3.273  10.460  0.0251 -0.1410  0.1346
11055TIP3    H254657   4.114   3.131  10.429  0.4993 -0.1623 -0.4347
11056TIP3   OH254658   6.508   4.939   0.689  0.1949  0.3913  0.0193
11056TIP3    H154659   6.449   4.868   0.716  1.5511 -0.7566 -0.0205
11056TIP3    H254660   6.512   4.997   0.765 -1.2287  0.6464 -0.0847
11057TIP3   OH254661   0.947   2.768   1.761 -0.4518  0.4743 -0.2429
11057TIP3    H154662   0.907   2.836   1.815 -1.0239 -0.1632  0.1503
11057TIP3    H254663   0.872   2.717   1.729 -0.1710  1.2202 -2.1539
11058TIP3   OH254664   4.989   5.707  12.629 -0.3460 -0.7652 -0.2419
11058TIP3    H154665   5.061   5.678  12.685 -0.4746  0.1309  0.4064
11058TIP3    H254666   5.012   5.676  12.542  1.2327  0.1941 -0.1833
11059TIP3   OH254667   2.826   6.217   1.487  0.6322 -0.2786  0.7697
11059TIP3    H154668   2.745   6.264   1.467 -0.1399 -1.6224  0.6702
11059TIP3    H254669   2.828   6.144   1.425  1.5179 -0.7194  1.2995
11060TIP3   OH254670   6.128   1.272   1.966 -0.2484  0.1610 -0.3782
11060TIP3    H154671   6.048   1.326   1.967  0.1042  0.7394 -1.6580
11060TIP3    H254672   6.196   1.332   1.935  0.4099 -0.6967 -0.5861
11061TIP3   OH254673   0.069   1.252  14.272 -0.4757 -0.6931  0.4167
11061TIP3    H154674   0.111   1.338  14.276  0.0964 -1.0016  1.2853
11061TIP3    H254675   0.050   1.239  14.179  1.0670 -0.3904  0.0387
11062TIP3   OH254676   5.565   6.033   1.549 -0.2964  0.1421  0.7335
11062TIP3    H154677   5.651   6.002   1.521 -0.1472  0.8440  0.4045
11062TIP3    H254678   5.541   5.975   1.622  0.4337 -0.0857  0.7949
11063TIP3   OH254679   4.836   4.186  11.883  0.5246  0.0312  0.4297
11063TIP3    H154680   4.821   4.266  11.834  1.1189  0.1831  0.4952
11063TIP3    H254681   4.849   4.118  11.816  0.5448  0.0901  0.3743
11064TIP3   OH254682   1.676   5.394   2.399 -0.0416  0.1146  0.6349
11064TIP3    H154683   1.629   5.466   2.356 -0.9660  0.9416  2.9583
11064TIP3    H254684   1.763   5.397   2.361 -0.1605  2.2953  0.4710
11065TIP3   OH254685   4.956   4.367   1.162 -0.4912 -0.4580 -0.0796
11065TIP3    H154686   4.860   4.361   1.160 -0.5135  0.1891 -2.7255
11065TIP3    H254687   4.985   4.309   1.091  0.9777  0.6286 -0.3769
11066TIP3   OH254688   3.448   2.674   0.747  0.8107  0.6390  0.3775
11066TIP3    H154689   3.537   2.708   0.747  0.9899  0.2195 -1.2052
11066TIP3    H254690   3.402   2.728   0.682  0.3692 -0.3036 -0.1006
11067TIP3   OH254691   1.369   1.249   0.589 -0.2453  0.0647 -0.3379
11067TIP3    H154692   1.378   1.235   0.683 -1.2813 -0.4129 -0.2999
11067TIP3    H254693   1.374   1.344   0.578 -3.7319  0.4357  0.6298
11068TIP3   OH254694   0.471   0.784  13.355 -0.5006 -0.1509  0.1278
11068TIP3    H154695   0.532   0.768  13.427 -1.5705 -0.8811  0.9050
11068TIP3    H254696   0.521   0.835  13.292  0.9261 -0.7849  0.7128
11069TIP3   OH254697   0.486   3.933   4.094  0.0599  0.1527 -0.4146
11069TIP3    H154698   0.508   4.016   4.136 -1.3606  0.3673 -0.0955
11069TIP3    H254699   0.412   3.953   4.037 -0.3076 -0.9124 -0.3170
11070TIP3   OH254700   0.646   5.790  15.524 -0.0109 -0.0537 -0.0598
11070TIP3    H154701   0.648   5.706  15.478 -0.0767  0.3420 -0.8002
11070TIP3    H254702   0.575   5.839  15.482  0.4009  0.5874 -0.0172
11071TIP3   OH254703   1.673   1.852  16.195 -0.0214 -0.0802 -0.0643
11071TIP3    H154704   1.620   1.911  16.142 -1.4920  0.1585  1.6123
11071TIP3    H254705   1.753   1.901  16.213  0.1418  0.1461 -1.3506
11072TIP3   OH254706   5.403   4.909  13.244 -0.4504  0.2193 -0.1765
11072TIP3    H154707   5.312   4.888  13.222 -0.5316  0.9960 -0.6004
11072TIP3    H254708   5.434   4.960  13.169 -0.0277  0.9538  0.4952
11073TIP3   OH254709   0.625   1.132   5.133  0.1343 -0.1669  0.1303
11073TIP3    H154710   0.703   1.164   5.179  1.1102 -0.9392 -0.9603
11073TIP3    H254711   0.628   1.175   5.048  1.5796 -3.2070 -1.4346
11074TIP3   OH254712   5.902   3.334  15.558  0.0024 -0.1445  0.0959
11074TIP3    H154713   5.863   3.299  15.479  2.4584  1.2866 -1.8249
11074TIP3    H254714   5.835   3.392  15.594 -0.5502  0.4635 -1.8477
11075TIP3   OH254715   3.782   1.153  15.110 -0.0308 -0.6396 -0.2921
11075TIP3    H154716   3.871   1.122  15.095  0.0659 -0.7883  0.5749
11075TIP3    H254717   3.755   1.191  15.026  1.0052 -0.1789 -0.4164
11076TIP3   OH254718   0.506   5.197   5.994 -0.2241 -0.2668  0.2453
11076TIP3    H154719   0.472   5.115   6.031 -0.6477  0.4248  1.4174
11076TIP3    H254720   0.486   5.263   6.061 -1.2358  1.0538 -1.3207
11077TIP3   OH254721   6.804   5.714   5.230  0.3307 -0.7437  0.0449
11077TIP3    H154722   6.754   5.794   5.250  2.0925  0.4284 -0.0994
11077TIP3    H254723   6.788   5.699   5.137  1.6663  0.7017 -0.4570
11078TIP3   OH254724   1.658   6.350   6.463  0.6820 -0.0061 -0.1895
11078TIP3    H154725   1.649   6.279   6.526 -0.6174  1.0363  0.8468
11078TIP3    H254726   1.634   6.311   6.379 -1.0702 -0.5506  0.5382
11079TIP3   OH254727   4.377   3.094  16.421 -0.7029 -0.3851 -0.1473
11079TIP3    H154728   4.403   3.168  16.366  0.6547 -0.5397  0.2590
11079TIP3    H254729   4.340   3.134  16.499  0.2857 -0.1111  0.1948
11080TIP3   OH254730   2.148   4.728   2.915 -0.3134  0.2745  0.7511
11080TIP3    H154731   2.146   4.785   2.991 -1.1785  1.2808 -0.0126
11080TIP3    H254732   2.061   4.736   2.876 -0.9117 -2.5771  1.3653
11081TIP3   OH254733   4.004   0.115  15.874 -0.2174 -0.4481  0.1820
11081TIP3    H154734   3.921   0.157  15.851 -0.2330  0.3690  1.6573
11081TIP3    H254735   4.069   0.185  15.865  0.0583 -0.6487  0.6046
11082TIP3   OH254736   2.036   0.226  13.320 -0.4895 -0.0500  1.1922
11082TIP3    H154737   2.117   0.218  13.270 -0.1689 -0.1407  1.7170
11082TIP3    H254738   2.065   0.227  13.411 -1.0909 -0.2154  1.3855
11083TIP3   OH254739   3.278   3.773  12.835 -0.4006  0.0280 -0.2334
11083TIP3    H154740   3.358   3.751  12.882 -0.0694  1.2982 -0.1909
11083TIP3    H254741   3.211   3.716  12.873  0.5927 -1.4651 -0.6855
11084TIP3   OH254742   4.053   3.002  15.331  0.1921 -0.8258 -0.1176
11084TIP3    H154743   4.109   2.965  15.263 -0.3357  0.7995 -1.4732
11084TIP3    H254744   4.113   3.050  15.388  0.6829 -2.4782  0.8082
11085TIP3   OH254745   3.257   4.142  11.280 -0.4737  0.3568  0.2784
11085TIP3    H154746   3.328   4.154  11.217 -0.1842  0.0168  0.5338
11085TIP3    H254747   3.209   4.066  11.248 -0.1301 -0.0198  0.6392
11086TIP3   OH254748   5.253   1.592   2.747  0.2385 -0.3940 -0.4462
11086TIP3    H154749   5.283   1.676   2.782 -0.9165  0.3110 -1.1060
11086TIP3    H254750   5.163   1.609   2.720  0.4923 -1.4421 -1.9832
11087TIP3   OH254751   1.836   1.929   6.555  0.4418  0.1827  0.3185
11087TIP3    H154752   1.791   2.002   6.597  0.4050  1.3788 -1.7289
11087TIP3    H254753   1.797   1.851   6.594 -0.2490  1.2247  1.7806
11088TIP3   OH254754   5.939   2.817   3.905 -0.1282 -0.7122  0.2659
11088TIP3    H154755   5.959   2.879   3.835 -0.5654 -2.4279 -1.4047
11088TIP3    H254756   6.010   2.753   3.902  1.0417  0.3993  2.8602
11089TIP3   OH254757   4.821   1.457   5.751 -0.8653  0.1097  0.0162
11089TIP3    H154758   4.888   1.433   5.815 -0.2411 -1.4993 -1.2168
11089TIP3    H254759   4.751   1.496   5.804 -0.2723 -0.9814  1.6518
11090TIP3   OH254760   4.183   2.631   1.095  0.5546  0.3785 -0.2203
11090TIP3    H154761   4.160   2.590   1.178  0.1311 -1.0264 -1.0110
11090TIP3    H254762   4.143   2.718   1.099  0.5302  0.3168  1.0324
11091TIP3   OH254763   0.648   5.334   0.946  0.2404  0.1347  0.0111
11091TIP3    H154764   0.650   5.246   0.909  0.4251  0.1278  0.0387
11091TIP3    H254765   0.728   5.375   0.913 -0.7451  0.8971 -1.5176
11092TIP3   OH254766   4.994   4.822   2.641 -0.3669 -0.0070  0.4840
11092TIP3    H154767   4.914   4.768   2.638 -0.9498  0.7702  1.5690
11092TIP3    H254768   4.979   4.891   2.577  0.2806 -0.9846 -0.7382
11093TIP3   OH254769   6.212   4.566   0.796  0.4350 -0.4981  1.0889
11093TIP3    H154770   6.303   4.597   0.789  0.3355 -0.7885 -2.1582
11093TIP3    H254771   6.218   4.489   0.852  2.1929 -0.4589  0.9947
11094TIP3   OH254772   6.217   5.679   2.958 -0.5368 -0.0072 -0.0881
11094TIP3    H154773   6.244   5.648   2.871 -0.5664  0.0841 -0.1304
11094TIP3    H254774   6.278   5.750   2.977  0.9482 -1.5347  0.9576
11095TIP3   OH254775   4.798   0.872   0.988 -0.4415  0.2682  0.4735
11095TIP3    H154776   4.791   0.940   1.054  2.0124  2.1123 -1.0832
11095TIP3    H254777   4.891   0.847   0.988 -1.4155 -3.7997  1.6512
11096TIP3   OH254778   2.410   3.465   2.045  0.5811  0.1873  0.0572
11096TIP3    H154779   2.457   3.479   2.128  1.1131  1.3720 -0.4410
11096TIP3    H254780   2.471   3.493   1.977  0.4263 -1.4873 -0.7990
11097TIP3   OH254781   0.028   5.802   2.372  0.1596 -0.6764 -0.5945
11097TIP3    H154782   0.100   5.840   2.421 -0.5335  0.1620 -0.2108
11097TIP3    H254783   0.038   5.837   2.284  0.0337 -0.3024 -0.4606
11098TIP3   OH254784   1.385   6.161  11.215  0.1539  0.4224 -0.0564
11098TIP3    H154785   1.458   6.144  11.274  0.0146  0.0695  0.0168
11098TIP3    H254786   1.426   6.185  11.132  0.3471  1.2961  0.2869
11099TIP3   OH254787   5.500   2.537  16.033  0.4946  0.4640 -0.1010
11099TIP3    H154788   5.483   2.624  16.067 -1.5679  0.5114 -1.1674
11099TIP3    H254789   5.419   2.489  16.047  1.1129 -0.8521 -0.8656
11100TIP3   OH254790   6.753   3.844   1.525  1.2671 -0.2548 -0.0810
11100TIP3    H154791   6.673   3.868   1.479  0.4034 -1.1416  0.9233
11100TIP3    H254792   6.816   3.913   1.502  0.1167  0.6387 -0.5993
11101TIP3   OH254793   2.048   2.264  10.456 -0.8153 -0.1917 -0.9871
11101TIP3    H154794   2.014   2.175  10.447 -0.3422 -0.5403  0.5506
11101TIP3    H254795   1.975   2.313  10.494 -0.2076 -0.5390  0.6562
11102TIP3   OH254796   3.789   2.337   3.087  0.3708 -0.4952 -0.5361
11102TIP3    H154797   3.695   2.354   3.088  0.2266 -1.2970 -0.1330
11102TIP3    H254798   3.826   2.403   3.146  0.0530 -0.2401 -0.6227
11103TIP3   OH254799   1.565   4.870  14.155  0.0455  0.1529  0.3852
11103TIP3    H154800   1.573   4.966  14.152  0.4650  0.0975 -0.4767
11103TIP3    H254801   1.635   4.842  14.214  0.1340  0.3517  0.3773
11104TIP3   OH254802   1.384   3.970   5.998  0.4207  0.4716  0.0276
11104TIP3    H154803   1.299   3.927   5.990  1.4046 -1.1950 -2.1038
11104TIP3    H254804   1.363   4.058   6.028 -1.8182 -0.7579  2.2363
11105TIP3   OH254805   4.147   3.263   3.560  0.0152 -0.4925 -0.0072
11105TIP3    H154806   4.119   3.347   3.525  1.0279  0.6748  1.8682
11105TIP3    H254807   4.242   3.269   3.564  0.0028 -1.0615  1.7121
11106TIP3   OH254808   4.478   3.980  12.353  0.3992 -0.5878 -0.1645
11106TIP3    H154809   4.529   3.898  12.351  1.2930 -0.0040 -2.6523
11106TIP3    H254810   4.392   3.953  12.385  1.2828 -2.1397  1.0289
11107TIP3   OH254811   2.588   2.120  12.853  0.0038 -0.2169 -0.2930
11107TIP3    H154812   2.566   2.211  12.873 -2.8560 -0.8906 -0.2336
11107TIP3    H254813   2.578   2.074  12.936  1.4147 -0.6122 -0.3281
11108TIP3   OH254814   4.460   0.443   3.507  0.6028  0.3691  0.0608
11108TIP3    H154815   4.527   0.507   3.533  1.3040 -0.5827  0.6310
11108TIP3    H254816   4.380   0.495   3.496  1.4882  1.5688 -0.8949
11109TIP3   OH254817   2.539   6.476  11.953  0.2447 -0.4430 -0.0786
11109TIP3    H154818   2.493   6.486  11.870  0.5572 -0.1654 -0.2168
11109TIP3    H254819   2.469   6.475  12.019 -0.0102 -0.7858 -0.3527
11110TIP3   OH254820   2.209   1.985  17.073  0.4750 -0.0965 -0.3733
11110TIP3    H154821   2.219   2.028  16.989  0.9362 -1.8183 -1.2196
11110TIP3    H254822   2.293   1.998  17.117  0.4946  0.1382 -0.4822
11111TIP3   OH254823   5.969   0.238  13.317 -0.3236  0.2251  0.3369
11111TIP3    H154824   5.945   0.302  13.384 -1.7661  1.0027 -0.8918
11111TIP3    H254825   5.899   0.243  13.253  1.1393 -0.3668 -1.3441
11112TIP3   OH254826   6.669   5.305   5.020  0.0930 -0.1436 -0.1493
11112TIP3    H154827   6.690   5.228   4.968 -0.1242 -0.3910  0.1355
11112TIP3    H254828   6.755   5.341   5.045  0.1892 -1.3110  1.2457
11113TIP3   OH254829   6.741   1.138  11.926  0.2182  0.0645  0.4641
11113TIP3    H154830   6.748   1.050  11.890  2.6558  1.1718 -1.9735
11113TIP3    H254831   6.647   1.153  11.935 -0.2648 -2.2376 -0.4572
11114TIP3   OH254832   3.196   6.030  12.624  0.7675 -0.3525  0.0143
11114TIP3    H154833   3.246   6.063  12.549  0.3189  0.2514 -0.0189
11114TIP3    H254834   3.254   6.047  12.699  0.7619  0.0296 -0.0659
11115TIP3   OH254835   6.136   0.887  15.752 -0.0993  0.0704 -0.0178
11115TIP3    H154836   6.204   0.825  15.725  0.1046  0.7169 -1.0169
11115TIP3    H254837   6.185   0.962  15.786 -0.3391 -0.0418  0.5886
11116TIP3   OH254838   3.602   1.208  17.271 -0.1661 -0.0381 -0.0425
11116TIP3    H154839   3.630   1.118  17.284  1.7021  0.6513  0.8874
11116TIP3    H254840   3.538   1.203  17.200  0.8860 -1.9190 -0.8977
11117TIP3   OH254841   2.547   6.808   1.192  0.0223  0.0752  0.0026
11117TIP3    H154842   2.529   6.830   1.283 -0.7466 -3.2997  0.7691
11117TIP3    H254843   2.641   6.821   1.182 -0.0728  1.5828  0.9295
11118TIP3   OH254844   2.023   6.479  14.532  0.4301  0.0720  0.1198
11118TIP3    H154845   2.061   6.566  14.522  0.1048  0.0665 -1.3363
11118TIP3    H254846   1.975   6.483  14.615  3.4813  0.0817  1.9467
11119TIP3   OH254847   3.229   2.780  14.855  0.5865 -0.1113 -0.0738
11119TIP3    H154848   3.157   2.719  14.869  1.0413 -1.0800 -1.7915
11119TIP3    H254849   3.200   2.862  14.895 -2.2499  0.0765 -2.3862
11120TIP3   OH254850   1.232   6.383   4.294  0.6902  0.2094  0.0954
11120TIP3    H154851   1.278   6.358   4.214  0.8664 -0.9803  0.5607
11120TIP3    H254852   1.274   6.332   4.363 -1.3503 -0.9666  0.5189
11121TIP3   OH254853   4.374   0.591   1.019  0.6577 -0.2314 -0.3047
11121TIP3    H154854   4.441   0.619   1.081 -0.9815  0.3746  1.2139
11121TIP3    H254855   4.327   0.520   1.063 -0.2285 -0.1100 -1.0222
11122TIP3   OH254856   1.735   0.138  12.816 -0.2705  0.2103  0.0437
11122TIP3    H154857   1.694   0.208  12.868  0.2699 -0.3010  1.1686
11122TIP3    H254858   1.825   0.134  12.847 -0.3144 -1.0315  0.0357
11123TIP3   OH254859   5.232   2.922  14.029 -0.3791 -0.2573  0.3534
11123TIP3    H154860   5.296   2.939  14.098 -1.2367 -0.8787  1.3092
11123TIP3    H254861   5.223   3.006  13.984  0.8454 -0.0802  0.4388
11124TIP3   OH254862   0.901   0.969  14.195 -0.2704 -0.2725 -0.2757
11124TIP3    H154863   0.975   1.027  14.176 -0.8020  0.3922 -0.3368
11124TIP3    H254864   0.940   0.893  14.238  0.6307 -0.5662 -1.5787
11125TIP3   OH254865   2.268   5.099   5.881 -0.0909 -0.1726  0.0339
11125TIP3    H154866   2.250   5.103   5.975  0.0866  0.2988  0.0513
11125TIP3    H254867   2.364   5.095   5.875 -0.1670 -2.0906 -0.0727
11126TIP3   OH254868   0.813   0.247  11.895  0.4825 -0.3270  0.3415
11126TIP3    H154869   0.787   0.182  11.960  0.3178  0.7002  1.3163
11126TIP3    H254870   0.822   0.328  11.944 -1.1238  0.8052 -1.1535
11127TIP3   OH254871   0.921   4.279   3.603  0.0290 -0.5774 -0.8675
11127TIP3    H154872   0.885   4.209   3.656 -2.3050  1.1989 -0.0321
11127TIP3    H254873   0.847   4.312   3.552  0.3412  3.1943  0.9116
11128TIP3   OH254874   1.966   0.776  14.725 -0.3339 -0.1554 -0.4932
11128TIP3    H154875   2.038   0.768  14.662 -0.9164  2.1021 -1.5064
11128TIP3    H254876   1.897   0.823  14.677 -1.2080  0.6277  1.4798
11129TIP3   OH254877   6.333   5.786  12.826 -0.3617  0.1521 -0.1048
11129TIP3    H154878   6.409   5.728  12.831 -0.4706 -0.0555 -0.8298
11129TIP3    H254879   6.258   5.726  12.830 -0.4757  0.2533 -0.7942
11130TIP3   OH254880   6.709   2.839  14.642  1.0657  0.5218 -0.1677
11130TIP3    H154881   6.679   2.827  14.552  1.7734 -2.4208 -0.0318
11130TIP3    H254882   6.803   2.853  14.635  1.1598  0.0380  0.1521
11131TIP3   OH254883   2.868   6.149  16.716  0.5761  0.1029 -0.1536
11131TIP3    H154884   2.920   6.221  16.751  0.2083 -0.0652  0.7547
11131TIP3    H254885   2.932   6.082  16.692  0.8541  0.3757 -0.1712
11132TIP3   OH254886   4.778   5.549   2.159 -0.2478 -0.1765 -0.1150
11132TIP3    H154887   4.759   5.455   2.147 -0.0423 -0.4037  1.2373
11132TIP3    H254888   4.693   5.591   2.153 -0.8038 -0.8427  2.7420
11133TIP3   OH254889   2.067   6.768   0.508  0.2898  0.1895  0.2801
11133TIP3    H154890   2.148   6.770   0.559 -0.6847 -0.2054  1.8878
11133TIP3    H254891   2.082   6.830   0.437  1.0377  2.1492  2.0835
11134TIP3   OH254892   0.996   6.412   4.770 -0.0516 -0.8131 -0.0573
11134TIP3    H154893   0.963   6.500   4.754 -0.0820 -0.1375  3.2478
11134TIP3    H254894   1.088   6.424   4.791  0.2484 -1.7152 -0.8177
11135TIP3   OH254895   2.235   0.299  15.499 -0.2301 -0.8474 -0.1565
11135TIP3    H154896   2.172   0.227  15.505 -1.1116 -0.1423 -0.7568
11135TIP3    H254897   2.197   0.359  15.434  1.0376 -0.3840 -0.4804
11136TIP3   OH254898   4.422   4.045  15.589 -0.1302  0.2155 -0.0311
11136TIP3    H154899   4.400   4.131  15.625 -1.3331 -0.2416  0.3483
11136TIP3    H254900   4.409   3.984  15.662  1.4740 -0.1979 -0.0698
11137TIP3   OH254901   4.225   0.763  15.870  0.1964 -0.8495  0.4081
11137TIP3    H154902   4.291   0.725  15.812 -0.1835 -0.9831  0.0613
11137TIP3    H254903   4.276   0.806  15.939  0.7460  2.1111 -1.7424
11138TIP3   OH254904   3.446   1.729   0.193 -0.0006  0.6196  0.3740
11138TIP3    H154905   3.513   1.714   0.126  0.2103  0.9319  0.5151
11138TIP3    H254906   3.482   1.798   0.248  0.1240 -0.1150  1.2215
11139TIP3   OH254907   3.601   1.630   4.410  0.0294 -0.1618  0.2980
11139TIP3    H154908   3.632   1.570   4.477  1.3196 -0.8360 -0.8994
11139TIP3    H254909   3.517   1.594   4.382  0.6603 -1.2586 -0.2065
11140TIP3   OH254910   6.741   0.552   0.758 -0.5739 -0.1561 -0.4671
11140TIP3    H154911   6.836   0.538   0.756 -0.8156 -1.8941 -0.9875
11140TIP3    H254912   6.724   0.590   0.844  0.6413  0.5062 -0.5154
11141TIP3   OH254913   2.716   4.268  13.996  0.5536 -0.2201  0.0075
11141TIP3    H154914   2.804   4.256  13.961  1.1233 -0.8620  1.6162
11141TIP3    H254915   2.715   4.359  14.027  0.4967 -0.0708 -0.4316
11142TIP3   OH254916   0.575   2.234  14.144 -0.4036  0.8470 -0.0238
11142TIP3    H154917   0.528   2.170  14.091 -1.0296  0.6431  0.7720
11142TIP3    H254918   0.522   2.243  14.224  0.9529  0.5475  0.9189
11143TIP3   OH254919   2.181   0.754   1.847  1.1259 -0.2180 -0.2257
11143TIP3    H154920   2.120   0.797   1.787  0.3137 -0.6612  0.2725
11143TIP3    H254921   2.145   0.667   1.860  1.1028 -0.0157  1.1760
11144TIP3   OH254922   5.115   0.585  13.444 -0.0703  0.3392  0.2363
11144TIP3    H154923   5.068   0.511  13.482  1.1485 -0.9764 -0.8090
11144TIP3    H254924   5.096   0.581  13.350 -0.0704  1.4148  0.1772
11145TIP3   OH254925   2.215   0.058  14.266  0.3426  0.0069  0.0276
11145TIP3    H154926   2.264   0.118  14.322 -2.7787  1.6472  1.1303
11145TIP3    H254927   2.176   0.114  14.199 -0.3485 -1.1977 -0.5840
11146TIP3   OH254928   6.785   3.025  12.463 -0.3100 -0.0039  0.3479
11146TIP3    H154929   6.878   3.027  12.486 -0.3322 -1.9340  0.6757
11146TIP3    H254930   6.781   2.975  12.382 -0.8702  1.8234 -0.7984
11147TIP3   OH254931   3.218   4.925  10.480  0.5660 -0.1251  0.0709
11147TIP3    H154932   3.234   4.840  10.439  0.0677 -1.5546  2.7585
11147TIP3    H254933   3.126   4.945  10.461  1.1554  0.7281 -2.0996
11148TIP3   OH254934   3.200   0.207  14.722 -0.3811 -0.6471  0.5609
11148TIP3    H154935   3.236   0.203  14.634  1.2348  1.7267  1.0779
11148TIP3    H254936   3.115   0.163  14.715  0.1672 -1.3821 -1.9298
11149TIP3   OH254937   0.957   1.840  16.560  0.7302 -0.6233 -0.3306
11149TIP3    H154938   0.913   1.871  16.639 -2.2404 -1.3384 -1.6168
11149TIP3    H254939   0.956   1.914  16.500  0.1228 -1.0157 -0.8146
11150TIP3   OH254940   1.009   4.090  14.637  0.2952  0.4333 -0.1826
11150TIP3    H154941   1.062   4.170  14.645 -2.2660  1.9716  2.1987
11150TIP3    H254942   1.061   4.033  14.580  2.7890  3.2765 -0.9004
11151TIP3   OH254943   1.974   0.109   1.002 -0.1264 -0.2305 -0.5321
11151TIP3    H154944   1.990   0.183   1.060 -0.7561 -2.3459  2.4616
11151TIP3    H254945   1.951   0.149   0.918  1.3485  2.9143  0.4836
11152TIP3   OH254946   2.802   1.712   5.897 -0.7724  0.2164  1.1273
11152TIP3    H154947   2.777   1.684   5.808  0.3178 -0.2498  0.9658
11152TIP3    H254948   2.849   1.794   5.883  0.9239 -0.7473  1.1197
11153TIP3   OH254949   2.332   3.013  11.028 -0.1042  0.1464 -0.9276
11153TIP3    H154950   2.290   2.977  10.950 -0.0872  0.3118 -1.0147
11153TIP3    H254951   2.270   2.996  11.098 -0.3400  0.4383 -1.0643
11154TIP3   OH254952   3.928   2.791  16.500 -0.0449 -0.2673  0.4211
11154TIP3    H154953   3.949   2.779  16.408  2.3450  2.6535  0.5134
11154TIP3    H254954   3.991   2.734  16.546 -0.5388 -0.9201  0.2925
11155TIP3   OH254955   0.134   3.067  13.328 -0.2262 -0.0805  0.0246
11155TIP3    H154956   0.100   3.033  13.410  0.2239  0.7140  0.5558
11155TIP3    H254957   0.149   2.990  13.273 -1.4609 -0.5371  0.3214
11156TIP3   OH254958   5.433   2.486   1.199  0.6566 -0.2690 -0.3981
11156TIP3    H154959   5.460   2.399   1.230 -0.7488  0.2367  2.4398
11156TIP3    H254960   5.347   2.471   1.159 -0.3508 -0.0015  1.5634
11157TIP3   OH254961   5.012   0.134  15.836 -0.1189  0.2492 -0.0524
11157TIP3    H154962   5.025   0.203  15.772  2.7878 -0.7809 -0.6795
11157TIP3    H254963   5.042   0.172  15.919  1.8370 -0.3202 -0.4663
11158TIP3   OH254964   6.169   5.954   0.589  0.4750  0.2794  0.3440
11158TIP3    H154965   6.127   6.007   0.522 -0.3702 -1.2283 -0.3374
11158TIP3    H254966   6.185   6.016   0.661 -0.3735  1.4794 -0.4707
11159TIP3   OH254967   3.309   1.240   6.000  0.1642 -0.4094  0.4131
11159TIP3    H154968   3.226   1.197   5.977 -0.2837  0.0802  1.0743
11159TIP3    H254969   3.301   1.258   6.094  0.4492  0.8444  0.2089
11160TIP3   OH254970   5.543   5.338   4.810  0.0223 -0.4000 -0.2644
11160TIP3    H154971   5.481   5.272   4.841  0.6970 -0.5664  0.7704
11160TIP3    H254972   5.521   5.416   4.862  2.4886 -1.2544  2.1692
11161TIP3   OH254973   3.732   5.362   3.462 -0.0945  0.3550  0.2082
11161TIP3    H154974   3.686   5.352   3.545  1.5379 -0.6299  1.0132
11161TIP3    H254975   3.806   5.420   3.482 -0.8338  1.7706 -1.0275
11162TIP3   OH254976   5.356   6.287   0.461 -0.5838 -0.1124  0.4551
11162TIP3    H154977   5.371   6.212   0.404 -0.2956  2.0141 -2.4049
11162TIP3    H254978   5.263   6.282   0.483 -0.8544 -0.6043 -0.7631
11163TIP3   OH254979   0.211   2.144   0.326  0.8772 -0.1590 -0.6014
11163TIP3    H154980   0.254   2.169   0.245 -0.5965  0.4123 -1.2320
11163TIP3    H254981   0.257   2.065   0.355  2.2091  0.3364 -1.3286
11164TIP3   OH254982   6.250   4.833  11.652 -0.1572  0.4356  0.2680
11164TIP3    H154983   6.171   4.883  11.629  0.9991  2.0246 -0.3333
11164TIP3    H254984   6.218   4.762  11.708 -2.0415  0.9286 -0.1446
11165TIP3   OH254985   2.113   4.427   1.280  0.1760 -0.5916  0.0876
11165TIP3    H154986   2.121   4.377   1.199  1.6121 -1.4382  0.7486
11165TIP3    H254987   2.026   4.468   1.274 -0.6717 -2.4630 -0.8413
11166TIP3   OH254988   0.317   2.952   3.255 -0.2713 -0.6335 -0.2197
11166TIP3    H154989   0.231   2.971   3.293  0.5885  0.1873  1.3984
11166TIP3    H254990   0.333   2.860   3.276 -0.7192 -0.7579 -0.4293
11167TIP3   OH254991   4.785   3.675   2.588  0.0766 -0.1211 -0.0032
11167TIP3    H154992   4.875   3.672   2.622 -0.0801 -3.5846  0.2885
11167TIP3    H254993   4.736   3.720   2.657  1.0857 -0.7314  1.1452
11168TIP3   OH254994   6.184   2.067  12.754  0.0913  0.1393  0.3042
11168TIP3    H154995   6.154   2.022  12.676 -0.5727  1.3580 -0.1609
11168TIP3    H254996   6.111   2.062  12.815 -1.5332  3.9908 -1.1973
11169TIP3   OH254997   0.197   1.799   5.159  0.0850 -0.2902  0.5510
11169TIP3    H154998   0.281   1.754   5.148  0.1890  0.0531 -0.0617
11169TIP3    H254999   0.141   1.734   5.203  0.5558 -0.6437  0.6372
11170TIP3   OH255000   5.511   2.919   0.292  0.1706  0.1994 -0.5875
11170TIP3    H155001   5.542   2.835   0.257  1.1067  0.4743 -0.4457
11170TIP3    H255002   5.532   2.914   0.386  1.6163  1.1846 -0.8419
11171TIP3   OH255003   1.738   4.946  12.906 -0.0300 -0.1411 -0.0581
11171TIP3    H155004   1.797   4.940  12.980  0.1997 -0.7220 -0.2849
11171TIP3    H255005   1.777   4.889  12.839  0.3340  1.1840 -1.0142
11172TIP3   OH255006   4.230   0.051  13.564 -0.0219 -0.2087 -0.1672
11172TIP3    H155007   4.194   0.136  13.592  0.0524 -0.5659  1.0356
11172TIP3    H255008   4.153  -0.002  13.544 -0.1329 -0.4275  0.7979
11173TIP3   OH255009   1.711   0.721   1.425  0.0134  0.9785  0.2190
11173TIP3    H155010   1.770   0.673   1.483 -0.7564 -0.3159 -0.0319
11173TIP3    H255011   1.745   0.704   1.337 -0.9227 -0.1132  0.0401
11174TIP3   OH255012   4.274   4.472   2.666  0.4513 -0.6938  0.5575
11174TIP3    H155013   4.306   4.418   2.738  1.8664 -1.6612 -0.7592
11174TIP3    H255014   4.217   4.413   2.616  1.4371 -0.7848 -0.4810
11175TIP3   OH255015   6.490   4.178  12.182 -0.4491  0.4917 -0.0392
11175TIP3    H155016   6.464   4.104  12.126  0.5437  0.5213 -0.5616
11175TIP3    H255017   6.576   4.152  12.215 -1.2440  0.2511  1.8972
11176TIP3   OH255018   5.909   0.328   2.541  0.1239 -0.2032  0.6058
11176TIP3    H155019   5.902   0.308   2.634 -0.7491 -2.7436  0.0321
11176TIP3    H255020   5.818   0.343   2.512  0.2827 -0.4638 -0.0461
11177TIP3   OH255021   2.543   1.740  13.448  1.0831  0.6186 -0.3032
11177TIP3    H155022   2.494   1.822  13.456 -2.7053 -1.6134  0.8173
11177TIP3    H255023   2.570   1.720  13.538  0.6814 -0.0704 -0.3260
11178TIP3   OH255024   2.418   6.548   5.963 -0.4573 -0.2638 -0.6409
11178TIP3    H155025   2.363   6.492   6.018 -0.5047  1.4850  1.1647
11178TIP3    H255026   2.356   6.591   5.903 -0.8875  0.4339  0.2755
11179TIP3   OH255027   3.374   3.146  11.994 -0.6130  0.0828  0.2469
11179TIP3    H155028   3.306   3.091  11.954 -0.7939  1.1328 -0.9170
11179TIP3    H255029   3.453   3.091  11.991 -1.1334 -0.6906  0.5150
11180TIP3   OH255030   1.016   1.250  15.662  0.3493  0.2017 -0.0710
11180TIP3    H155031   1.020   1.199  15.582  3.7947 -2.3544  1.6025
11180TIP3    H255032   0.965   1.196  15.723  0.3196  0.7380  0.3894
11181TIP3   OH255033   5.568   3.267   3.181  0.0200 -0.1225  0.1369
11181TIP3    H155034   5.519   3.306   3.109  1.9345  0.0639 -1.1045
11181TIP3    H255035   5.616   3.341   3.219 -0.4428 -0.3463  1.1659
11182TIP3   OH255036   4.332   1.282   4.467  0.2854 -0.0536  0.1166
11182TIP3    H155037   4.391   1.206   4.465 -0.8887 -0.9519 -0.8070
11182TIP3    H255038   4.272   1.263   4.539 -0.0876 -0.0530 -0.1978
11183TIP3   OH255039   3.114   2.034  16.383  0.1707  0.2102  0.1572
11183TIP3    H155040   3.141   2.081  16.462  1.0689  1.1249 -0.6779
11183TIP3    H255041   3.194   1.992  16.352 -0.6250 -1.9289  0.9094
11184TIP3   OH255042   5.438   3.450  10.545  0.2980  0.1621 -0.0938
11184TIP3    H155043   5.395   3.371  10.579  2.2491 -0.4875  1.0082
11184TIP3    H255044   5.526   3.420  10.521  0.4610  1.6329 -1.4193
11185TIP3   OH255045   6.611   5.967  16.311  0.1512  0.0251  0.4436
11185TIP3    H155046   6.617   5.917  16.230 -0.6187  1.1605 -0.3312
11185TIP3    H255047   6.606   6.059  16.283  1.6348  0.5690  1.8424
11186TIP3   OH255048   0.962   3.436  11.331 -0.1422 -0.4732  0.6979
11186TIP3    H155049   1.036   3.495  11.346  0.0363 -0.7869  1.0470
11186TIP3    H255050   0.885   3.490  11.349  0.0092 -0.2526  0.6972
11187TIP3   OH255051   1.197   5.423   0.816 -0.4391  0.1615 -0.6233
11187TIP3    H155052   1.188   5.337   0.857 -0.2342  0.8922  1.0161
11187TIP3    H255053   1.217   5.405   0.724 -2.6157 -1.5288 -0.7907
11188TIP3   OH255054   0.382   6.173   3.988 -0.2529  0.0716  0.0681
11188TIP3    H155055   0.413   6.117   4.059  3.2362  0.1176 -1.3458
11188TIP3    H255056   0.456   6.229   3.967 -1.5924  0.8560 -2.8577
11189TIP3   OH255057   5.333   5.840  14.678 -0.0992  0.0504 -0.4196
11189TIP3    H155058   5.257   5.896  14.699 -0.2659  0.3971 -1.9205
11189TIP3    H255059   5.298   5.751  14.678 -0.1010  0.0382  0.7190
11190TIP3   OH255060   4.831   6.803  17.193 -0.0990 -0.2811 -0.6283
11190TIP3    H155061   4.921   6.805  17.224  0.6082 -1.7717 -2.4875
11190TIP3    H255062   4.822   6.883  17.141  0.3528 -0.4512 -0.9687
11191TIP3   OH255063   5.934   0.940  14.765  0.4949 -0.4781 -0.1338
11191TIP3    H155064   5.911   0.853  14.796 -0.1302 -0.3788 -0.3110
11191TIP3    H255065   5.983   0.979  14.837  1.5807 -1.3129 -0.4186
11192TIP3   OH255066   1.209   3.782   1.049  0.1988  0.0631 -0.0961
11192TIP3    H155067   1.164   3.780   0.964  1.6397 -1.1621 -0.8451
11192TIP3    H255068   1.158   3.723   1.105 -0.4730  0.5036 -0.2303
11193TIP3   OH255069   4.031   4.726   0.083 -0.2216 -0.1646 -0.5621
11193TIP3    H155070   4.034   4.814   0.046  0.6233 -0.2041 -0.5944
11193TIP3    H255071   4.023   4.668   0.007  1.3714 -0.2375 -0.6835
11194TIP3   OH255072   6.429   0.711   6.482 -0.0680 -0.3767  0.7740
11194TIP3    H155073   6.488   0.785   6.496 -0.5380 -0.2196  1.9458
11194TIP3    H255074   6.467   0.640   6.534 -0.9541 -0.2497  1.5997
11195TIP3   OH255075   5.415   5.151   4.111 -0.3188 -0.1773 -0.1271
11195TIP3    H155076   5.501   5.178   4.141 -0.0754 -0.4630 -0.5605
11195TIP3    H255077   5.405   5.061   4.143 -0.3408 -0.2389 -0.3000
11196TIP3   OH255078   2.128   3.133  15.367 -0.4049  0.1552 -0.4144
11196TIP3    H155079   2.114   3.224  15.339  0.3725 -0.1224 -1.7310
11196TIP3    H255080   2.148   3.086  15.286  2.1000 -0.6284  0.6277
11197TIP3   OH255081   1.620   2.209   0.128  0.0928  0.0998 -0.3093
11197TIP3    H155082   1.671   2.248   0.057  0.3280 -0.4348 -0.4326
11197TIP3    H255083   1.657   2.247   0.208  0.7233 -0.3312 -0.3949
11198TIP3   OH255084   3.563   6.387  16.526 -0.3206  0.1705  0.5238
11198TIP3    H155085   3.573   6.320  16.459  0.9842 -0.0956  0.9562
11198TIP3    H255086   3.653   6.403  16.557 -0.7080  1.5197  0.9933
11199TIP3   OH255087   3.595   1.862  17.170  0.3619  0.5286 -0.4751
11199TIP3    H155088   3.618   1.917  17.094  0.5994  0.3898 -0.5058
11199TIP3    H255089   3.537   1.917  17.223  0.6800  0.8464 -0.4553
11200TIP3   OH255090   1.842   3.433  15.890 -0.3596  0.2968 -0.0424
11200TIP3    H155091   1.912   3.387  15.936 -1.4090 -0.7930  0.4793
11200TIP3    H255092   1.764   3.415  15.941 -0.9829  1.7852 -0.4410
11201TIP3   OH255093   5.233   4.323  11.228 -0.0649 -0.1066  0.0741
11201TIP3    H155094   5.231   4.351  11.136 -1.1021 -2.1231 -0.5723
11201TIP3    H255095   5.290   4.386  11.272  2.2949 -0.3793 -2.4196
11202TIP3   OH255096   6.018   5.707   2.479 -0.1224  0.0435  0.1600
11202TIP3    H155097   5.964   5.644   2.526 -1.3212  3.0139  2.9149
11202TIP3    H255098   5.958   5.752   2.421  0.7579 -1.3638 -1.9061
11203TIP3   OH255099   4.010   4.391   0.378 -0.3869 -0.1595  0.1016
11203TIP3    H155100   4.074   4.460   0.360  0.6662 -1.3493 -0.7570
11203TIP3    H255101   3.939   4.407   0.316 -0.1868  0.1906 -0.0381
11204TIP3   OH255102   3.594   1.210   3.930  0.1743  0.6792  0.2019
11204TIP3    H155103   3.519   1.270   3.924  0.2120  0.7505  0.4509
11204TIP3    H255104   3.670   1.267   3.922  0.1914  0.4177 -1.8060
11205TIP3   OH255105   1.635   6.182   4.837 -0.1769  0.5538 -0.1263
11205TIP3    H155106   1.553   6.208   4.878  0.4843  0.7685  1.0548
11205TIP3    H255107   1.657   6.099   4.878 -0.0796  0.2114 -0.8490
11206TIP3   OH255108   3.613   5.391  17.252 -0.4666  0.0653  0.2812
11206TIP3    H155109   3.526   5.369  17.284 -0.0010 -1.2302  0.6671
11206TIP3    H255110   3.636   5.471  17.300 -0.5739 -0.7692  1.7567
11207TIP3   OH255111   2.251   0.539   2.864  0.4899 -0.0436 -0.4351
11207TIP3    H155112   2.244   0.446   2.841  1.3043 -0.0500 -0.6703
11207TIP3    H255113   2.263   0.540   2.959  0.0446 -0.1501 -0.3735
11208TIP3   OH255114   5.202   5.820   3.279  0.3020  0.3699 -0.5483
11208TIP3    H155115   5.268   5.761   3.244 -0.4296 -0.9321  0.2425
11208TIP3    H255116   5.238   5.850   3.362  0.5497  0.8369 -0.8196
11209TIP3   OH255117   6.072   6.141   0.344 -0.1609 -0.4426 -0.0668
11209TIP3    H155118   6.105   6.227   0.372 -0.8390 -0.4602  0.7956
11209TIP3    H255119   5.982   6.159   0.317 -0.6353 -1.0604  1.0722
11210TIP3   OH255120   4.535   4.247  14.687  0.2593  0.5299  0.1301
11210TIP3    H155121   4.469   4.316  14.695  0.6958  0.7332  2.2301
11210TIP3    H255122   4.536   4.226  14.594 -1.3581  1.9040 -0.2280
11211TIP3   OH255123   2.390   4.811   1.912  0.1209 -0.1957  0.3775
11211TIP3    H155124   2.393   4.906   1.901  1.8571 -0.0420  1.8528
11211TIP3    H255125   2.304   4.785   1.880  0.1817  1.6869 -1.3873
11212TIP3   OH255126   6.287   6.190   0.128  0.1059 -0.3116 -0.0844
11212TIP3    H155127   6.251   6.130   0.194  0.4603 -1.3698 -0.8436
11212TIP3    H255128   6.216   6.252   0.111  0.3239  0.5549  1.9747
11213TIP3   OH255129   5.586   6.598  11.651 -0.4708 -0.0080  0.3945
11213TIP3    H155130   5.677   6.624  11.632 -0.1579  0.4480  2.4268
11213TIP3    H255131   5.575   6.514  11.606  0.7496  0.2364 -0.3919
11214TIP3   OH255132   1.036   4.167   4.670 -0.3768  0.2707  0.9805
11214TIP3    H155133   1.088   4.120   4.605  3.1363  1.2723  2.9252
11214TIP3    H255134   1.037   4.258   4.641 -1.4290  0.2309  0.8095
11215TIP3   OH255135   2.308   2.696   1.765  0.0447 -0.3113  0.2877
11215TIP3    H155136   2.395   2.711   1.727 -0.5528 -0.0858 -1.0172
11215TIP3    H255137   2.324   2.688   1.859  1.3486  0.7615  0.1740
11216TIP3   OH255138   3.407   0.509  16.077 -0.0319  0.1139  0.4814
11216TIP3    H155139   3.372   0.592  16.110 -1.8326 -0.2899 -0.3772
11216TIP3    H255140   3.331   0.464  16.039  1.1371 -1.4479 -0.0510
11217TIP3   OH255141   1.039   2.699   1.178 -0.3834  0.5186  0.4114
11217TIP3    H155142   0.996   2.760   1.238  0.8859  0.9768  0.8804
11217TIP3    H255143   1.128   2.690   1.213  0.9925  2.3250 -2.4583
11218TIP3   OH255144   3.037   3.682   0.311  0.2972  0.2126  0.6613
11218TIP3    H155145   3.104   3.679   0.379 -0.6953 -1.6534  1.6142
11218TIP3    H255146   2.955   3.694   0.360 -0.1988  1.1505 -0.3869
11219TIP3   OH255147   0.188   4.716  14.077  0.6728 -0.1605  0.3425
11219TIP3    H155148   0.208   4.803  14.112 -1.4088  0.3765  0.2287
11219TIP3    H255149   0.167   4.663  14.154  3.1462 -0.9547  0.5449
11220TIP3   OH255150   0.836   3.346   3.851  0.2192 -0.2329  0.5247
11220TIP3    H155151   0.797   3.275   3.801  0.0332 -0.1211  0.5104
11220TIP3    H255152   0.919   3.310   3.884  0.1498 -0.4374  0.4746
11221TIP3   OH255153   3.299   2.415  12.929 -0.4327 -0.0493 -0.3052
11221TIP3    H155154   3.223   2.421  12.987 -1.5495  0.4759 -1.7818
11221TIP3    H255155   3.306   2.502  12.891 -1.2012 -1.0140 -2.7482
11222TIP3   OH255156   4.585   2.975   2.249  0.2843 -0.1172  0.1430
11222TIP3    H155157   4.646   3.037   2.290 -2.7845  2.5915  0.9071
11222TIP3    H255158   4.583   3.001   2.157 -0.6880  0.6944  0.3822
11223TIP3   OH255159   4.620   0.998   0.826  0.2703 -0.5666 -0.1901
11223TIP3    H155160   4.681   0.949   0.881  0.2976  0.1280  0.3994
11223TIP3    H255161   4.538   0.947   0.829  0.4628 -0.8647 -0.0279
11224TIP3   OH255162   1.667   4.811   5.133 -0.3874  0.3786 -0.0994
11224TIP3    H155163   1.755   4.826   5.167 -0.3540  0.1946 -0.1011
11224TIP3    H255164   1.613   4.800   5.211 -0.2421 -0.4302 -0.1031
11225TIP3   OH255165   1.796   5.673   3.978 -0.4873  0.2981 -0.6052
11225TIP3    H155166   1.853   5.626   4.038 -0.5783 -1.9826 -2.2331
11225TIP3    H255167   1.718   5.692   4.029 -1.8922 -4.3851 -0.7182
11226TIP3   OH255168   4.332   0.803  16.946 -0.3296 -0.7092 -0.3245
11226TIP3    H155169   4.249   0.761  16.924 -0.9337 -0.3608  1.2539
11226TIP3    H255170   4.313   0.897  16.943  0.5884 -0.5592 -2.1830
11227TIP3   OH255171   2.051   3.779   5.468 -0.1143 -0.0421 -0.5613
11227TIP3    H155172   1.964   3.796   5.505 -0.8561 -1.8744 -1.3500
11227TIP3    H255173   2.042   3.692   5.428  2.0407 -0.1638 -0.8112
11228TIP3   OH255174   1.423   0.456  14.486  0.2355  0.0155 -0.5798
11228TIP3    H155175   1.518   0.444  14.478  0.3623  0.7767 -0.2878
11228TIP3    H255176   1.413   0.511  14.563 -0.4425 -0.0229 -0.6439
11229TIP3   OH255177   4.813   4.306   3.134 -0.0784  0.1874  0.0547
11229TIP3    H155178   4.796   4.366   3.062 -2.1479 -0.5067 -0.0629
11229TIP3    H255179   4.748   4.328   3.200  0.2305 -0.7921  0.7069
11230TIP3   OH255180   2.467   1.269  16.559  0.5268 -0.0779 -0.3198
11230TIP3    H155181   2.479   1.197  16.498  0.2094 -0.2162 -0.2197
11230TIP3    H255182   2.373   1.286  16.558 -0.1978 -3.1991  3.6658
11231TIP3   OH255183   4.943   5.681   1.498  0.2101  0.2856 -0.1705
11231TIP3    H155184   5.019   5.638   1.460 -0.6748 -1.0334 -0.5095
11231TIP3    H255185   4.975   5.718   1.580  1.5949  1.1992 -1.1013
11232TIP3   OH255186   4.905   4.293   4.424 -0.6162 -0.2404 -0.7003
11232TIP3    H155187   4.976   4.235   4.453  0.9190  1.1944 -1.5132
11232TIP3    H255188   4.827   4.238   4.428  0.4286 -1.6794  0.8079
11233TIP3   OH255189   3.134   1.976   2.004  0.0045  0.2203 -0.4956
11233TIP3    H155190   3.147   1.910   2.072  0.2850 -1.5327 -2.1916
11233TIP3    H255191   3.208   2.035   2.013  2.3288 -2.3379 -1.8225
11234TIP3   OH255192   5.658   2.827   3.059 -0.1573  0.1745  0.3887
11234TIP3    H155193   5.662   2.869   2.973 -1.8159 -0.4230 -0.0152
11234TIP3    H255194   5.662   2.733   3.039 -0.8359  0.0265  0.9300
11235TIP3   OH255195   6.336   1.336  13.207  0.1046 -0.0175  0.3047
11235TIP3    H155196   6.360   1.394  13.134 -0.0321  1.8222  1.6869
11235TIP3    H255197   6.312   1.253  13.165 -1.3059  1.4331 -1.8617
11236TIP3   OH255198   3.713   2.347   4.369  0.7926  0.0016 -0.2861
11236TIP3    H155199   3.734   2.424   4.421  0.0446  0.1683 -0.2189
11236TIP3    H255200   3.726   2.375   4.278  1.4087 -0.0746 -0.2247
11237TIP3   OH255201   0.988   0.442   4.108 -0.0499 -0.0880 -0.3264
11237TIP3    H155202   1.072   0.403   4.132  1.2644  2.0229 -1.3368
11237TIP3    H255203   0.939   0.446   4.190  1.9581  1.2858  0.8315
11238TIP3   OH255204   1.633   6.066  17.197  0.8135  0.6864 -0.5973
11238TIP3    H155205   1.617   5.982  17.238 -0.1180  1.3072  0.3482
11238TIP3    H255206   1.592   6.130  17.256 -0.7181  1.5816 -2.5749
11239TIP3   OH255207   0.449   0.708  11.771  0.2319  0.0401 -0.0973
11239TIP3    H155208   0.430   0.617  11.793 -0.4740  0.0716 -0.5734
11239TIP3    H255209   0.537   0.723  11.806  0.6594 -1.0437 -0.6994
11240TIP3   OH255210   3.758   5.014   1.218  0.3009 -0.2721 -0.3526
11240TIP3    H155211   3.812   5.052   1.286 -1.2502 -0.1313  0.8337
11240TIP3    H255212   3.775   4.920   1.223  0.7003 -0.1896 -0.2234
11241TIP3   OH255213   2.936   1.787   1.768  0.1473 -0.5230  0.5086
11241TIP3    H155214   2.980   1.751   1.845 -0.5411  0.7828  1.5356
11241TIP3    H255215   3.004   1.838   1.724  0.6549 -1.6178  0.0160
11242TIP3   OH255216   3.691   5.807  14.166 -0.4530 -0.3824 -0.1355
11242TIP3    H155217   3.779   5.798  14.203 -0.0992 -4.5549 -1.6507
11242TIP3    H255218   3.635   5.758  14.227 -0.9061 -1.7710 -1.6442
11243TIP3   OH255219   5.823   3.029   3.569  1.3500 -0.5992  0.1591
11243TIP3    H155220   5.806   3.106   3.623  2.2957  0.0376 -0.4417
11243TIP3    H255221   5.788   3.051   3.483  0.6150 -1.2815  0.2745
11244TIP3   OH255222   3.696   1.353   0.887  0.0326  0.1300  0.0923
11244TIP3    H155223   3.708   1.333   0.794 -0.9715  1.7322 -0.3993
11244TIP3    H255224   3.681   1.447   0.889 -0.4110  0.0294  1.8519
11245TIP3   OH255225   6.342   1.407  12.725 -0.2894 -0.2404  0.0540
11245TIP3    H155226   6.367   1.324  12.685 -1.8078 -0.0614 -1.3109
11245TIP3    H255227   6.257   1.390  12.766 -1.0275  0.8585 -0.9899
11246TIP3   OH255228   1.461   5.450  17.271  0.1426  0.0606  0.1169
11246TIP3    H155229   1.432   5.382  17.210 -0.0422  1.7593 -1.7249
11246TIP3    H255230   1.549   5.472  17.242  1.4029 -1.4439  2.5570
11247TIP3   OH255231   3.554   4.902  10.587  0.9439 -0.4335 -0.8108
11247TIP3    H155232   3.590   4.981  10.547  1.9334  0.7129  2.1938
11247TIP3    H255233   3.478   4.933  10.636  2.3010 -0.9993  1.7469
11248TIP3   OH255234   2.548   3.735   5.196  0.0982 -0.0309 -0.2650
11248TIP3    H155235   2.577   3.792   5.267  0.0846 -1.6824  1.0952
11248TIP3    H255236   2.629   3.704   5.155  0.1140  0.6751 -0.7609
11249TIP3   OH255237   2.854   1.178   0.363  0.3864  0.4477 -0.6143
11249TIP3    H155238   2.918   1.233   0.407 -1.6789  1.2714  1.4476
11249TIP3    H255239   2.877   1.089   0.389  0.8618  0.7243 -0.0967
11250TIP3   OH255240   2.007   6.336   2.900  0.1030 -0.1382  0.7557
11250TIP3    H155241   1.937   6.392   2.867 -0.5602 -0.3221  1.8163
11250TIP3    H255242   1.972   6.247   2.892  0.0027 -0.1971  1.7445
11251TIP3   OH255243   1.702   0.074   3.549 -0.1631  0.3612  0.1182
11251TIP3    H155244   1.687  -0.020   3.541 -1.9079  0.7028 -1.0243
11251TIP3    H255245   1.724   0.102   3.460  0.1301  1.0593  0.4124
11252TIP3   OH255246   4.649   3.648   6.676  0.1988 -0.3059  0.0428
11252TIP3    H155247   4.716   3.609   6.620 -0.0007  1.3776 -1.4297
11252TIP3    H255248   4.698   3.708   6.732  0.2181 -0.9104  0.6754
11253TIP3   OH255249   0.473   6.152  16.524 -0.2734  0.3579 -0.3575
11253TIP3    H155250   0.443   6.112  16.443  0.5887  1.9794 -1.5128
11253TIP3    H255251   0.502   6.240  16.498 -1.4699  1.4797  1.9682
11254TIP3   OH255252   6.681   4.947  16.489  0.6577 -0.4718  0.7801
11254TIP3    H155253   6.607   4.999  16.519 -0.4526 -0.9711 -1.0271
11254TIP3    H255254   6.726   4.920  16.569 -0.0674  1.3414  1.8162
11255TIP3   OH255255   6.775   4.363   5.875  0.2969 -0.0937  1.1657
11255TIP3    H155256   6.748   4.421   5.804  0.8008  0.6795  1.6026
11255TIP3    H255257   6.714   4.382   5.947 -1.6199 -2.4217  0.2463
11256TIP3   OH255258   0.692   5.413  12.496 -0.0757  0.5098  0.3331
11256TIP3    H155259   0.712   5.450  12.410 -0.7508  2.0323  0.8284
11256TIP3    H255260   0.614   5.359  12.482  0.5874 -0.3057 -0.2713
11257TIP3   OH255261   1.727   6.262   5.444 -0.5318 -0.0035 -0.3149
11257TIP3    H155262   1.747   6.194   5.509 -0.8662 -0.6076 -0.8342
11257TIP3    H255263   1.766   6.342   5.480 -2.2621  0.0610  1.4797
11258TIP3   OH255264   2.223   6.137   1.787 -0.4441 -0.5769 -0.0239
11258TIP3    H155265   2.212   6.140   1.882 -1.2417 -1.1486 -0.0893
11258TIP3    H255266   2.166   6.206   1.754 -1.4767 -1.4854 -0.1789
11259TIP3   OH255267   1.927   4.706  16.980 -0.3314  0.1367 -0.4030
11259TIP3    H155268   1.859   4.674  17.039  0.9930  1.2403  1.7837
11259TIP3    H255269   1.885   4.776  16.931 -1.5469 -1.0174 -1.0499
11260TIP3   OH255270   1.367   2.911  14.894 -0.1060  0.6047  0.3062
11260TIP3    H155271   1.297   2.850  14.872  1.3156 -1.1885  0.5625
11260TIP3    H255272   1.443   2.879  14.844  1.2507  0.7984  2.1986
11261TIP3   OH255273   6.208   0.769   3.632 -0.8353 -0.3625  0.0839
11261TIP3    H155274   6.152   0.735   3.563  0.1554 -3.0593  0.5576
11261TIP3    H255275   6.295   0.774   3.593 -0.6506  0.0294  0.5322
11262TIP3   OH255276   6.398   3.259   4.681 -0.3198  0.2663  0.6440
11262TIP3    H155277   6.376   3.349   4.659 -1.7758  0.1915  1.6961
11262TIP3    H255278   6.338   3.236   4.752 -0.0852 -1.5843  0.2844
11263TIP3   OH255279   5.481   5.325  15.348 -0.1479 -0.2210  0.4735
11263TIP3    H155280   5.401   5.373  15.373 -1.6570 -2.9604  1.0822
11263TIP3    H255281   5.540   5.336  15.423  0.1705  2.0139 -0.0770
11264TIP3   OH255282   5.399   6.246   3.326  0.3783  0.2397 -0.1328
11264TIP3    H155283   5.442   6.164   3.349 -0.8793 -0.2177  0.6038
11264TIP3    H255284   5.313   6.221   3.294  0.6434  1.1546 -1.6390
11265TIP3   OH255285   0.306   6.099   3.733  0.1812 -0.3864  0.3853
11265TIP3    H155286   0.364   6.022   3.731 -0.5094 -0.9441  1.2870
11265TIP3    H255287   0.315   6.133   3.822  1.0307  1.0216 -0.2257
11266TIP3   OH255288   1.328   5.130   0.379 -0.4881 -0.2523 -0.2008
11266TIP3    H155289   1.371   5.172   0.305 -0.4414  0.1136  0.0314
11266TIP3    H255290   1.390   5.065   0.410 -1.3969 -1.9572 -1.8607
11267TIP3   OH255291   0.416   3.463  13.523  0.7099 -0.2487  0.0167
11267TIP3    H155292   0.348   3.396  13.527  0.9853 -0.4637  1.4643
11267TIP3    H255293   0.410   3.499  13.434 -0.2643 -1.3240 -0.3579
11268TIP3   OH255294   4.755   4.235   6.665 -0.0316 -0.0829  1.0649
11268TIP3    H155295   4.760   4.331   6.658  1.6107 -0.2584 -0.2607
11268TIP3    H255296   4.815   4.214   6.737 -0.1275 -0.1421  1.1264
11269TIP3   OH255297   6.401   2.761  14.316  0.2041 -0.1787 -0.0085
11269TIP3    H155298   6.410   2.695  14.247 -0.4348  0.2207 -0.4790
11269TIP3    H255299   6.308   2.784  14.315  0.4474  0.8285  0.0606
11270TIP3   OH255300   6.031   6.638  15.823  0.5350  0.7460  0.1128
11270TIP3    H155301   6.058   6.650  15.732  1.5297  0.0336  0.3025
11270TIP3    H255302   5.964   6.705  15.837  0.9890  1.4265 -0.8888
11271TIP3   OH255303   5.276   3.299   2.545  0.1948  0.5409  0.3983
11271TIP3    H155304   5.285   3.347   2.627 -0.9224 -1.0908  1.5044
11271TIP3    H255305   5.299   3.209   2.567  0.8979  0.2878 -1.3266
11272TIP3   OH255306   2.733   3.299  10.380  0.4071 -0.6041  0.2154
11272TIP3    H155307   2.675   3.276  10.308 -0.1372  0.6987  0.2302
11272TIP3    H255308   2.821   3.281  10.347  0.1989  0.5219 -0.9660
11273TIP3   OH255309   6.315   5.802   4.864 -0.1333  0.2224  0.1578
11273TIP3    H155310   6.393   5.747   4.855 -0.4406 -0.1998  0.0873
11273TIP3    H255311   6.289   5.792   4.956  0.2058  0.7852  0.3197
11274TIP3   OH255312   1.584   2.533   2.061 -0.9981  0.1796  0.2256
11274TIP3    H155313   1.545   2.605   2.011  0.8251 -0.1004 -1.6597
11274TIP3    H255314   1.538   2.455   2.032 -1.7770  0.3504  0.9833
11275TIP3   OH255315   2.103   1.458  13.211  0.0950 -0.2464  0.3924
11275TIP3    H155316   2.022   1.494  13.247  0.6354  0.2291  1.1672
11275TIP3    H255317   2.156   1.535  13.190 -0.0793 -0.5382 -1.1156
11276TIP3   OH255318   1.573   3.379  15.396 -0.2376  0.5109 -0.0033
11276TIP3    H155319   1.658   3.389  15.439 -0.1105 -0.0496 -0.1199
11276TIP3    H255320   1.579   3.431  15.316  0.8944 -1.5324 -1.2919
11277TIP3   OH255321   1.975   3.460   4.975 -0.0603  0.0229  0.5012
11277TIP3    H155322   1.946   3.552   4.978  1.1875  0.3971  2.6332
11277TIP3    H255323   1.899   3.412   4.942  0.2076  2.1421 -3.4915
11278TIP3   OH255324   4.926   4.849  15.971  0.6206  0.5184 -0.0733
11278TIP3    H155325   4.917   4.903  15.893 -1.7885 -0.2905 -0.4188
11278TIP3    H255326   4.950   4.911  16.040 -0.6917  1.8365 -0.7482
11279TIP3   OH255327   2.925   5.717   4.701  0.4123 -0.2541 -0.0002
11279TIP3    H155328   2.934   5.633   4.656  0.4390 -0.0108 -0.4562
11279TIP3    H255329   2.912   5.781   4.630 -2.1038 -0.1980  0.4824
11280TIP3   OH255330   1.851   6.679   0.253  0.6059  0.0222 -0.3491
11280TIP3    H155331   1.760   6.649   0.253  0.3808  0.6667  1.0866
11280TIP3    H255332   1.860   6.728   0.334  1.9443  0.8765 -0.9959
11281TIP3   OH255333   4.197   0.660   0.052  0.1182  0.4731 -0.2321
11281TIP3    H155334   4.165   0.685   0.139  0.6800  1.4490 -0.2994
11281TIP3    H255335   4.252   0.733   0.025  0.9294 -0.3803 -0.8935
11282TIP3   OH255336   0.153   5.328  13.268 -0.7247  0.1929 -0.2766
11282TIP3    H155337   0.187   5.414  13.291 -1.7747  0.3211  0.8598
11282TIP3    H255338   0.190   5.310  13.181  2.3105  0.2559  0.9252
11283TIP3   OH255339   0.172   0.873  14.873 -0.8359  1.0471  0.1559
11283TIP3    H155340   0.199   0.958  14.837 -0.2848  0.3115 -1.1865
11283TIP3    H255341   0.121   0.833  14.804  1.8388 -1.1993 -0.6025
11284TIP3   OH255342   0.157   5.089  13.693 -0.4177 -0.0793 -0.1327
11284TIP3    H155343   0.245   5.068  13.726 -0.3893  0.3150  0.0517
11284TIP3    H255344   0.171   5.114  13.602 -0.3753 -0.2709 -0.1796
11285TIP3   OH255345   6.436   3.001   0.403 -0.1985 -0.0436 -0.1960
11285TIP3    H155346   6.501   2.941   0.366 -0.0813 -0.9650  1.4196
11285TIP3    H255347   6.440   2.983   0.498 -1.0583  1.6347  0.1630
11286TIP3   OH255348   4.819   1.742   0.847 -0.5214 -0.2756 -0.4519
11286TIP3    H155349   4.913   1.740   0.863 -0.1999 -0.3576 -2.3202
11286TIP3    H255350   4.793   1.650   0.841 -0.9444 -0.2880  1.2079
11287TIP3   OH255351   6.209   3.575  11.149  0.0809 -0.0490 -0.2699
11287TIP3    H155352   6.233   3.641  11.214 -0.6045 -0.3113  0.2495
11287TIP3    H255353   6.197   3.624  11.068 -0.8768  0.5214  0.2177
11288TIP3   OH255354   3.835   6.781   4.236 -0.1961 -0.3184 -0.0933
11288TIP3    H155355   3.777   6.852   4.262 -1.2364 -0.2061 -2.6027
11288TIP3    H255356   3.911   6.790   4.294 -1.2079  1.5744  0.9882
11289TIP3   OH255357   3.896   6.389   0.103 -0.4119  0.3198  0.0544
11289TIP3    H155358   3.831   6.459   0.110 -0.0368  0.8083 -1.2541
11289TIP3    H255359   3.967   6.417   0.162 -1.6685 -0.5770  2.0524
11290TIP3   OH255360   1.380   5.956  13.976 -0.6209 -0.1657 -0.9040
11290TIP3    H155361   1.407   5.929  13.888 -1.6595 -1.5319 -0.8314
11290TIP3    H255362   1.285   5.966  13.970 -0.3733  2.7609 -0.6879
11291TIP3   OH255363   2.833   4.502   0.641 -0.1942  0.1565 -0.5685
11291TIP3    H155364   2.803   4.573   0.698  1.8852  0.3681  0.2737
11291TIP3    H255365   2.819   4.536   0.552 -3.9420 -0.3822 -0.2928
11292TIP3   OH255366   0.733   3.622  13.370 -0.4674 -0.1691 -0.1046
11292TIP3    H155367   0.777   3.578  13.298 -0.8378 -1.7177  0.5998
11292TIP3    H255368   0.647   3.647  13.333  0.6814  2.2567 -1.2670
11293TIP3   OH255369   0.701   4.116   3.739 -0.0185 -0.5912 -0.2126
11293TIP3    H155370   0.753   4.036   3.733 -2.2613 -2.0681 -0.6141
11293TIP3    H255371   0.617   4.093   3.699 -1.1176  1.6134  0.7353
11294TIP3   OH255372   0.680   0.295  12.625  0.6517 -0.1857 -0.9302
11294TIP3    H155373   0.689   0.268  12.533  1.0128  0.1935 -1.0085
11294TIP3    H255374   0.585   0.306  12.637  0.6313  0.1343 -1.3648
11295TIP3   OH255375   3.029   4.345  15.038 -0.2046 -0.4762  0.4878
11295TIP3    H155376   3.105   4.401  15.024 -0.3891 -0.2815  0.2499
11295TIP3    H255377   3.061   4.256  15.021  0.5460 -0.6352  2.6563
11296TIP3   OH255378   6.042   2.221   4.512 -0.2280 -0.4891 -0.3713
11296TIP3    H155379   6.103   2.150   4.493  0.3407  0.4654 -2.2010
11296TIP3    H255380   6.092   2.301   4.496 -1.3956  0.3207 -0.0755
11297TIP3   OH255381   6.333   0.501   4.105 -0.3995 -0.2181  0.2014
11297TIP3    H155382   6.274   0.552   4.161 -0.7626  0.3612 -0.7016
11297TIP3    H255383   6.278   0.474   4.031  0.9079  1.8216 -1.5420
11298TIP3   OH255384   2.353   0.467  11.571  0.0690 -0.2111  0.0590
11298TIP3    H155385   2.427   0.427  11.524  2.0952  0.2992  2.6830
11298TIP3    H255386   2.283   0.403  11.564  1.2328 -1.3921 -1.2023
11299TIP3   OH255387   1.079   2.372   0.126 -0.7469  0.1930  0.4940
11299TIP3    H155388   1.069   2.400   0.035  0.6834 -1.5403 -0.2370
11299TIP3    H255389   1.160   2.412   0.155  0.0041 -1.0876  0.2360
11300TIP3   OH255390   6.353   3.157  15.699  0.2173  0.1723 -0.3588
11300TIP3    H155391   6.439   3.122  15.723 -0.3612 -0.8068  0.3559
11300TIP3    H255392   6.322   3.202  15.777 -1.0429 -1.7608  0.3035
11301TIP3   OH255393   2.665   6.763   5.349 -0.5160 -0.1050 -0.0331
11301TIP3    H155394   2.704   6.678   5.326 -1.1136 -0.3086 -0.3021
11301TIP3    H255395   2.652   6.807   5.265 -0.7721 -0.0019  0.0603
11302TIP3   OH255396   3.661   2.342  16.428 -0.2519  0.0796 -1.0797
11302TIP3    H155397   3.739   2.305  16.469  0.0536  0.0307 -1.7146
11302TIP3    H255398   3.633   2.277  16.365  0.5655  1.1249 -2.5449
11303TIP3   OH255399   1.785   6.580  17.095  0.2053 -0.2643 -0.1512
11303TIP3    H155400   1.844   6.527  17.041 -0.1572 -0.5207 -0.2995
11303TIP3    H255401   1.747   6.517  17.156  1.7857  0.2963  1.4293
11304TIP3   OH255402   0.601   0.309   3.557  0.5469 -0.0929 -0.2117
11304TIP3    H155403   0.614   0.382   3.496 -0.2812  0.2291 -0.0074
11304TIP3    H255404   0.535   0.340   3.618 -0.7463 -1.4527 -0.8736
11305TIP3   OH255405   3.423   0.208  12.177  0.4070 -0.2043 -0.0446
11305TIP3    H155406   3.385   0.125  12.149 -2.1990  0.2541  1.9444
11305TIP3    H255407   3.491   0.183  12.240 -1.0016 -0.8017  1.2517
11306TIP3   OH255408   1.861   3.563  14.977 -0.0772  0.1950  0.7589
11306TIP3    H155409   1.798   3.550  14.907 -0.2242  0.5524  0.8258
11306TIP3    H255410   1.935   3.508  14.953  0.2214  0.9598 -0.1084
11307TIP3   OH255411   3.701   3.243   4.840  0.3003 -0.7432 -0.3926
11307TIP3    H155412   3.634   3.186   4.875  1.3251 -0.2150  2.5558
11307TIP3    H255413   3.763   3.184   4.797 -0.1975 -1.5333 -0.0326
11308TIP3   OH255414   6.612   1.794  15.557  0.7515  0.2273  1.2202
11308TIP3    H155415   6.588   1.886  15.560 -0.2035  0.0158  0.3005
11308TIP3    H255416   6.706   1.794  15.543  0.6387  1.0535  0.4735
11309TIP3   OH255417   2.940   0.229  13.895 -0.3218 -0.3653  0.2476
11309TIP3    H155418   2.939   0.273  13.980 -0.7809  2.6203 -1.2421
11309TIP3    H255419   2.897   0.291  13.836  0.2312 -2.2823 -2.2268
11310TIP3   OH255420   2.600   3.811   1.783 -0.0427  0.1722  0.4071
11310TIP3    H155421   2.658   3.746   1.824  1.1838 -0.0081 -1.5251
11310TIP3    H255422   2.659   3.882   1.756 -0.9686  0.7892 -0.0403
11311TIP3   OH255423   5.617   1.721  15.495 -0.2539  0.2128  0.6080
11311TIP3    H155424   5.657   1.784  15.436  0.8618 -0.0257  1.0937
11311TIP3    H255425   5.682   1.708  15.564 -0.7323 -0.9863  0.8486
11312TIP3   OH255426   0.803   2.019  15.696 -0.0554 -0.3393  0.9314
11312TIP3    H155427   0.855   1.942  15.672  1.3718  0.8834  0.0607
11312TIP3    H255428   0.715   1.999  15.664  0.8920 -0.5186 -1.6378
11313TIP3   OH255429   5.296   0.650  16.067 -0.3324 -0.0764  0.3510
11313TIP3    H155430   5.277   0.732  16.112  2.5216  1.0702 -0.4506
11313TIP3    H255431   5.380   0.622  16.101 -0.2487 -1.5343 -0.9715
11314TIP3   OH255432   5.051   6.676   2.201 -0.4830 -0.6977  0.2637
11314TIP3    H155433   5.111   6.610   2.235 -0.6483  0.1121  2.2141
11314TIP3    H255434   5.020   6.640   2.118  2.8646 -1.0413 -0.9201
11315TIP3   OH255435   0.723   1.529  13.195 -0.0344 -0.3952 -0.1386
11315TIP3    H155436   0.652   1.468  13.218 -0.0313 -0.9070 -1.4324
11315TIP3    H255437   0.687   1.616  13.214 -0.7091 -0.6931 -0.0357
11316TIP3   OH255438   1.778   5.281  17.045  0.8137  0.4090 -0.2045
11316TIP3    H155439   1.718   5.332  16.990 -0.0266  0.8899  1.1214
11316TIP3    H255440   1.723   5.252  17.118  1.9610 -0.0599  0.4739
11317TIP3   OH255441   3.230   4.062  15.903  0.0465  0.0507 -0.4233
11317TIP3    H155442   3.264   4.146  15.870  0.3499  0.2487  0.3760
11317TIP3    H255443   3.176   4.087  15.979 -0.9364 -0.3641 -0.9808
11318TIP3   OH255444   0.369   2.702  12.137 -0.1559 -0.1701 -0.5077
11318TIP3    H155445   0.442   2.764  12.139  0.6293 -1.1213  0.7755
11318TIP3    H255446   0.322   2.723  12.056  0.7759  1.3156 -0.6788
11319TIP3   OH255447   4.851   2.104  15.013 -0.1909  0.6752  0.0594
11319TIP3    H155448   4.876   2.069  14.928 -1.0361 -1.2825  0.5996
11319TIP3    H255449   4.810   2.189  14.992 -2.2343 -0.6886 -1.6781
11320TIP3   OH255450   4.399   3.858   1.803  0.0499 -0.8368 -0.1508
11320TIP3    H155451   4.333   3.796   1.832 -0.3442 -0.4684 -0.2518
11320TIP3    H255452   4.476   3.805   1.785  0.5367 -1.0077  2.2551
11321TIP3   OH255453   6.078   3.795  15.363  0.0124  0.3403 -0.4638
11321TIP3    H155454   6.090   3.700  15.359  1.1690  0.4747 -0.0995
11321TIP3    H255455   5.983   3.806  15.364 -0.1297 -0.8333 -0.0310
11322TIP3   OH255456   4.586   5.662   0.576 -0.7811  0.0314 -0.0754
11322TIP3    H155457   4.650   5.594   0.553 -0.4468  0.4832 -0.4672
11322TIP3    H255458   4.615   5.695   0.661 -0.9509 -0.3170  0.1228
11323TIP3   OH255459   1.417   1.467   2.510  0.1562 -0.5502  0.0937
11323TIP3    H155460   1.398   1.535   2.446 -1.6313 -0.9210  0.2182
11323TIP3    H255461   1.446   1.516   2.588  0.0696 -0.0037 -0.2114
11324TIP3   OH255462   5.194   5.516   1.761  0.7051  0.3630 -0.3953
11324TIP3    H155463   5.216   5.481   1.848 -1.6275 -2.2681 -0.7934
11324TIP3    H255464   5.255   5.588   1.749  0.9483  0.9574  3.5262
11325TIP3   OH255465   4.485   1.574   0.559 -0.0798 -0.3626  0.3652
11325TIP3    H155466   4.450   1.649   0.511 -1.5178 -1.5027 -0.4170
11325TIP3    H255467   4.411   1.541   0.611 -0.1075 -2.5331 -0.9705
11326TIP3   OH255468   4.605   3.649   1.757 -0.4837  0.8774  0.2060
11326TIP3    H155469   4.664   3.685   1.824  1.1495 -1.1061 -0.0972
11326TIP3    H255470   4.664   3.609   1.693 -2.0989  1.0893 -1.4696
11327TIP3   OH255471   6.233   2.849  11.678 -0.0742 -0.4889  0.4146
11327TIP3    H155472   6.148   2.810  11.701  0.5638 -3.1231 -1.4576
11327TIP3    H255473   6.211   2.920  11.618 -1.2077  1.5873  3.1959
11328TIP3   OH255474   1.828   4.445   5.792  0.5251  0.0912  0.0279
11328TIP3    H155475   1.809   4.372   5.851  1.0841 -0.7055 -0.7724
11328TIP3    H255476   1.837   4.521   5.850 -0.3669 -0.4085  0.8319
11329TIP3   OH255477   2.174   6.758   4.078  0.0917 -0.2241  0.4488
11329TIP3    H155478   2.270   6.760   4.080  0.0977 -0.4427  0.4143
11329TIP3    H255479   2.151   6.675   4.120 -0.0288 -1.2172 -1.5239
11330TIP3   OH255480   4.985   0.290   3.649  0.3149  0.3936 -0.2981
11330TIP3    H155481   4.897   0.320   3.625  0.2567  1.7974  1.5246
11330TIP3    H255482   4.972   0.236   3.727  1.2164  2.0725  1.0566
11331TIP3   OH255483   1.168   1.220   5.534  0.3378 -0.2187 -0.1706
11331TIP3    H155484   1.176   1.132   5.497  0.6081 -0.9737  1.5997
11331TIP3    H255485   1.087   1.254   5.499  0.1279 -1.2668 -0.7190
11332TIP3   OH255486   5.066   4.926  16.865 -0.0864  0.1269 -0.2913
11332TIP3    H155487   5.134   4.894  16.923  1.4030  2.3405 -0.7609
11332TIP3    H255488   4.993   4.949  16.923  0.0424 -0.9900  0.3315
11333TIP3   OH255489   2.277   5.913   3.332 -0.5062 -0.1197  0.3539
11333TIP3    H155490   2.224   5.929   3.410 -0.1148 -2.5495  1.1863
11333TIP3    H255491   2.366   5.902   3.365 -0.7438 -3.9139 -0.0189
11334TIP3   OH255492   5.255   3.380  15.467 -0.4158  0.0230 -0.3508
11334TIP3    H155493   5.189   3.385  15.398 -0.6263 -0.9239 -0.2260
11334TIP3    H255494   5.312   3.455  15.452 -0.7232  0.0670 -1.2916
11335TIP3   OH255495   3.746   1.585  13.073  0.5285  0.1735 -0.1553
11335TIP3    H155496   3.754   1.621  12.985  0.5509  1.1419  0.2373
11335TIP3    H255497   3.828   1.539  13.088  0.4155 -0.2255 -0.7397
11336TIP3   OH255498   3.722   3.759  14.383  0.4350 -0.4078  0.0858
11336TIP3    H155499   3.662   3.685  14.387 -0.0399 -0.0281  0.0337
11336TIP3    H255500   3.748   3.773  14.474  0.4785 -0.5987  0.1033
11337TIP3   OH255501   3.090   3.151  17.179  0.6715  0.4703  0.0777
11337TIP3    H155502   3.106   3.090  17.252  0.1497  0.5686  0.2767
11337TIP3    H255503   3.094   3.096  17.101 -2.3210 -0.3253  0.4093
11338TIP3   OH255504   2.789   1.993  12.221 -0.3401 -0.1544 -0.2850
11338TIP3    H155505   2.810   1.913  12.172  2.6468 -0.3578  1.1900
11338TIP3    H255506   2.856   2.056  12.194 -2.5724  1.8343 -1.3082
11339TIP3   OH255507   0.675   1.770  12.772 -0.5609  1.0452 -0.4891
11339TIP3    H155508   0.715   1.750  12.687 -2.2135 -1.7260 -0.6606
11339TIP3    H255509   0.740   1.742  12.837 -0.0648  1.4623 -0.8005
11340TIP3   OH255510   5.574   4.069   5.306  0.5509  0.2189  0.0520
11340TIP3    H155511   5.596   4.150   5.352  0.0119  0.1290  0.4723
11340TIP3    H255512   5.656   4.043   5.263  1.2209 -0.0188  1.4491
11341TIP3   OH255513   2.387   4.613  15.557  0.2569  0.8710 -0.1293
11341TIP3    H155514   2.306   4.592  15.512  0.4437 -0.0784 -0.0244
11341TIP3    H255515   2.452   4.625  15.488  0.0521  1.5682 -0.2088
11342TIP3   OH255516   0.914   3.587   4.887  0.0683  0.2332  0.2896
11342TIP3    H155517   0.955   3.613   4.805  0.1017 -1.1261 -0.1358
11342TIP3    H255518   0.821   3.580   4.866  0.0112  0.3558  0.4938
11343TIP3   OH255519   5.904   4.551   6.041 -0.0902  0.1398 -0.3139
11343TIP3    H155520   5.915   4.625   5.982 -0.9310 -0.4684 -1.2365
11343TIP3    H255521   5.881   4.591   6.125  1.0718  0.9957 -0.3882
11344TIP3   OH255522   1.418   3.822   4.379  0.0488  0.1538  0.0319
11344TIP3    H155523   1.358   3.752   4.351  0.3125 -1.4116  3.2158
11344TIP3    H255524   1.504   3.781   4.379  0.6630  1.4050 -1.1090
11345TIP3   OH255525   4.430   4.685   0.325 -0.0395 -0.2376 -0.1834
11345TIP3    H155526   4.455   4.712   0.413  0.3503 -0.3456 -0.2632
11345TIP3    H255527   4.434   4.590   0.327 -0.3714 -0.2556 -0.2193
11346TIP3   OH255528   1.075   2.129   1.321 -0.4568  0.6349  0.0634
11346TIP3    H155529   1.132   2.053   1.310 -0.8979  0.1605  0.9710
11346TIP3    H255530   1.128   2.192   1.370 -0.9334 -0.0923  1.5576
11347TIP3   OH255531   3.748   3.588   2.110 -0.5509 -0.2745  0.3641
11347TIP3    H155532   3.802   3.541   2.047 -2.3982  0.0405 -1.5038
11347TIP3    H255533   3.784   3.676   2.112  1.4476 -1.0683  2.1238
11348TIP3   OH255534   4.608   2.162  16.737  0.4211  0.1210 -0.0277
11348TIP3    H155535   4.679   2.134  16.795  0.6382  0.3536 -0.1869
11348TIP3    H255536   4.573   2.241  16.778 -0.7269 -0.8173  0.8642
11349TIP3   OH255537   3.701   3.575  14.990 -0.1175  0.5326  0.3657
11349TIP3    H155538   3.677   3.656  15.034 -0.7924  0.3039  0.4233
11349TIP3    H255539   3.780   3.597  14.940 -0.2678  1.2044  0.4200
11350TIP3   OH255540   0.979   5.025  17.004 -0.7087  0.2853  0.2324
11350TIP3    H155541   0.959   5.049  16.913 -0.8789 -2.2334 -0.4452
11350TIP3    H255542   0.898   4.988  17.038 -0.8070  1.7226  1.6226
11351TIP3   OH255543   2.985   2.759  13.863 -0.5263  0.3950 -0.6777
11351TIP3    H155544   2.984   2.779  13.770 -1.2772 -2.3087 -1.2950
11351TIP3    H255545   3.032   2.676  13.869 -2.6344 -0.7146  1.0740
11352TIP3   OH255546   4.169   2.742   2.111 -0.0143 -0.1101  0.4386
11352TIP3    H155547   4.153   2.755   2.017  0.4377  0.2595  0.4107
11352TIP3    H255548   4.200   2.828   2.142 -0.5544 -0.1171  1.0088
11353TIP3   OH255549   0.918   2.662   2.496 -0.6637 -0.7925  0.3230
11353TIP3    H155550   1.008   2.693   2.509 -0.3924  0.3584 -3.6269
11353TIP3    H255551   0.864   2.740   2.506 -0.7548 -0.5666 -1.7572
11354TIP3   OH255552   1.461   0.831   4.601  0.1179 -0.8642  0.2705
11354TIP3    H155553   1.516   0.857   4.675  0.8497  1.1470 -0.9553
11354TIP3    H255554   1.380   0.881   4.613 -0.3019 -1.5874  0.4645
11355TIP3   OH255555   6.106   1.406  12.874  0.2446 -0.3600 -0.0088
11355TIP3    H155556   6.115   1.317  12.907 -2.1883 -0.6826 -0.1412
11355TIP3    H255557   6.017   1.410  12.840 -0.2536  2.6018  1.4933
11356TIP3   OH255558   2.971   2.940   2.266  0.4883  0.2420  0.0273
11356TIP3    H155559   2.941   2.985   2.187  0.1680 -0.3589 -0.1995
11356TIP3    H255560   2.990   3.011   2.328  0.0207  0.6884 -0.3305
11357TIP3   OH255561   3.136   3.329  10.830 -0.0237 -0.4088 -0.3187
11357TIP3    H155562   3.090   3.361  10.909  0.8741  1.4910 -0.5355
11357TIP3    H255563   3.066   3.298  10.773 -0.9259  0.7309  0.1308
11358TIP3   OH255564   2.203   0.746   0.740  0.3653 -0.0306 -0.4715
11358TIP3    H155565   2.260   0.691   0.794 -0.1914  0.9073  1.1113
11358TIP3    H255566   2.256   0.822   0.719  0.8901 -0.8116 -2.0483
11359TIP3   OH255567   5.996   5.305   0.429 -0.4523  0.2329  0.4253
11359TIP3    H155568   5.996   5.229   0.371  0.3994 -0.3333  1.1467
11359TIP3    H255569   5.903   5.327   0.440 -0.7648 -1.2853  0.9529
11360TIP3   OH255570   2.003   6.690  14.956 -0.6866 -0.1016  0.1544
11360TIP3    H155571   2.062   6.749  15.002 -2.3107  2.3251 -0.7481
11360TIP3    H255572   1.936   6.669  15.021 -0.8093  0.1033  0.0956
11361TIP3   OH255573   4.777   5.263   0.223 -0.3601 -0.2937 -0.4257
11361TIP3    H155574   4.687   5.270   0.191 -0.1547  1.8352 -0.6508
11361TIP3    H255575   4.831   5.285   0.147  0.2784  0.2191  0.1708
11362TIP3   OH255576   4.830   1.478   0.601 -0.1008 -0.0177  0.3061
11362TIP3    H155577   4.865   1.534   0.531  1.5848 -0.0738  1.0928
11362TIP3    H255578   4.852   1.389   0.573  0.6751 -0.0329  0.9581
11363TIP3   OH255579   1.860   0.010  13.086  0.1340  0.8355 -0.3039
11363TIP3    H155580   1.926   0.048  13.029  1.1943 -0.3998  0.0842
11363TIP3    H255581   1.806  -0.044  13.028 -0.8951  2.2764 -0.7175
11364TIP3   OH255582   6.405   2.136   4.537  0.4869  0.5686  0.1811
11364TIP3    H155583   6.369   2.180   4.460 -2.8784 -1.5421  0.4368
11364TIP3    H255584   6.379   2.191   4.611  2.3750  1.7862 -0.0498
11365TIP3   OH255585   5.749   4.647  12.452 -0.9631  0.4664 -0.2030
11365TIP3    H155586   5.788   4.638  12.539 -0.6877  0.7399 -0.2971
11365TIP3    H255587   5.765   4.738  12.428 -1.6400  0.5768 -0.2553
11366TIP3   OH255588   5.097   3.969  12.968 -0.1924 -0.2813 -0.3553
11366TIP3    H155589   5.154   3.997  12.896  0.3061  1.8865  0.8206
11366TIP3    H255590   5.023   4.029  12.964 -0.9635 -1.2034 -0.0609
11367TIP3   OH255591   0.486   0.038   4.641 -0.0373 -0.1654  0.5882
11367TIP3    H155592   0.563  -0.019   4.634  0.4596  0.5858 -0.2371
11367TIP3    H255593   0.433   0.016   4.564 -0.3634 -0.2643  0.8387
11368TIP3   OH255594   2.187   6.454  12.097  0.4011  0.3352 -0.1085
11368TIP3    H155595   2.213   6.486  12.184 -0.2548  0.3970  0.0636
11368TIP3    H255596   2.121   6.388  12.114  0.8442 -0.2236 -0.5298
11369TIP3   OH255597   1.371   1.768   5.818 -0.5507 -0.3710  0.2311
11369TIP3    H155598   1.343   1.719   5.895 -1.8135  0.8770  0.5884
11369TIP3    H255599   1.439   1.827   5.850 -2.0829  1.1692  0.7144
11370TIP3   OH255600   1.671   5.410  12.801 -0.3758 -0.2078  0.0218
11370TIP3    H155601   1.618   5.472  12.851  1.6293 -0.1940  2.2720
11370TIP3    H255602   1.635   5.324  12.822 -1.5038  0.0086 -1.0099
11371TIP3   OH255603   1.091   3.225   6.320  0.0776 -0.1430 -0.5650
11371TIP3    H155604   1.178   3.232   6.281  0.9986  0.7166  1.5600
11371TIP3    H255605   1.093   3.144   6.370  0.0792  0.4891  0.4737
11372TIP3   OH255606   6.264   5.934  14.987 -0.3272  0.7249  0.0582
11372TIP3    H155607   6.331   6.001  15.004  1.5501 -0.4186 -2.4769
11372TIP3    H255608   6.293   5.858  15.037 -0.3004  0.5515 -0.2229
11373TIP3   OH255609   2.524   6.394   1.299 -0.4781  0.3425 -0.4592
11373TIP3    H155610   2.600   6.442   1.267  0.0460  0.3117  0.7424
11373TIP3    H255611   2.455   6.461   1.308 -0.4594  0.4489 -1.0854
11374TIP3   OH255612   2.492   2.415   5.560 -0.3607 -0.0723 -0.7636
11374TIP3    H155613   2.404   2.378   5.566  0.0348 -1.1511 -1.6096
11374TIP3    H255614   2.547   2.356   5.612 -0.0435  0.3413 -0.6223
11375TIP3   OH255615   3.244   0.004   3.315 -0.4530 -0.6222 -0.4308
11375TIP3    H155616   3.248   0.048   3.399  0.1308 -0.5097 -0.5134
11375TIP3    H255617   3.318  -0.057   3.316  1.4543  1.5637 -2.0661
11376TIP3   OH255618   0.411   6.551  14.577  0.4695  0.2721  0.1831
11376TIP3    H155619   0.474   6.517  14.514 -1.5263 -0.9849 -1.1978
11376TIP3    H255620   0.415   6.646  14.566  1.0731  0.1257 -0.8955
11377TIP3   OH255621   4.381   0.250   1.867  0.3299 -0.2826  0.4682
11377TIP3    H155622   4.306   0.192   1.851  0.2762  0.1970 -1.1962
11377TIP3    H255623   4.435   0.203   1.930 -0.1302 -1.7754 -0.2192
11378TIP3   OH255624   2.530   5.327  13.917  0.0307 -0.2668  0.4171
11378TIP3    H155625   2.521   5.412  13.874 -1.1789 -0.7219 -0.2728
11378TIP3    H255626   2.602   5.339  13.979 -0.3094  1.3447  0.5397
11379TIP3   OH255627   4.120   3.367  15.680  0.1675  0.3927  0.3844
11379TIP3    H155628   4.057   3.436  15.662  0.8432  1.3739  1.6979
11379TIP3    H255629   4.072   3.301  15.730 -0.6336 -0.3990 -1.3852
11380TIP3   OH255630   1.695   3.717  16.296  0.2886 -0.3530 -0.3790
11380TIP3    H155631   1.746   3.638  16.277  1.4232 -0.0989  1.4581
11380TIP3    H255632   1.606   3.696  16.270  0.3103 -2.7477  1.3218
11381TIP3   OH255633   4.089   0.478   1.370 -0.0186 -0.1211  0.5420
11381TIP3    H155634   4.057   0.566   1.352 -0.0192 -0.3145 -0.4049
11381TIP3    H255635   4.150   0.489   1.443 -0.5413  0.5627  0.8786
11382TIP3   OH255636   4.641   0.772  14.968 -0.3656 -0.8609 -0.4205
11382TIP3    H155637   4.582   0.839  14.932  0.7588  0.1901 -0.3143
11382TIP3    H255638   4.591   0.691  14.960 -0.9777 -0.3335 -2.4319
11383TIP3   OH255639   5.202   3.005   4.620  0.1684 -0.2457  0.4684
11383TIP3    H155640   5.298   3.007   4.623  0.1890 -1.6988  1.3751
11383TIP3    H255641   5.178   3.087   4.578  1.8557 -0.3632 -0.7917
11384TIP3   OH255642   1.507   4.151  15.021 -0.3572 -0.1537 -0.1519
11384TIP3    H155643   1.525   4.067  14.978 -1.1944 -1.2431  1.5506
11384TIP3    H255644   1.446   4.195  14.962 -3.4292 -2.6705  0.9284
11385TIP3   OH255645   6.531   3.115  14.499 -0.2993  0.0045 -0.3225
11385TIP3    H155646   6.622   3.120  14.527 -0.0932 -1.4252 -0.7249
11385TIP3    H255647   6.525   3.175  14.425 -0.1562  1.5651  0.8981
11386TIP3   OH255648   1.516   1.164   5.281  0.3981 -0.0264  0.0157
11386TIP3    H155649   1.526   1.098   5.213  0.1952  0.4566 -0.4883
11386TIP3    H255650   1.493   1.115   5.360  1.0623 -0.6315 -0.1600
11387TIP3   OH255651   5.980   3.978   4.844 -0.0361 -0.0713  0.0650
11387TIP3    H155652   5.996   3.894   4.887  0.4512  0.5337  1.0729
11387TIP3    H255653   5.886   3.976   4.824 -0.1033 -0.7019  0.4101
11388TIP3   OH255654   6.097   3.736   1.164  0.1962 -0.1503 -0.1472
11388TIP3    H155655   6.045   3.695   1.233 -0.7198  0.8182 -0.2531
11388TIP3    H255656   6.068   3.694   1.083  0.3513 -0.3762 -0.0852
11389TIP3   OH255657   3.773   6.741  11.259 -0.2052 -0.9836  0.0766
11389TIP3    H155658   3.807   6.814  11.207 -1.9808 -0.5162 -0.4737
11389TIP3    H255659   3.836   6.670  11.247  1.1772  0.2472  0.0735
11390TIP3   OH255660   1.949   0.383   2.658 -0.4116  0.4050  0.4105
11390TIP3    H155661   1.910   0.384   2.745 -0.0490  2.5451  0.5751
11390TIP3    H255662   1.955   0.476   2.633  1.2327 -0.0749 -1.1021
11391TIP3   OH255663   4.907   0.258   5.185  0.2096 -0.3234 -0.7490
11391TIP3    H155664   4.939   0.312   5.257  1.2508 -0.3099 -1.2044
11391TIP3    H255665   4.972   0.270   5.116  0.0425 -1.5413 -1.1352
11392TIP3   OH255666   3.767   3.088   1.033 -0.1786  0.0287  0.0981
11392TIP3    H155667   3.672   3.080   1.025 -0.2141  1.6051 -1.5270
11392TIP3    H255668   3.800   3.001   1.014 -1.2784 -0.3825  0.0217
11393TIP3   OH255669   3.486   4.716  11.421 -0.1048 -0.4321  0.5740
11393TIP3    H155670   3.537   4.795  11.402 -0.3170 -0.4566 -0.1210
11393TIP3    H255671   3.519   4.686  11.506  0.7160 -0.1862  0.3505
11394TIP3   OH255672   1.178   3.636  16.699  0.0692  0.0590 -0.0931
11394TIP3    H155673   1.107   3.699  16.690 -0.0527 -0.3636 -2.3183
11394TIP3    H255674   1.170   3.602  16.789 -2.0162  0.6046 -0.0687
11395TIP3   OH255675   3.527   4.842   3.586  0.3136  0.1852  0.1921
11395TIP3    H155676   3.467   4.841   3.660 -1.5477 -2.6919 -1.2550
11395TIP3    H255677   3.488   4.905   3.525  0.4126  0.5769  0.5305
11396TIP3   OH255678   5.100   5.041   5.766 -0.1784  0.2040  0.4293
11396TIP3    H155679   5.188   5.018   5.739 -0.3130 -0.7948  0.8459
11396TIP3    H255680   5.064   4.962   5.805 -1.1239  0.7106  0.6234
11397TIP3   OH255681   1.493   2.942  15.398  0.4040  0.3791 -0.6614
11397TIP3    H155682   1.505   2.972  15.307  0.6563  1.6343 -0.2233
11397TIP3    H255683   1.414   2.987  15.428  0.5371  0.2661 -0.1351
11398TIP3   OH255684   4.638   0.800  15.414  0.0738  0.0219  0.2817
11398TIP3    H155685   4.564   0.791  15.354  1.1556  2.0886 -1.4516
11398TIP3    H255686   4.609   0.862  15.480 -0.0763  0.0862  0.1554
11399TIP3   OH255687   5.781   3.217  16.518  0.0122 -0.2118 -0.5381
11399TIP3    H155688   5.829   3.141  16.552 -1.1201 -0.1349  1.2526
11399TIP3    H255689   5.690   3.198  16.537 -0.3236  1.4151 -0.4997
11400TIP3   OH255690   6.269   1.637   3.938 -0.0116 -0.5880  0.3293
11400TIP3    H155691   6.258   1.631   4.032 -2.1926  0.2349  0.1471
11400TIP3    H255692   6.180   1.642   3.903  0.7735 -0.3455 -1.7239
11401TIP3   OH255693   2.107   6.162  13.482  0.1109  0.2014 -0.0761
11401TIP3    H155694   2.157   6.083  13.500  0.0517  0.6658  2.1959
11401TIP3    H255695   2.026   6.131  13.440  1.8752 -0.6053 -3.0836
11402TIP3   OH255696   0.504   6.310  14.197  0.1671 -0.1520 -0.0670
11402TIP3    H155697   0.530   6.218  14.183  0.3796 -0.0316 -0.4618
11402TIP3    H255698   0.458   6.334  14.117 -2.7550 -0.9069  1.3239
11403TIP3   OH255699   1.086   3.201   5.051  0.7704 -0.3429 -0.2863
11403TIP3    H155700   1.006   3.175   5.097  0.1449  0.4807 -0.8874
11403TIP3    H255701   1.075   3.168   4.962  1.2794 -0.5671 -0.2684
11404TIP3   OH255702   2.551   3.604  13.569 -0.1117  0.5246 -0.0935
11404TIP3    H155703   2.582   3.579  13.656 -0.2441  0.0516 -0.1803
11404TIP3    H255704   2.482   3.668  13.585 -0.4081  0.1450  0.1706
11405TIP3   OH255705   3.522   2.819   5.485 -0.4539  0.1146 -0.2999
11405TIP3    H155706   3.433   2.784   5.489 -0.1519 -0.7126 -0.6904
11405TIP3    H255707   3.555   2.792   5.400 -0.3859  1.8059 -0.8112
11406TIP3   OH255708   1.229   5.047  14.499 -0.3041 -0.3525 -0.2693
11406TIP3    H155709   1.191   5.109  14.436 -1.5285 -0.5903  0.2241
11406TIP3    H255710   1.169   4.972  14.498 -1.2673  0.3336  2.4337
11407TIP3   OH255711   5.683   1.908   1.244 -0.3248 -0.5221 -0.2075
11407TIP3    H155712   5.707   1.995   1.275 -0.1890 -0.9271  0.8305
11407TIP3    H255713   5.767   1.864   1.229 -0.3478  0.1857 -2.6823
11408TIP3   OH255714   4.212   4.937   2.105  1.1637 -0.3011  0.4451
11408TIP3    H155715   4.167   5.021   2.096  0.9374 -0.2154  2.3170
11408TIP3    H255716   4.254   4.924   2.019  0.1126  1.0682 -0.3093
11409TIP3   OH255717   3.348   3.376  13.498  0.1902  0.7060  0.6162
11409TIP3    H155718   3.338   3.290  13.540 -2.9590  0.3319 -0.7712
11409TIP3    H255719   3.343   3.439  13.571 -1.0817 -0.1204  1.2541
11410TIP3   OH255720   1.154   5.350  16.888 -0.7528  1.0638 -0.3222
11410TIP3    H155721   1.168   5.425  16.830 -1.0056  1.3070 -0.0710
11410TIP3    H255722   1.116   5.388  16.968  1.9941  1.0862  1.0497
11411TIP3   OH255723   0.051   3.860  15.604  0.1378  0.2189  0.8241
11411TIP3    H155724   0.113   3.832  15.538 -0.2209 -0.0427  0.5993
11411TIP3    H255725   0.014   3.942  15.569  1.4430  1.1817  1.6407
11412TIP3   OH255726   2.779   6.537  16.450  0.2118 -0.1090 -0.1447
11412TIP3    H155727   2.805   6.478  16.379  0.9457 -0.4214  0.3767
11412TIP3    H255728   2.806   6.624  16.421  1.5102 -0.3781  0.2142
11413TIP3   OH255729   6.311   5.821  13.275 -0.1348  0.3742  0.1410
11413TIP3    H155730   6.302   5.763  13.199 -0.5580  0.0658  0.4261
11413TIP3    H255731   6.268   5.902  13.249 -2.8037 -0.6819  1.0608
11414TIP3   OH255732   3.023   6.469   5.813  0.1093  0.1054 -0.4346
11414TIP3    H155733   2.986   6.383   5.791  0.0110 -0.4335  1.7395
11414TIP3    H255734   3.096   6.479   5.751 -0.2240 -1.3008 -1.0829
11415TIP3   OH255735   3.106   0.455  14.652  0.4023  0.2226 -0.0668
11415TIP3    H155736   3.201   0.466  14.658  0.2512  1.4695  0.2015
11415TIP3    H255737   3.086   0.383  14.713  0.9408  1.3661  1.5004
11416TIP3   OH255738   0.595   5.317  13.231  0.2013  0.1755  0.3091
11416TIP3    H155739   0.587   5.327  13.136 -2.0333 -0.0899  0.4561
11416TIP3    H255740   0.677   5.268  13.243  0.9162  0.8937 -1.4180
11417TIP3   OH255741   6.553   5.224   4.336 -0.4229 -0.1712  0.3696
11417TIP3    H155742   6.609   5.296   4.363 -1.6532  0.5099  1.1396
11417TIP3    H255743   6.609   5.170   4.280  1.0939  0.3102  1.3874
11418TIP3   OH255744   2.114   3.094   4.155 -0.0045 -0.3714 -0.0393
11418TIP3    H155745   2.032   3.128   4.190 -0.1509  0.0091 -0.7429
11418TIP3    H255746   2.093   3.005   4.127 -0.3429 -0.0397 -0.8298
11419TIP3   OH255747   2.665   5.605   1.329  0.0012 -0.0761 -0.0804
11419TIP3    H155748   2.646   5.624   1.421  1.7398 -0.9709  0.4981
11419TIP3    H255749   2.651   5.511   1.321  0.1786 -0.0532 -0.6579
11420TIP3   OH255750   0.917   5.864   0.674  0.6227 -0.2398  0.1214
11420TIP3    H155751   0.913   5.795   0.740 -3.0149 -1.4812 -1.2509
11420TIP3    H255752   0.962   5.823   0.600 -0.4163 -0.7708 -0.2311
11421TIP3   OH255753   5.658   1.913  10.536  0.4677 -0.0323 -0.3312
11421TIP3    H155754   5.594   1.842  10.531  0.2519  0.0921  0.6540
11421TIP3    H255755   5.608   1.992  10.517 -0.1729  0.3394  2.7439
11422TIP3   OH255756   1.034   1.592  13.881 -0.1766  0.0118  0.1468
11422TIP3    H155757   0.980   1.635  13.947  1.8614  1.0022  1.2178
11422TIP3    H255758   1.081   1.664  13.838  0.0980 -0.8012 -0.9375
11423TIP3   OH255759   4.491   4.530  15.134  0.3022 -0.1662 -0.4947
11423TIP3    H155760   4.491   4.584  15.213  3.6657 -0.6027 -0.1244
11423TIP3    H255761   4.468   4.591  15.064  0.8862  1.0423  0.3462
11424TIP3   OH255762   2.988   2.537   6.213 -0.0618  0.1765  0.1204
11424TIP3    H155763   3.078   2.541   6.245 -0.2473 -1.4283  0.9023
11424TIP3    H255764   2.986   2.596   6.138  2.0664 -1.0569 -0.9383
11425TIP3   OH255765   0.887   1.199  16.339  0.2291 -0.1221 -0.6983
11425TIP3    H155766   0.796   1.213  16.313 -0.0961 -1.8525 -0.5828
11425TIP3    H255767   0.937   1.260  16.284 -1.0219  1.1731 -0.4315
11426TIP3   OH255768   5.793   3.565  10.610 -0.0570 -0.5282  0.6099
11426TIP3    H155769   5.784   3.477  10.646 -1.2342 -0.5947  0.1682
11426TIP3    H255770   5.773   3.623  10.683 -0.7359 -0.6415  0.5120
11427TIP3   OH255771   4.171   5.082  11.801  0.4438  0.3453  0.0520
11427TIP3    H155772   4.135   5.169  11.783 -1.8932 -0.6372 -0.1577
11427TIP3    H255773   4.186   5.044  11.714 -0.5858 -0.2767  0.1426
11428TIP3   OH255774   2.491   6.007  12.624  0.2918  0.4177  0.0715
11428TIP3    H155775   2.534   6.084  12.587  0.8908  0.1786  0.2766
11428TIP3    H255776   2.455   5.961  12.548  0.0243  0.8343 -0.0601
11429TIP3   OH255777   6.022   0.826   3.159  0.1755 -0.0903  0.1969
11429TIP3    H155778   6.000   0.912   3.194  1.2167  0.8433 -1.3723
11429TIP3    H255779   5.954   0.808   3.094  0.6343  0.1210 -0.3550
11430TIP3   OH255780   2.797   2.671  12.597  0.5924  0.2858  0.7601
11430TIP3    H155781   2.882   2.684  12.556  0.2111  0.8141  0.1169
11430TIP3    H255782   2.748   2.750  12.575  0.4913  0.7406  2.5214
11431TIP3   OH255783   5.724   4.906  13.128  0.3625  0.4108  0.0231
11431TIP3    H155784   5.804   4.958  13.123  1.1243 -0.7351  0.0890
11431TIP3    H255785   5.754   4.815  13.125 -0.8520 -0.0533  1.2049
11432TIP3   OH255786   6.487   3.068  13.972 -0.0902 -0.0981 -0.2646
11432TIP3    H155787   6.540   3.144  13.996 -1.2777  0.6109  0.1461
11432TIP3    H255788   6.550   3.004  13.940  0.6211  2.3180 -3.9553
11433TIP3   OH255789   5.989   1.890  14.291 -0.3968 -0.0697  0.4948
11433TIP3    H155790   5.912   1.944  14.307 -0.3982 -0.2059  0.9511
11433TIP3    H255791   5.954   1.809  14.253 -0.1724  1.3695 -2.9830
11434TIP3   OH255792   0.284   1.256   3.302  0.1968 -0.2721 -0.5893
11434TIP3    H155793   0.248   1.344   3.287 -0.6592 -0.4493  0.3255
11434TIP3    H255794   0.290   1.217   3.215  0.1560  0.5311 -0.9584
11435TIP3   OH255795   0.854   4.550  14.957  0.2766 -0.2471  0.4868
11435TIP3    H155796   0.925   4.550  14.893  0.8746 -0.5878  1.1503
11435TIP3    H255797   0.890   4.504  15.033 -1.3103 -2.2679  0.0588
11436TIP3   OH255798   5.498   5.448  11.385 -0.3276 -0.8480  0.1326
11436TIP3    H155799   5.539   5.521  11.339 -0.6867 -0.4954  0.3784
11436TIP3    H255800   5.492   5.476  11.476  1.5258 -2.0392  0.6473
11437TIP3   OH255801   5.003   6.417  11.839  0.8558 -0.0004 -0.0978
11437TIP3    H155802   5.019   6.487  11.902  2.5787  0.9187 -1.5201
11437TIP3    H255803   4.990   6.463  11.756  0.7776 -1.3043 -0.8101
11438TIP3   OH255804   4.047   3.745  16.038  0.5748  0.3092 -0.0307
11438TIP3    H155805   4.026   3.706  16.123  0.8653  0.0568 -0.0752
11438TIP3    H255806   4.142   3.752  16.038  0.5638  0.4708 -0.2671
11439TIP3   OH255807   4.022   1.374  12.367 -0.3133  0.2697 -0.4043
11439TIP3    H155808   3.959   1.444  12.353 -0.6904  0.0135 -0.0222
11439TIP3    H255809   4.003   1.311  12.297 -1.9802 -0.8576  1.0165
11440TIP3   OH255810   2.639   2.166   5.176  0.6141  0.6282 -0.3467
11440TIP3    H155811   2.552   2.146   5.144  0.4813 -0.1685  0.4964
11440TIP3    H255812   2.635   2.149   5.270  1.8569 -0.0915 -0.4026
11441TIP3   OH255813   5.248   2.229   3.857 -0.5338  0.4991  0.2758
11441TIP3    H155814   5.274   2.199   3.770 -1.5287 -0.8014  0.4215
11441TIP3    H255815   5.331   2.247   3.902  0.0342 -0.7707 -0.2521
11442TIP3   OH255816   1.456   5.346   1.027 -0.7363  0.2479  0.2555
11442TIP3    H155817   1.478   5.412   0.961 -4.0586  1.1583 -0.0301
11442TIP3    H255818   1.492   5.381   1.109 -0.3899  1.2698 -0.3217
11443TIP3   OH255819   0.407   5.340   2.185 -0.3699 -0.4151  0.0112
11443TIP3    H155820   0.371   5.393   2.113 -0.2605 -0.1443  0.1521
11443TIP3    H255821   0.383   5.250   2.163  0.3464 -0.4195 -0.7717
11444TIP3   OH255822   3.963   5.563   1.738  0.1823 -0.1941  0.5742
11444TIP3    H155823   3.906   5.547   1.663  1.6443  1.5381 -0.9648
11444TIP3    H255824   3.952   5.656   1.757  0.4840 -0.4296  1.9611
11445TIP3   OH255825   3.488   4.468  14.231 -0.2362 -0.0191  0.0966
11445TIP3    H155826   3.521   4.508  14.312  1.2167 -0.1095 -0.4239
11445TIP3    H255827   3.430   4.398  14.260  0.8261 -0.5165  1.0931
11446TIP3   OH255828   5.879   1.995   1.904 -0.2109 -0.2187 -0.1456
11446TIP3    H155829   5.801   1.939   1.900  0.1131 -0.7857  0.9568
11446TIP3    H255830   5.881   2.041   1.821 -1.6546 -0.3016 -0.2317
11447TIP3   OH255831   2.332   0.270   2.776 -0.2579  0.1964  0.6107
11447TIP3    H155832   2.400   0.207   2.751  1.1267  1.8177  0.2232
11447TIP3    H255833   2.290   0.231   2.853  2.6214  0.2448  2.2445
11448TIP3   OH255834   3.745   2.681  14.891 -0.5507  0.7529 -0.1083
11448TIP3    H155835   3.808   2.751  14.871 -1.1112  1.2375 -0.2056
11448TIP3    H255836   3.769   2.609  14.833  1.2645  0.1369  1.3637
11449TIP3   OH255837   2.823   1.116  14.958  0.7113  0.3503  0.5468
11449TIP3    H155838   2.784   1.031  14.938  1.4628  0.2833 -0.7304
11449TIP3    H255839   2.882   1.100  15.031 -0.2857  0.0884  1.3017
11450TIP3   OH255840   4.183   4.359   5.831 -0.3808  0.0271 -0.5917
11450TIP3    H155841   4.178   4.271   5.867  1.4005  0.2654  0.3009
11450TIP3    H255842   4.092   4.390   5.829 -0.7547 -0.8708  1.5261
11451TIP3   OH255843   6.173   5.664  16.540 -0.5810 -0.5040  0.2274
11451TIP3    H155844   6.237   5.735  16.546 -1.1120 -0.2050  3.3104
11451TIP3    H255845   6.088   5.707  16.548 -0.9298 -1.4143  1.5800
11452TIP3   OH255846   6.161   5.053   4.725  0.2092 -0.1429  0.1409
11452TIP3    H155847   6.173   4.998   4.648 -0.4834  2.4775 -1.8868
11452TIP3    H255848   6.248   5.086   4.745  0.2736 -0.2572  0.0501
11453TIP3   OH255849   2.880   4.368  10.966  0.3242 -0.0038  0.3618
11453TIP3    H155850   2.834   4.392  10.885 -0.0054  0.1867  0.6072
11453TIP3    H255851   2.899   4.452  11.007 -0.9092 -0.1529  1.2640
11454TIP3   OH255852   5.608   4.566   3.701 -0.0110 -0.0907  0.0328
11454TIP3    H155853   5.571   4.552   3.613  0.0571 -0.6518  0.0881
11454TIP3    H255854   5.684   4.508   3.704  1.3019  1.5892 -0.3228
11455TIP3   OH255855   4.087   4.112   4.376 -0.6665 -0.2639 -0.0207
11455TIP3    H155856   4.073   4.203   4.349  0.4797  0.0346  0.3720
11455TIP3    H255857   4.169   4.114   4.424  0.1622 -1.7912 -1.3279
11456TIP3   OH255858   2.051   6.648  15.589 -0.1232  0.6894  0.0051
11456TIP3    H155859   2.038   6.575  15.529 -1.0168  0.3305  0.6147
11456TIP3    H255860   2.145   6.663  15.590  0.0002 -0.0322 -0.6184
11457TIP3   OH255861   4.757   0.050  13.476 -0.0113 -0.0547 -0.2828
11457TIP3    H155862   4.821   0.085  13.538 -0.0898  0.8439 -0.6929
11457TIP3    H255863   4.765  -0.045  13.484  2.7093 -0.0185 -1.6437
11458TIP3   OH255864   5.911   0.097   3.023  0.3304 -0.2397  0.4972
11458TIP3    H155865   5.831   0.130   3.064  0.0888  0.5862 -0.6412
11458TIP3    H255866   5.888   0.009   2.993  0.0442 -0.2398  0.7141
11459TIP3   OH255867   0.541   6.677   0.709 -0.2785 -0.2403 -0.7261
11459TIP3    H155868   0.635   6.689   0.727 -0.3585 -0.8099  0.0890
11459TIP3    H255869   0.537   6.592   0.665 -0.6007 -1.0187  0.7957
11460TIP3   OH255870   1.612   0.255  11.839 -0.2289  0.1748 -0.8026
11460TIP3    H155871   1.561   0.233  11.918 -0.7056  2.5290 -0.4215
11460TIP3    H255872   1.703   0.255  11.869 -0.4015  0.9745 -0.2727
11461TIP3   OH255873   2.799   3.283   4.053 -0.3167  0.1327  0.1550
11461TIP3    H155874   2.856   3.358   4.071  0.4988 -1.1631  3.1587
11461TIP3    H255875   2.732   3.287   4.122  0.6841 -2.8308  1.3477
11462TIP3   OH255876   0.164   2.749  14.984 -0.7878 -0.2917 -0.0787
11462TIP3    H155877   0.074   2.779  14.970 -0.3681  0.1580 -1.8795
11462TIP3    H255878   0.214   2.790  14.914  0.7487 -0.9018  0.6503
11463TIP3   OH255879   4.408   3.842   6.835  0.2847  0.5136  0.4208
11463TIP3    H155880   4.470   3.822   6.905  1.4225 -0.0409 -0.7061
11463TIP3    H255881   4.438   3.926   6.800 -0.0310  0.5888  0.3290
11464TIP3   OH255882   0.797   1.713  12.548  0.5302  0.0991  0.1265
11464TIP3    H155883   0.858   1.642  12.571 -2.4832 -2.7177 -0.3024
11464TIP3    H255884   0.748   1.679  12.473  0.9833  3.8327 -1.9487
11465TIP3   OH255885   0.046   5.140   1.978  0.6816  0.0531  0.6747
11465TIP3    H155886   0.025   5.161   1.887 -0.0941  1.5833  1.1923
11465TIP3    H255887   0.127   5.089   1.972 -0.1822 -1.2014 -0.9694
11466TIP3   OH255888   2.716   1.304  16.664 -0.2066  0.4870  0.0315
11466TIP3    H155889   2.775   1.268  16.597 -1.2200 -0.7105 -0.2431
11466TIP3    H255890   2.634   1.322  16.616 -0.1889  1.8263  0.4716
11467TIP3   OH255891   3.700   5.853   5.409  0.0523 -0.2789  0.5870
11467TIP3    H155892   3.680   5.921   5.345  3.1791 -1.2721 -1.6297
11467TIP3    H255893   3.655   5.775   5.376  2.1974 -0.9561 -0.8892
11468TIP3   OH255894   4.986   1.991   2.458 -0.2843  0.4771 -0.2827
11468TIP3    H155895   4.999   2.021   2.548  1.0745  0.5415 -0.4940
11468TIP3    H255896   4.894   2.009   2.440 -0.4848  0.7605  0.9842
11469TIP3   OH255897   3.760   1.750  11.277  0.0844 -0.2440  0.0329
11469TIP3    H155898   3.738   1.672  11.227 -2.9471  1.2936 -1.1439
11469TIP3    H255899   3.780   1.718  11.365  1.0565 -2.5173 -0.9888
11470TIP3   OH255900   3.874   2.768  13.834  0.2008 -0.1309 -0.4288
11470TIP3    H155901   3.885   2.806  13.921  1.0581 -0.6597 -0.3015
11470TIP3    H255902   3.847   2.678  13.851  2.1034 -0.7746 -0.6755
11471TIP3   OH255903   3.552   3.995  13.528 -1.0344 -0.0369  0.2197
11471TIP3    H155904   3.529   4.049  13.603 -1.3620 -0.7465  0.6454
11471TIP3    H255905   3.473   3.942  13.512 -0.7506 -0.3308 -0.2302
11472TIP3   OH255906   2.436   2.114   5.716 -0.2600  0.6215 -0.6673
11472TIP3    H155907   2.457   2.024   5.741 -1.4679  0.2230 -1.0372
11472TIP3    H255908   2.427   2.160   5.799  0.5773  0.4518 -0.4792
11473TIP3   OH255909   0.979   6.328   2.012 -0.0898  0.4954  0.0452
11473TIP3    H155910   0.893   6.371   2.008  0.0753  0.8195 -0.0789
11473TIP3    H255911   1.041   6.401   2.017  0.4501  0.4294 -3.9820
11474TIP3   OH255912   1.041   2.609  14.073  0.4428 -0.2350 -0.0284
11474TIP3    H155913   1.112   2.607  14.137 -0.5681  1.8794  1.2352
11474TIP3    H255914   1.084   2.632  13.991  1.4735 -0.8214  0.3317
11475TIP3   OH255915   4.662   0.809  13.388  0.6000  0.1978 -0.1086
11475TIP3    H155916   4.716   0.731  13.374  1.3149  0.5209  0.7908
11475TIP3    H255917   4.656   0.850  13.301  0.1938 -0.8703 -0.5901
11476TIP3   OH255918   2.912   4.220   4.987 -0.9812  0.4193 -0.2021
11476TIP3    H155919   2.964   4.201   5.065  0.7942  0.0667 -1.4390
11476TIP3    H255920   2.896   4.315   4.991  0.0067  0.5837  0.0606
11477TIP3   OH255921   4.683   5.087  14.049  0.7892  0.1962  0.0751
11477TIP3    H155922   4.703   5.016  14.109  0.2296  0.0993  0.1425
11477TIP3    H255923   4.768   5.112  14.013  1.0260 -0.2752  0.3070
11478TIP3   OH255924   4.712   0.768   5.379  0.3522 -0.5207  0.0599
11478TIP3    H155925   4.652   0.839   5.355  0.5951 -0.5509 -0.6296
11478TIP3    H255926   4.673   0.690   5.340  0.5732 -0.6232  0.0463
11479TIP3   OH255927   5.681   5.519   2.010  0.2141 -0.4459  0.1556
11479TIP3    H155928   5.749   5.453   2.020 -0.6392 -1.2975  0.3953
11479TIP3    H255929   5.617   5.479   1.952  0.2132  0.5925 -0.5671
11480TIP3   OH255930   5.865   3.941   4.472  0.0224  0.0557 -0.3550
11480TIP3    H155931   5.806   3.868   4.453 -0.3126 -0.1270  1.3118
11480TIP3    H255932   5.808   4.018   4.469  0.1131  0.1075 -0.7860
11481TIP3   OH255933   3.035   5.032   2.133  0.4195  0.0192 -0.5281
11481TIP3    H155934   3.113   5.085   2.151  0.6386 -0.0923 -1.1466
11481TIP3    H255935   3.029   4.972   2.208  1.4924 -0.6341 -0.9506
11482TIP3   OH255936   2.531   2.863   6.351  0.0192  0.2540  0.5453
11482TIP3    H155937   2.591   2.817   6.411 -0.3356  1.8959  2.2193
11482TIP3    H255938   2.473   2.795   6.319  0.7795 -0.8207  1.3944
11483TIP3   OH255939   5.055   0.996  15.526 -0.0135 -0.1856 -0.3776
11483TIP3    H155940   5.026   1.058  15.592 -1.1854 -0.4548 -0.6314
11483TIP3    H255941   5.010   1.023  15.446 -0.4037 -1.2400 -0.5296
11484TIP3   OH255942   2.837   0.550   4.540 -0.8329 -0.9174  0.3677
11484TIP3    H155943   2.833   0.646   4.533  0.0148 -0.8949  0.0357
11484TIP3    H255944   2.827   0.520   4.450  0.9430 -1.0391  0.1798
11485TIP3   OH255945   4.154   2.231  14.918 -0.0296 -0.6365 -0.5358
11485TIP3    H155946   4.088   2.183  14.968  1.1394 -1.5040  0.2090
11485TIP3    H255947   4.152   2.190  14.831  1.0760 -2.1992  0.1420
11486TIP3   OH255948   2.428   2.001  12.409  0.0046 -0.0441  0.1221
11486TIP3    H155949   2.403   2.058  12.481  0.7522 -0.4574  0.7202
11486TIP3    H255950   2.516   1.971  12.431 -0.2039 -1.0887 -0.3914
11487TIP3   OH255951   2.158   4.371  16.868  0.0673  0.3875 -0.0722
11487TIP3    H155952   2.072   4.382  16.827  0.3973  3.6225 -0.0118
11487TIP3    H255953   2.140   4.326  16.950 -1.4895  0.4338 -0.3735
11488TIP3   OH255954   6.511   1.216   1.863  0.2734 -0.8202 -0.1003
11488TIP3    H155955   6.539   1.228   1.954 -1.3350 -0.5431  0.3661
11488TIP3    H255956   6.547   1.293   1.817 -0.2758 -0.1261  0.6205
11489TIP3   OH255957   2.226   6.387   3.739  0.8437  0.0931 -0.8192
11489TIP3    H155958   2.233   6.305   3.788  0.4692  0.0939 -0.7617
11489TIP3    H255959   2.217   6.454   3.807 -0.2618  0.0353 -0.8910
11490TIP3   OH255960   5.942   3.578   4.212 -0.0344  0.6214 -0.2972
11490TIP3    H155961   5.967   3.632   4.287  0.1324  0.4559 -0.2330
11490TIP3    H255962   5.861   3.618   4.180 -0.7322  0.0246  0.6712
11491TIP3   OH255963   4.288   5.680   2.245 -0.2108  0.5386 -0.2716
11491TIP3    H155964   4.212   5.704   2.192 -1.2479  1.0490  1.4079
11491TIP3    H255965   4.288   5.744   2.317 -0.0337 -1.3615  1.4685
11492TIP3   OH255966   6.692   0.468   3.941  0.0732  0.4713  0.1724
11492TIP3    H155967   6.732   0.542   3.895  0.4523 -0.0075 -0.2713
11492TIP3    H255968   6.639   0.508   4.010  0.8099  1.1337  0.3552
11493TIP3   OH255969   4.601   3.175   1.412 -1.0275  0.0788 -0.3179
11493TIP3    H155970   4.663   3.148   1.344  0.7829  1.4628  0.7272
11493TIP3    H255971   4.656   3.191   1.489 -2.3909  3.2662  0.0591
11494TIP3   OH255972   2.488   6.555   3.764  0.3308  0.0056  0.4192
11494TIP3    H155973   2.410   6.585   3.717  0.1775 -1.6894 -0.4560
11494TIP3    H255974   2.458   6.538   3.853  0.1107  1.0415  0.5526
11495TIP3   OH255975   5.334   1.419  14.176 -0.6798  0.0094 -0.4922
11495TIP3    H155976   5.287   1.498  14.203 -0.1118 -0.0104  0.5795
11495TIP3    H255977   5.368   1.383  14.258  0.4757 -0.4408 -1.1657
11496TIP3   OH255978   1.837   1.864  13.086 -0.0917  0.6950 -0.2010
11496TIP3    H155979   1.795   1.792  13.039 -0.2532  0.0282  0.9411
11496TIP3    H255980   1.886   1.911  13.019 -1.7261  0.8112 -1.3686
11497TIP3   OH255981   3.096   6.543  16.141 -0.0835 -0.1600 -0.1835
11497TIP3    H155982   3.133   6.601  16.207  2.0873 -1.0489 -0.5735
11497TIP3    H255983   3.036   6.486  16.190  1.3376 -0.6719  1.0229
11498TIP3   OH255984   2.968   1.634  15.233  0.3859 -0.0337  0.1539
11498TIP3    H155985   2.976   1.538  15.231  1.5687  0.0482  0.5670
11498TIP3    H255986   2.989   1.658  15.323 -0.9500  0.5484  0.3308
11499TIP3   OH255987   1.216   1.274   4.295  0.3480  0.0789  0.0281
11499TIP3    H155988   1.209   1.204   4.230 -2.1607  0.0806  0.2428
11499TIP3    H255989   1.246   1.230   4.374 -0.0463 -0.5601 -0.1711
11500TIP3   OH255990   6.058   5.573  13.809 -0.3316 -0.7093  0.1198
11500TIP3    H155991   6.036   5.480  13.810  0.5433 -0.9227  0.3285
11500TIP3    H255992   5.999   5.611  13.744 -1.2031 -1.2761  0.5641
11501TIP3   OH255993   0.197   2.824  11.925  0.2212 -0.4223 -0.7169
11501TIP3    H155994   0.105   2.809  11.947  0.0917  0.4349 -0.6633
11501TIP3    H255995   0.230   2.738  11.900 -0.3863 -0.8891  0.0568
11502TIP3   OH255996   3.344   5.268  11.399 -0.2465  0.1301 -0.1949
11502TIP3    H155997   3.437   5.284  11.410  0.4525 -2.8593 -1.2680
11502TIP3    H255998   3.326   5.190  11.452 -1.7282 -0.3999 -1.4290
11503TIP3   OH255999   1.561   5.449  16.975 -0.1236 -0.8802 -0.0566
11503TIP3    H156000   1.603   5.491  16.901  1.6649 -1.5481  0.5464
11503TIP3    H256001   1.473   5.485  16.977  1.0362  2.0358 -0.1759
11504TIP3   OH256002   6.753   6.066   3.960 -0.0767 -0.0542  0.2539
11504TIP3    H156003   6.822   6.132   3.954 -0.3770  0.3385  1.0820
11504TIP3    H256004   6.680   6.103   3.910 -0.2923  0.3029  0.8304
11505TIP3   OH256005   2.166   2.680   4.976  0.5615  0.2303  0.1875
11505TIP3    H156006   2.177   2.717   4.889 -1.0424 -2.2624 -1.1174
11505TIP3    H256007   2.236   2.615   4.983  1.1143  0.9007  1.0506
11506TIP3   OH256008   1.298   5.450  11.129  0.6053 -0.5093  0.0639
11506TIP3    H156009   1.210   5.413  11.121  0.9533 -1.5493  1.0379
11506TIP3    H256010   1.288   5.541  11.099 -1.2880  0.0846  2.3984
11507TIP3   OH256011   1.360   0.463  12.095  0.3378 -0.4725  0.1213
11507TIP3    H156012   1.354   0.417  12.179  1.4673 -0.5118  0.1921
11507TIP3    H256013   1.427   0.415  12.046  2.2431  1.6307  0.5692
11508TIP3   OH256014   3.665   3.547   4.635  0.2484 -0.4289 -0.0948
11508TIP3    H156015   3.691   3.469   4.586 -0.6105 -0.6286 -0.2496
11508TIP3    H256016   3.627   3.513   4.716  0.2096 -0.1576  0.0039
11509TIP3   OH256017   4.050   3.316   5.413 -0.4866 -0.2169  0.0470
11509TIP3    H156018   4.124   3.267   5.375 -0.5579  0.5095 -1.0589
11509TIP3    H256019   4.018   3.369   5.340 -2.3245 -0.7861  0.4303
11510TIP3   OH256020   2.158   2.394  16.534  0.1008 -0.2629 -0.3051
11510TIP3    H156021   2.199   2.477  16.508  0.0970 -0.4264 -0.8250
11510TIP3    H256022   2.076   2.420  16.575  0.8585  0.0899  1.0284
11511TIP3   OH256023   0.604   5.588   1.400 -0.3020  0.0707 -0.0514
11511TIP3    H156024   0.568   5.499   1.402 -1.1767  0.2492 -4.0264
11511TIP3    H256025   0.679   5.582   1.340  0.9016  1.6174  1.2534
11512TIP3   OH256026   6.583   2.588   4.557 -0.6298 -0.0254 -0.1321
11512TIP3    H156027   6.501   2.621   4.593 -2.2254 -0.9809 -2.7066
11512TIP3    H256028   6.562   2.498   4.529  1.3314 -0.3351 -0.6733
11513TIP3   OH256029   3.309   6.597   0.752  0.2798 -0.9796  0.1876
11513TIP3    H156030   3.299   6.530   0.819 -0.1659 -0.4785  0.6298
11513TIP3    H256031   3.404   6.611   0.746  0.3484 -1.3681  0.3746
11514TIP3   OH256032   1.054   0.160  15.073 -0.2383  0.2187  0.0306
11514TIP3    H156033   0.963   0.133  15.071 -0.4790  1.0974 -1.2165
11514TIP3    H256034   1.103   0.084  15.042 -0.6087  0.0411 -0.1171
11515TIP3   OH256035   2.254   6.449   2.737  0.3543 -0.0820  0.0127
11515TIP3    H156036   2.208   6.413   2.813 -0.5219 -0.5503 -0.7305
11515TIP3    H256037   2.191   6.440   2.665  0.9801  0.8556 -0.6484
11516TIP3   OH256038   2.014   5.292   5.895 -0.3315 -0.3215  0.7422
11516TIP3    H156039   1.989   5.259   5.982  0.1560  0.3493  1.1413
11516TIP3    H256040   2.067   5.370   5.913 -0.3865 -0.0689 -0.1658
11517TIP3   OH256041   2.746   6.583   2.511  0.3768 -0.1091 -0.0919
11517TIP3    H156042   2.776   6.648   2.447 -0.0974  0.3866  0.1941
11517TIP3    H256043   2.718   6.509   2.457 -0.3336  0.4340 -0.4869
11518TIP3   OH256044   2.719   3.920   2.095 -0.1653  0.0581 -0.2275
11518TIP3    H156045   2.796   3.962   2.134 -0.4532  1.4454 -1.1268
11518TIP3    H256046   2.647   3.983   2.110 -0.9063 -0.7660 -0.2931
11519TIP3   OH256047   1.539   2.453  11.462 -0.0677 -0.1836  0.4944
11519TIP3    H156048   1.584   2.369  11.466 -1.5442 -1.0653 -0.5455
11519TIP3    H256049   1.503   2.465  11.550  0.3349 -0.5281  0.7087
11520TIP3   OH256050   5.799   1.025   5.049 -0.2081 -0.1585 -0.1112
11520TIP3    H156051   5.857   0.989   5.116  0.9006 -0.6728 -1.3348
11520TIP3    H256052   5.715   0.982   5.065  0.7942 -2.4038 -0.8110
11521TIP3   OH256053   2.160   5.402   4.874 -0.2987  0.0311  0.2170
11521TIP3    H156054   2.185   5.394   4.966  0.5460 -1.5660 -0.1171
11521TIP3    H256055   2.066   5.382   4.873 -0.2988 -0.0062  0.7197
11522TIP3   OH256056   3.151   4.434   1.875 -0.0921  0.0170  0.2581
11522TIP3    H156057   3.227   4.420   1.819  1.4041  1.3395  1.9191
11522TIP3    H256058   3.112   4.516   1.843 -0.5008 -0.3841 -0.2607
11523TIP3   OH256059   0.887   4.109   4.325 -0.0126  0.6902 -0.1811
11523TIP3    H156060   0.847   4.037   4.373 -0.5591  1.2124  0.1510
11523TIP3    H256061   0.913   4.070   4.241 -2.1607  0.5787 -0.8223
11524TIP3   OH256062   0.362   4.343  15.282  0.0471  0.2667  0.2103
11524TIP3    H156063   0.279   4.329  15.328 -0.3187  0.9568 -0.2352
11524TIP3    H256064   0.416   4.390  15.345 -0.0845  0.2832  0.3122
11525TIP3   OH256065   3.961   1.174  16.436 -0.3279 -0.0010 -0.6446
11525TIP3    H156066   3.991   1.098  16.386 -0.2383 -0.1163 -0.4187
11525TIP3    H256067   4.031   1.190  16.499 -0.5176  0.0383 -0.4419
11526TIP3   OH256068   6.384   5.885  11.830  0.1705  0.0999 -0.4341
11526TIP3    H156069   6.358   5.862  11.919  1.8830 -0.8699 -0.1587
11526TIP3    H256070   6.372   5.803  11.781  2.5124 -0.3366 -0.3234
11527TIP3   OH256071   1.031   2.834  12.354 -0.4721 -0.0343  0.2210
11527TIP3    H156072   0.987   2.790  12.280  0.6902  0.4237 -0.7687
11527TIP3    H256073   0.981   2.914  12.367 -1.2839 -0.5950  0.5857
11528TIP3   OH256074   5.405   1.123   0.203  0.5551 -0.2228 -0.4149
11528TIP3    H156075   5.469   1.089   0.140  0.2948 -0.5079 -0.5310
11528TIP3    H256076   5.327   1.069   0.188  0.7571 -0.8394  0.7216
11529TIP3   OH256077   3.408   2.132   5.022  0.2455  0.4794 -0.2159
11529TIP3    H156078   3.453   2.213   5.047  0.7438 -0.3757  1.8236
11529TIP3    H256079   3.444   2.066   5.082 -0.8616 -1.0433 -1.1981
11530TIP3   OH256080   3.970   5.504   5.476 -0.3801 -0.1875 -0.0627
11530TIP3    H156081   4.003   5.428   5.428  1.2789  1.4085 -1.5166
11530TIP3    H256082   3.875   5.499   5.467 -0.4624 -3.2225  1.6563
11531TIP3   OH256083   2.661   4.266  15.670 -0.2415  0.1985  0.2861
11531TIP3    H156084   2.671   4.181  15.626  0.6644  0.7319 -0.5539
11531TIP3    H256085   2.567   4.273  15.687 -0.3182 -0.9833  0.3905
11532TIP3   OH256086   1.381   6.673  16.827  0.3389 -0.0790 -0.4897
11532TIP3    H156087   1.356   6.716  16.908  0.1292 -1.5231  0.2359
11532TIP3    H256088   1.477   6.671  16.829  0.3133 -1.3560  0.4176
11533TIP3   OH256089   6.147   3.200   2.450 -0.0965 -0.4896 -0.0573
11533TIP3    H156090   6.061   3.241   2.453  0.6919  1.3211 -0.7946
11533TIP3    H256091   6.147   3.149   2.369 -0.3837 -0.2299 -0.2250
11534TIP3   OH256092   0.094   3.331  12.480 -0.2700  0.0929  0.1657
11534TIP3    H156093   0.001   3.351  12.487 -0.2462  1.2547 -2.4337
11534TIP3    H256094   0.127   3.339  12.570 -2.9329 -1.9175  1.4179
11535TIP3   OH256095   1.978   5.714  14.005 -0.2307 -0.1086 -0.2886
11535TIP3    H156096   1.968   5.807  14.027 -2.5902 -0.5759  0.7737
11535TIP3    H256097   2.073   5.700  14.004  0.1310  1.9250  1.1681
11536TIP3   OH256098   5.968   5.176   5.776 -0.2857 -0.3468  0.5517
11536TIP3    H156099   5.900   5.233   5.739 -0.0022 -0.2174  0.2197
11536TIP3    H256100   6.007   5.229   5.846  0.5503  0.2046 -0.3190
11537TIP3   OH256101   4.256   6.736   3.713  0.1937  0.6488  0.0730
11537TIP3    H156102   4.227   6.825   3.694  0.5898  1.4804  3.0907
11537TIP3    H256103   4.232   6.685   3.635 -1.5785  3.0353 -0.9867
11538TIP3   OH256104   5.099   1.681  11.394  0.2828 -0.9666  0.1048
11538TIP3    H156105   5.126   1.728  11.315 -0.8798 -0.7050 -0.1556
11538TIP3    H256106   5.167   1.615  11.407  1.5677  0.3264  0.0760
11539TIP3   OH256107   2.114   1.666  14.282  0.0703  0.0347 -0.3725
11539TIP3    H156108   2.185   1.719  14.320 -0.2665  0.3646 -0.2029
11539TIP3    H256109   2.144   1.645  14.194  1.4943 -1.8940  0.5191
11540TIP3   OH256110   3.793   1.463   2.198 -0.0357 -0.6680 -0.3560
11540TIP3    H156111   3.845   1.543   2.196  0.6053 -1.0849 -0.7729
11540TIP3    H256112   3.853   1.395   2.167 -0.4140 -1.4003  0.4907
11541TIP3   OH256113   2.312   5.969   4.627 -0.6136  0.0835  0.3636
11541TIP3    H156114   2.364   5.899   4.666  0.6948  1.1125  0.5161
11541TIP3    H256115   2.285   5.935   4.542  1.8613  0.1728 -0.5169
11542TIP3   OH256116   3.860   4.798  16.966  0.5972  0.6113  0.1556
11542TIP3    H156117   3.855   4.893  16.963 -0.8475  0.5268 -1.0206
11542TIP3    H256118   3.833   4.770  16.879  1.3616 -0.8585  0.3774
11543TIP3   OH256119   4.485   5.903  16.091  0.5828  0.0220 -0.3430
11543TIP3    H156120   4.478   5.987  16.045 -1.9601 -0.4774 -0.9298
11543TIP3    H256121   4.424   5.911  16.165  0.4360 -1.2607 -0.3237
11544TIP3   OH256122   0.361   2.182  12.194  0.0052  0.1741  0.3378
11544TIP3    H156123   0.342   2.129  12.116 -2.5732  0.2994  0.8333
11544TIP3    H256124   0.338   2.126  12.268  2.1048  0.1851  1.0231
11545TIP3   OH256125   1.050   0.137  11.803  0.1894 -0.2466  0.4031
11545TIP3    H156126   0.958   0.157  11.817 -0.1464 -1.4649  0.0298
11545TIP3    H256127   1.050   0.048  11.769  1.5372 -0.4436  0.8715
11546TIP3   OH256128   6.574   1.478  14.487 -0.4944 -0.5633 -0.2797
11546TIP3    H156129   6.510   1.436  14.430 -1.1513 -0.4405  0.3678
11546TIP3    H256130   6.632   1.407  14.515 -0.9842 -0.8573 -0.0161
11547TIP3   OH256131   6.118   0.648  15.963 -0.8646 -0.3208  0.3481
11547TIP3    H156132   6.180   0.721  15.965  0.8550 -1.7093 -0.5953
11547TIP3    H256133   6.093   0.639  15.871  1.7656 -3.1571 -0.1909
11548TIP3   OH256134   2.234   4.077  11.699 -0.4465  0.4152  0.5995
11548TIP3    H156135   2.156   4.133  11.694  1.2420  2.7177 -0.4764
11548TIP3    H256136   2.255   4.058  11.607 -0.0140 -0.6168  0.9069
11549TIP3   OH256137   0.425   1.026  14.630 -0.2154  0.4136 -0.3615
11549TIP3    H156138   0.375   1.094  14.587 -0.2345 -1.1760 -3.0002
11549TIP3    H256139   0.365   0.952  14.638  0.7542 -0.4430 -0.7026
11550TIP3   OH256140   2.765   1.443  15.564 -0.2153  0.5302 -0.1238
11550TIP3    H156141   2.770   1.411  15.474 -3.8264  2.8078 -1.2578
11550TIP3    H256142   2.702   1.385  15.607 -1.0829  1.5058 -0.0563
11551TIP3   OH256143   2.039   2.164   2.520  0.4508  0.4498 -0.8464
11551TIP3    H156144   2.111   2.207   2.564  1.3350 -0.1435 -1.6923
11551TIP3    H256145   2.081   2.106   2.456 -0.7264 -0.8301 -0.4975
11552TIP3   OH256146   5.440   4.943   0.754 -0.0406  0.0233 -0.0051
11552TIP3    H156147   5.469   5.006   0.687 -0.1511  0.2254  0.1339
11552TIP3    H256148   5.354   4.975   0.781  0.8654  1.1329  1.7107
11553TIP3   OH256149   5.129   2.064  11.009  0.3152 -0.4021 -0.0944
11553TIP3    H156150   5.163   2.152  10.991  0.0208  0.1208  1.7738
11553TIP3    H256151   5.202   2.019  11.052 -1.1124  0.6469  3.7214
11554TIP3   OH256152   1.202   2.015   2.570 -0.0367  0.2532 -0.8180
11554TIP3    H156153   1.191   2.002   2.665  0.2531  2.8075 -0.4032
11554TIP3    H256154   1.150   2.093   2.550  1.4668  0.8742 -2.4145
11555TIP3   OH256155   0.913   0.484   4.771 -0.6928 -0.1177 -0.4678
11555TIP3    H156156   0.837   0.522   4.814  0.0495  1.5818 -0.6515
11555TIP3    H256157   0.886   0.474   4.679 -1.1995 -0.8934 -0.2413
11556TIP3   OH256158   6.300   6.767  15.435 -0.5932 -0.8470 -0.2846
11556TIP3    H156159   6.383   6.754  15.389 -0.6010 -0.3714 -0.4279
11556TIP3    H256160   6.285   6.861  15.433 -1.7948 -1.0482 -1.3898
11557TIP3   OH256161   2.487   5.723   4.708 -0.1327  0.3638  0.3656
11557TIP3    H156162   2.560   5.761   4.757  1.7494 -0.8412 -1.4495
11557TIP3    H256163   2.475   5.636   4.747 -0.5516  0.5303  0.6084
11558TIP3   OH256164   2.522   0.829   5.987  0.2319 -0.0573 -0.5328
11558TIP3    H156165   2.599   0.776   5.970  0.5965  0.8945 -1.9489
11558TIP3    H256166   2.554   0.919   5.986 -0.2036  0.2209  2.7627
11559TIP3   OH256167   2.106   4.399  12.272 -0.3199 -0.2147  0.2222
11559TIP3    H156168   2.018   4.393  12.235  0.3460 -0.0486 -1.4471
11559TIP3    H256169   2.100   4.354  12.356 -1.8447 -0.7722 -0.1725
11560TIP3   OH256170   4.770   1.492  11.821  0.4705 -0.9271 -0.0222
11560TIP3    H156171   4.680   1.474  11.792  0.6793 -3.4815  0.7169
11560TIP3    H256172   4.772   1.586  11.838 -2.5226 -1.0713  1.4562
11561TIP3   OH256173   1.350   3.154  11.650  0.1935  0.1326  0.7193
11561TIP3    H156174   1.266   3.158  11.604  0.1143  2.2985  0.9944
11561TIP3    H256175   1.416   3.155  11.581  0.0357  0.6083  0.5796
11562TIP3   OH256176   1.132   5.415   0.054  0.1369  0.0163  0.4295
11562TIP3    H156177   1.212   5.423   0.105 -0.3271  2.2011  0.8554
11562TIP3    H256178   1.119   5.320   0.044  3.2034 -0.3665 -0.3829
11563TIP3   OH256179   0.008   2.929   1.424 -0.5939  0.4406  0.2000
11563TIP3    H156180  -0.036   2.909   1.342 -0.7714 -1.0488  0.6542
11563TIP3    H256181   0.078   2.864   1.431 -0.5945  0.5409  1.2320
11564TIP3   OH256182   5.524   4.293   5.964  0.1809 -0.0538 -0.0436
11564TIP3    H156183   5.602   4.330   5.924  0.4228 -0.5597 -0.0365
11564TIP3    H256184   5.552   4.269   6.052  0.1065 -0.5537 -0.1570
11565TIP3   OH256185   2.810   1.792   2.892 -0.0588 -0.0953  0.1801
11565TIP3    H156186   2.787   1.866   2.836  2.4643  1.4199  1.0433
11565TIP3    H256187   2.856   1.731   2.835  0.3196  0.2953  0.0683
11566TIP3   OH256188   3.117   3.791   3.167 -0.3128  0.2771  0.1916
11566TIP3    H156189   3.157   3.764   3.084 -0.8777  1.2993 -0.4174
11566TIP3    H256190   3.028   3.815   3.145  0.0511  2.2440  0.7850
11567TIP3   OH256191   5.530   2.183   6.463  0.8852  0.4216  0.5867
11567TIP3    H156192   5.466   2.133   6.412  1.5795 -0.0928  0.2173
11567TIP3    H256193   5.477   2.247   6.511  0.0434 -0.2838  0.6142
11568TIP3   OH256194   1.129   5.100   6.306 -0.5536 -0.4710  0.5957
11568TIP3    H156195   1.176   5.018   6.318 -0.9820 -0.4805  2.2775
11568TIP3    H256196   1.073   5.085   6.230  3.2553  0.0521 -2.4746
11569TIP3   OH256197   5.539   3.651  13.153  0.0976  0.5993 -0.5657
11569TIP3    H156198   5.605   3.693  13.096  1.4713  0.0185  0.5634
11569TIP3    H256199   5.586   3.577  13.192 -1.4393 -0.2053 -0.2353
11570TIP3   OH256200   6.420   4.637  10.844 -0.2886  0.1623 -0.0210
11570TIP3    H156201   6.438   4.544  10.831  0.8734  0.4952 -0.8434
11570TIP3    H256202   6.326   4.640  10.863 -0.7171 -0.9985 -1.8428
11571TIP3   OH256203   3.461   6.110  11.165  0.4543 -0.0854  0.2219
11571TIP3    H156204   3.490   6.092  11.254  0.1264 -0.6528  0.2130
11571TIP3    H256205   3.529   6.071  11.110  0.7528  0.4270  0.2199
11572TIP3   OH256206   6.770   2.334   4.571  0.3502 -0.0446 -0.1765
11572TIP3    H156207   6.745   2.407   4.627  1.6025 -0.4930  0.9986
11572TIP3    H256208   6.865   2.344   4.560  0.3553 -0.8744 -0.8917
11573TIP3   OH256209   5.671   3.846   0.720  0.4716 -0.1651 -0.3544
11573TIP3    H156210   5.703   3.930   0.752  1.7386 -0.1862 -1.5177
11573TIP3    H256211   5.667   3.856   0.625 -0.7387 -0.9581 -0.4064
11574TIP3   OH256212   2.241   5.067   2.909 -0.4413 -0.0243 -0.0904
11574TIP3    H156213   2.246   4.983   2.863 -0.5511  0.0396 -0.2232
11574TIP3    H256214   2.153   5.067   2.948 -0.7418  0.3678 -0.7604
11575TIP3   OH256215   0.109   3.417  13.782  0.2609  0.0686  0.1470
11575TIP3    H156216   0.069   3.333  13.805  1.7690 -0.4849  0.8753
11575TIP3    H256217   0.191   3.418  13.832  0.7969  1.4713 -0.7378
11576TIP3   OH256218   5.093   5.825   4.850  0.0135  0.4140 -0.5516
11576TIP3    H156219   5.173   5.785   4.882  0.3420  1.9365  0.6268
11576TIP3    H256220   5.023   5.781   4.898  0.0969 -1.2565 -1.9409
11577TIP3   OH256221   0.737   4.000  14.649  0.1926  0.2089  0.3233
11577TIP3    H156222   0.773   4.053  14.578  2.3596  1.6971  2.4367
11577TIP3    H256223   0.653   4.041  14.670 -1.5201 -1.5346 -2.7202
11578TIP3   OH256224   2.989   3.700  17.115  0.4395  0.6000 -0.1847
11578TIP3    H156225   3.007   3.764  17.046  2.4124  1.9290  1.4985
11578TIP3    H256226   3.073   3.686  17.158 -0.3808 -1.6184  0.7888
11579TIP3   OH256227   3.413   0.651   2.471 -0.3618  0.5982 -0.4641
11579TIP3    H156228   3.376   0.620   2.389 -0.7590 -0.0714 -0.0405
11579TIP3    H256229   3.508   0.646   2.460 -0.3944  1.8243 -1.3723
11580TIP3   OH256230   2.737   1.040   3.350 -0.1818 -0.0608 -0.5875
11580TIP3    H156231   2.742   1.094   3.430 -0.4901 -0.4333 -0.3158
11580TIP3    H256232   2.643   1.038   3.329 -0.0046  0.9068 -1.5603
11581TIP3   OH256233   5.123   4.608   3.681  0.1916  0.0823  0.4277
11581TIP3    H156234   5.192   4.666   3.649  0.3842  0.1037  0.8696
11581TIP3    H256235   5.042   4.645   3.647  0.2866  0.7696  0.9463
11582TIP3   OH256236   0.599   5.165  11.783 -0.4160 -0.4052 -0.0457
11582TIP3    H156237   0.557   5.218  11.850 -0.0370 -0.0459 -0.0918
11582TIP3    H256238   0.527   5.136  11.727 -1.0738 -2.8547  1.9733
11583TIP3   OH256239   3.618   5.680   0.001 -0.0402 -0.1167 -0.8142
11583TIP3    H156240   3.663   5.694  -0.083 -0.7446  0.0366 -1.1752
11583TIP3    H256241   3.614   5.766   0.042  0.0420 -0.1374 -0.7638
11584TIP3   OH256242   5.344   3.501   1.971 -0.3353 -0.1933 -0.2160
11584TIP3    H156243   5.379   3.568   2.030  1.2522 -0.5646 -0.6959
11584TIP3    H256244   5.310   3.433   2.030  0.1429 -0.0107  0.2787
11585TIP3   OH256245   1.174   0.477  15.498 -0.2621 -0.0223  0.5859
11585TIP3    H156246   1.186   0.565  15.463 -2.9604  1.0298  2.1586
11585TIP3    H256247   1.166   0.421  15.421  2.0754  0.9923 -0.4225
11586TIP3   OH256248   3.618   4.856  17.176 -0.1589 -0.3528  0.0580
11586TIP3    H156249   3.535   4.892  17.145 -0.0020 -0.1441 -0.1204
11586TIP3    H256250   3.685   4.904  17.127  0.1007  0.1956  0.9568
11587TIP3   OH256251   4.345   5.236  16.692 -0.2321 -0.2044 -0.4260
11587TIP3    H156252   4.438   5.216  16.681  0.2742  1.8539 -0.0648
11587TIP3    H256253   4.300   5.164  16.649  1.4817 -2.6465  1.6887
11588TIP3   OH256254   2.458   5.099   3.245  0.1728 -0.1378  0.2852
11588TIP3    H156255   2.506   5.163   3.192  1.0581 -1.1597 -0.1627
11588TIP3    H256256   2.468   5.131   3.335  0.2695  0.5677  0.0306
11589TIP3   OH256257   1.762   5.427   5.168  0.1183  0.4933 -0.3369
11589TIP3    H156258   1.802   5.437   5.255  1.0933  1.5284 -0.9004
11589TIP3    H256259   1.671   5.454   5.181 -0.4749 -1.8726  0.9504
11590TIP3   OH256260   0.269   3.625  16.880 -0.3901  0.2017 -0.2273
11590TIP3    H156261   0.244   3.717  16.892  0.8162  0.6132 -0.7868
11590TIP3    H256262   0.362   3.623  16.900 -0.4174 -0.9109 -0.2151
11591TIP3   OH256263   4.354   3.414  15.360 -0.2576 -0.1152  0.3572
11591TIP3    H156264   4.375   3.389  15.449  0.5031 -0.0956  0.1848
11591TIP3    H256265   4.399   3.498  15.347 -0.4040 -0.0943 -0.0257
11592TIP3   OH256266   4.451   5.515  11.575  0.6694 -0.6080  0.6768
11592TIP3    H156267   4.433   5.449  11.643 -0.0891  0.5272  1.6098
11592TIP3    H256268   4.411   5.479  11.496 -1.1124 -0.5745  1.5337
11593TIP3   OH256269   4.226   0.741  14.520  0.2565 -0.3308 -0.2176
11593TIP3    H156270   4.192   0.830  14.507 -0.4761 -0.8423 -1.9627
11593TIP3    H256271   4.317   0.746  14.491  0.4658  0.0561  0.5033
11594TIP3   OH256272   4.644   4.800  17.275  0.9212 -0.6299 -0.4019
11594TIP3    H156273   4.642   4.843  17.360 -0.3367 -0.1874 -0.6452
11594TIP3    H256274   4.615   4.867  17.213  2.4669 -0.7358 -1.2849
11595TIP3   OH256275   2.179   3.900   5.181  0.2114  0.3024  0.0483
11595TIP3    H156276   2.149   3.881   5.270  0.5219  1.4792  0.4250
11595TIP3    H256277   2.175   3.816   5.135  2.9230 -0.9760  2.0053
11596TIP3   OH256278   3.909   3.248  14.634  0.0915  0.2734 -0.7723
11596TIP3    H156279   3.937   3.255  14.543  3.5343 -1.7296  0.0252
11596TIP3    H256280   3.908   3.338  14.666 -0.9657  0.9725 -2.7012
11597TIP3   OH256281   5.616   1.906  13.189  0.1009  0.1640 -0.2039
11597TIP3    H156282   5.608   1.823  13.235 -1.2954  0.7583  0.6559
11597TIP3    H256283   5.693   1.948  13.228 -0.7876  0.4558  1.2706
11598TIP3   OH256284   4.603   3.596   5.951  0.6042 -0.3300  0.0547
11598TIP3    H156285   4.610   3.511   5.996  1.5579 -0.9717 -1.2558
11598TIP3    H256286   4.608   3.574   5.858 -1.0299  1.0127 -0.3590
11599TIP3   OH256287   1.557   4.007   3.064  0.6490  0.4798 -0.2403
11599TIP3    H156288   1.561   3.939   3.132 -0.1516 -0.3057 -0.9621
11599TIP3    H256289   1.646   4.010   3.029  1.0584  0.8644  0.8045
11600TIP3   OH256290   3.811   5.101  16.161  0.3607 -0.1468 -0.2379
11600TIP3    H156291   3.845   5.168  16.102  2.2960 -1.4564 -0.6801
11600TIP3    H256292   3.810   5.021  16.109  0.3008 -0.9295  0.9353
11601TIP3   OH256293   4.693   5.903   1.656  0.0300  0.4092  0.0685
11601TIP3    H156294   4.671   5.888   1.564  2.2117  1.4920 -0.6564
11601TIP3    H256295   4.780   5.864   1.667  0.2064  1.1495  1.4189
11602TIP3   OH256296   6.401   4.370  11.380  0.0293  0.5499 -0.2166
11602TIP3    H156297   6.344   4.436  11.339  0.2326  0.9193  0.0900
11602TIP3    H256298   6.488   4.410  11.377  0.3510 -0.1939 -1.0785
11603TIP3   OH256299   4.735   0.039   2.689  0.2350  0.6074 -0.9349
11603TIP3    H156300   4.771   0.085   2.764 -1.0596  0.6671 -0.3407
11603TIP3    H256301   4.798  -0.031   2.671 -0.0064 -0.1152  0.9139
11604TIP3   OH256302   1.016   6.540   4.333  0.0848 -0.0065 -0.5399
11604TIP3    H156303   0.945   6.483   4.303  1.3155 -1.9503  0.1401
11604TIP3    H256304   1.094   6.507   4.288  0.6369  1.8483 -0.9725
11605TIP3   OH256305   1.708   1.044  10.855  0.2894  0.1668 -0.6058
11605TIP3    H156306   1.623   1.000  10.852  0.3490 -0.0332  0.3523
11605TIP3    H256307   1.686   1.137  10.857  0.0773  0.1115 -0.1721
11606TIP3   OH256308   4.482   2.475   6.212 -0.6146  0.0284  0.0986
11606TIP3    H156309   4.458   2.523   6.291 -0.0984 -1.3123  1.0888
11606TIP3    H256310   4.445   2.526   6.140 -2.1407  0.6062  1.2844
11607TIP3   OH256311   2.033   6.159   0.338  0.3614 -0.4115 -0.2196
11607TIP3    H156312   2.099   6.158   0.268  1.0122  0.1222  0.3805
11607TIP3    H256313   2.022   6.252   0.358  1.5370 -0.6486  1.6592
11608TIP3   OH256314   0.279   2.236  13.410 -0.0940  0.2282  0.3429
11608TIP3    H156315   0.353   2.295  13.403 -1.5003  2.0151  0.0948
11608TIP3    H256316   0.219   2.264  13.341 -0.6637 -1.7094  0.0057
11609TIP3   OH256317   5.952   4.453   1.810  0.0463 -0.0113 -0.7891
11609TIP3    H156318   6.023   4.471   1.748 -0.5053  0.3791 -1.3087
11609TIP3    H256319   5.928   4.363   1.792  1.1789 -0.5194  0.1684
11610TIP3   OH256320   4.334   6.257   1.402  0.6505  0.2801  0.4482
11610TIP3    H156321   4.421   6.273   1.439  1.1109 -0.9796 -0.0637
11610TIP3    H256322   4.304   6.177   1.445 -0.3587  0.8452  0.7995
11611TIP3   OH256323   1.229   2.761  13.491  0.6924  0.1790  0.5603
11611TIP3    H156324   1.184   2.684  13.524  1.6083 -0.7271 -0.2941
11611TIP3    H256325   1.306   2.769  13.547  1.1733 -0.1683 -0.0490
11612TIP3   OH256326   3.072   2.308   5.900 -0.0839  0.1865 -0.1001
11612TIP3    H156327   3.038   2.393   5.928 -0.2387  0.3178 -0.6782
11612TIP3    H256328   3.089   2.319   5.807  1.0372 -0.0496  0.0725
11613TIP3   OH256329   4.069   6.374  15.887 -0.0277  0.3115  0.2582
11613TIP3    H156330   4.068   6.450  15.946 -1.4145 -0.1575  0.8666
11613TIP3    H256331   4.007   6.396  15.818  1.0000  0.5229 -0.6010
11614TIP3   OH256332   6.774   2.944  11.024 -0.2846 -0.1949  0.5283
11614TIP3    H156333   6.784   2.864  10.973 -1.3213  0.4683 -0.7761
11614TIP3    H256334   6.822   3.010  10.973 -1.1801  0.4377  0.4884
11615TIP3   OH256335   4.394   3.839   0.827 -0.4898  0.0807 -0.0200
11615TIP3    H156336   4.411   3.749   0.854 -0.9047 -0.1651 -0.5771
11615TIP3    H256337   4.372   3.885   0.908  2.0129  0.2249  0.6296
11616TIP3   OH256338   5.169   3.826   4.111  0.6596 -0.2837 -0.0436
11616TIP3    H156339   5.254   3.861   4.137  1.2263 -0.1984 -1.9362
11616TIP3    H256340   5.161   3.848   4.019 -0.7201 -1.6814 -0.2814
11617TIP3   OH256341   2.936   2.554   3.323  0.2453  0.3284 -0.3362
11617TIP3    H156342   2.950   2.558   3.229 -1.5124  0.1421 -0.6203
11617TIP3    H256343   2.892   2.470   3.338 -1.1799  1.1925  0.4083
11618TIP3   OH256344   0.530   2.877  11.892 -0.7521  0.0662  0.1827
11618TIP3    H156345   0.553   2.889  11.984  1.5256 -0.1388 -0.3314
11618TIP3    H256346   0.598   2.820  11.857 -2.3114 -0.9246 -1.3484
11619TIP3   OH256347   1.852   3.674  14.660 -0.1135  0.1684 -0.7467
11619TIP3    H156348   1.823   3.618  14.588 -0.3197 -0.6972  0.0044
11619TIP3    H256349   1.775   3.681  14.717 -0.3467  1.8755 -1.2402
11620TIP3   OH256350   0.389   4.246  11.694 -0.1749 -0.1812 -0.7203
11620TIP3    H156351   0.480   4.276  11.691 -0.2252  0.0315 -0.2089
11620TIP3    H256352   0.361   4.243  11.602  0.2659  0.0036 -0.8604
11621TIP3   OH256353   3.143   4.610  12.379  0.0372 -0.3538  0.2521
11621TIP3    H156354   3.200   4.665  12.325 -1.7218  0.1045 -1.1666
11621TIP3    H256355   3.143   4.654  12.465  1.0284  0.1754 -0.0063
11622TIP3   OH256356   5.653   3.006   0.528  0.2210 -0.3491 -0.1578
11622TIP3    H156357   5.746   3.012   0.547 -0.0876 -0.4366  1.4765
11622TIP3    H256358   5.638   3.069   0.457  1.0751  1.4915  1.2720
11623TIP3   OH256359   5.720   1.238   5.840 -0.0001  0.1588 -0.5136
11623TIP3    H156360   5.745   1.239   5.748 -2.2562  0.6222 -1.1618
11623TIP3    H256361   5.756   1.319   5.876  2.0386 -0.6712 -0.6445
11624TIP3   OH256362   2.142   3.764  16.256 -0.2261  0.4450  0.1764
11624TIP3    H156363   2.122   3.821  16.182 -1.5071  0.5308  0.5717
11624TIP3    H256364   2.192   3.692  16.218 -0.5962  0.6550 -0.7231
11625TIP3   OH256365   6.288   6.570   0.098 -0.4068 -0.0018  0.5099
11625TIP3    H156366   6.339   6.578   0.018 -3.0849  0.3801 -1.2112
11625TIP3    H256367   6.351   6.584   0.168  2.2048 -1.4528 -1.4734
11626TIP3   OH256368   1.473   1.650   2.987 -0.1676  0.9485  0.3320
11626TIP3    H156369   1.557   1.616   2.955 -0.1427  0.9986  0.3440
11626TIP3    H256370   1.415   1.647   2.911 -0.2388  0.6349  0.3980
11627TIP3   OH256371   2.058   0.834   1.564  0.1068 -0.6011 -0.1078
11627TIP3    H156372   2.124   0.879   1.511 -0.3671 -0.3763 -0.5217
11627TIP3    H256373   2.062   0.743   1.536  0.1966 -0.5754 -0.1775
11628TIP3   OH256374   5.246   6.123  11.366  0.0952 -0.5668 -0.3958
11628TIP3    H156375   5.173   6.183  11.380  0.2157 -0.4377 -0.3161
11628TIP3    H256376   5.251   6.073  11.447  0.4886 -0.1497 -0.1636
11629TIP3   OH256377   1.029   1.737   3.661  0.4317  0.7224 -0.1839
11629TIP3    H156378   1.101   1.717   3.601 -0.3136 -1.9287 -0.2247
11629TIP3    H256379   0.956   1.763   3.603  0.5845  0.9798 -0.2635
11630TIP3   OH256380   5.734   3.869   3.233 -0.2520  0.3646  0.1054
11630TIP3    H156381   5.648   3.840   3.202 -1.5507 -0.2548  3.9331
11630TIP3    H256382   5.784   3.788   3.246 -0.3569  0.4668  1.2279
11631TIP3   OH256383   6.181   2.487   1.648 -0.1279  0.1067  0.4011
11631TIP3    H156384   6.236   2.426   1.599 -0.8715  0.2549 -0.6226
11631TIP3    H256385   6.240   2.523   1.715  0.1676 -2.1779  1.4416
11632TIP3   OH256386   3.260   5.315  12.289  0.3582 -0.1040  0.1628
11632TIP3    H156387   3.225   5.326  12.378  1.8506 -1.5838  0.9689
11632TIP3    H256388   3.341   5.366  12.288 -0.5018  1.2768 -0.9076
11633TIP3   OH256389   3.799   4.841  13.346  0.5173  0.1097 -0.3532
11633TIP3    H156390   3.766   4.835  13.256  0.7874  0.2321 -0.4645
11633TIP3    H256391   3.793   4.753  13.380  0.8570 -0.0347 -0.6549
11634TIP3   OH256392   1.001   6.366   5.056 -0.3612  0.4236 -0.8285
11634TIP3    H156393   0.932   6.346   4.994 -1.0876 -0.9628  0.3830
11634TIP3    H256394   1.064   6.294   5.047 -0.6763 -0.0103  0.3038
11635TIP3   OH256395   0.088   6.767   6.738 -0.4031 -0.1277 -0.6719
11635TIP3    H156396  -0.003   6.736   6.736 -0.6941  0.4231  2.1643
11635TIP3    H256397   0.137   6.692   6.771  0.0395 -0.1005 -1.2659
11636TIP3   OH256398   0.540   5.368  15.639 -0.0188  0.1577  0.6337
11636TIP3    H156399   0.492   5.434  15.590 -1.5214 -2.1550 -1.1464
11636TIP3    H256400   0.616   5.414  15.675 -0.9924  2.7911 -0.5836
11637TIP3   OH256401   1.654   4.432   3.512  0.1513  0.2062 -0.4783
11637TIP3    H156402   1.584   4.488   3.546  0.2627 -1.1274  2.0459
11637TIP3    H256403   1.734   4.484   3.523  0.0292  0.2544  0.1886
11638TIP3   OH256404   6.736   5.487  14.922  0.0796 -0.2497 -0.0501
11638TIP3    H156405   6.779   5.559  14.877 -2.1121  1.2341  0.1375
11638TIP3    H256406   6.642   5.507  14.914 -0.6210 -3.6022 -0.8805
11639TIP3   OH256407   3.857   0.653  11.431 -0.0977  0.2239  0.0681
11639TIP3    H156408   3.789   0.674  11.495 -0.2712 -2.4999  0.8256
11639TIP3    H256409   3.937   0.690  11.468 -0.4373 -0.1494  1.1811
11640TIP3   OH256410   5.999   2.778   2.610  0.2468  0.0279 -0.0962
11640TIP3    H156411   5.990   2.871   2.630  1.5850  0.0808  0.3669
11640TIP3    H256412   5.976   2.770   2.517  1.3963  1.0440 -0.4808
11641TIP3   OH256413   0.775   2.325   5.620  0.2038  0.3846 -0.2520
11641TIP3    H156414   0.799   2.367   5.702 -1.3548  2.2144 -0.6702
11641TIP3    H256415   0.800   2.234   5.630  0.0239  0.5938  2.2350
11642TIP3   OH256416   1.181   0.467  11.914  0.1065 -0.2973  0.2086
11642TIP3    H156417   1.167   0.546  11.862 -0.4869  0.1784  1.0932
11642TIP3    H256418   1.250   0.490  11.976  1.5260 -1.1775 -1.0128
11643TIP3   OH256419   5.206   1.627   3.085  0.3998 -0.1424 -0.0059
11643TIP3    H156420   5.122   1.652   3.123  0.8922  0.5299  0.6494
11643TIP3    H256421   5.218   1.687   3.012  0.4334 -0.0699  0.0596
11644TIP3   OH256422   0.522   2.724  15.892  0.4335  0.0958  0.7461
11644TIP3    H156423   0.535   2.819  15.902  1.3672 -0.2025  2.5200
11644TIP3    H256424   0.461   2.716  15.818 -1.3008  2.1644  1.9114
11645TIP3   OH256425   1.605   3.295  12.226  0.2725  0.0153 -0.2880
11645TIP3    H156426   1.642   3.230  12.285 -1.9111 -1.4000 -0.3986
11645TIP3    H256427   1.641   3.273  12.140  0.8143 -0.0450 -0.0421
11646TIP3   OH256428   3.492   3.164  17.108 -0.2694 -0.0120 -0.0611
11646TIP3    H156429   3.519   3.255  17.121  2.4132 -0.5963 -1.2640
11646TIP3    H256430   3.570   3.112  17.127 -0.8565 -1.8646 -2.3941
11647TIP3   OH256431   6.479   4.634   0.588 -0.0305  0.3603  0.9154
11647TIP3    H156432   6.574   4.636   0.597  0.0075  0.4567  0.4845
11647TIP3    H256433   6.448   4.612   0.676  0.4132 -0.1945  0.9420
11648TIP3   OH256434   2.992   2.786   3.904 -0.7140 -0.2003 -1.0549
11648TIP3    H156435   3.086   2.781   3.884 -0.1777 -1.0246  1.4824
11648TIP3    H256436   2.970   2.878   3.890  0.7330  0.2288 -0.5644
11649TIP3   OH256437   1.919   5.242   6.184 -0.7774  0.5344  0.4512
11649TIP3    H156438   1.917   5.307   6.253 -1.7081  0.9615  0.0233
11649TIP3    H256439   1.860   5.172   6.214  1.5536 -0.9514  1.7176
11650TIP3   OH256440   0.979   5.345   5.453  0.0224  0.2218  0.3551
11650TIP3    H156441   0.964   5.422   5.508  0.3718  0.6036 -0.0757
11650TIP3    H256442   0.932   5.274   5.497 -1.9723  1.1182 -0.3059
11651TIP3   OH256443   3.597   1.886  14.909  0.5706 -0.3730 -0.1185
11651TIP3    H156444   3.645   1.956  14.866  0.7591 -0.2061  0.3563
11651TIP3    H256445   3.520   1.872  14.855  0.8124 -0.1803 -0.5180
11652TIP3   OH256446   3.710   1.218  16.517  0.0325 -0.3509 -0.1442
11652TIP3    H156447   3.652   1.184  16.449  1.8058 -1.1450 -1.2848
11652TIP3    H256448   3.798   1.197  16.486  0.8456 -1.3842  2.7311
11653TIP3   OH256449   0.492   4.895  11.233  0.2710  0.4246 -0.1507
11653TIP3    H156450   0.450   4.839  11.168  0.0591  0.4417 -0.0320
11653TIP3    H256451   0.419   4.946  11.269  0.0529 -0.9825  1.4934
11654TIP3   OH256452   4.012   0.461  15.019 -0.3606 -0.1113  0.1659
11654TIP3    H156453   3.950   0.462  14.946 -1.1137 -0.9639  0.7871
11654TIP3    H256454   3.998   0.377  15.062 -0.8231  0.9199  2.0757
11655TIP3   OH256455   0.213   2.427   4.487 -0.2930  0.2326 -0.2881
11655TIP3    H156456   0.257   2.345   4.507 -0.1720 -0.4642 -3.1002
11655TIP3    H256457   0.274   2.495   4.515  1.0222 -0.6987 -0.8389
11656TIP3   OH256458   5.372   0.036  16.437 -0.4752 -0.1347 -1.0924
11656TIP3    H156459   5.327   0.108  16.483 -1.0317 -0.5921 -0.9082
11656TIP3    H256460   5.436   0.004  16.500 -0.8522 -0.3919 -0.8351
11657TIP3   OH256461   2.866   5.902  11.100  0.6187  0.0268  0.6135
11657TIP3    H156462   2.840   5.830  11.043 -0.5096 -0.7810  2.0979
11657TIP3    H256463   2.902   5.968  11.041  0.6876 -1.3090 -0.8802
11658TIP3   OH256464   1.171   0.790  12.878 -0.1766  0.3669  0.3666
11658TIP3    H156465   1.081   0.776  12.849  0.2534  0.3825 -1.0370
11658TIP3    H256466   1.188   0.882  12.857  0.5406  0.0509 -0.4560
11659TIP3   OH256467   2.323   3.679  15.441  0.5075 -0.0213 -0.0570
11659TIP3    H156468   2.264   3.716  15.506  0.5831  0.8856 -0.4894
11659TIP3    H256469   2.410   3.711  15.466  0.5538  0.2193 -0.5157
11660TIP3   OH256470   0.098   4.112   1.448 -0.0874  0.0037 -0.6787
11660TIP3    H156471   0.050   4.132   1.529 -1.4398 -2.1846 -0.8832
11660TIP3    H256472   0.188   4.096   1.477 -0.2272  0.6796  0.1793
11661TIP3   OH256473   2.883   6.385  16.253 -0.3456  0.5662  0.4473
11661TIP3    H156474   2.820   6.441  16.207 -0.3691  1.4210  1.5120
11661TIP3    H256475   2.865   6.297  16.220  1.6099  1.5066 -3.4311
11662TIP3   OH256476   4.029   3.437   4.356 -0.5620 -0.1733  0.4654
11662TIP3    H156477   3.983   3.382   4.293 -1.1348  1.7271 -0.7874
11662TIP3    H256478   4.051   3.517   4.309  1.6935  0.0672  1.8027
11663TIP3   OH256479   4.849   6.180   5.475 -0.1216  0.1322 -0.2353
11663TIP3    H156480   4.941   6.203   5.460 -0.0241 -0.6300 -0.8701
11663TIP3    H256481   4.826   6.124   5.400 -0.5122 -1.2930  0.9188
11664TIP3   OH256482   1.775   2.097   2.468  0.0916 -0.5079  0.4043
11664TIP3    H156483   1.854   2.132   2.508 -0.1360 -0.7844  1.1038
11664TIP3    H256484   1.806   2.027   2.411  0.5597  0.8532 -1.0764
11665TIP3   OH256485   1.413   2.466  14.430 -0.2165  0.1363  0.2687
11665TIP3    H156486   1.389   2.435  14.518 -1.2546 -1.3832 -0.5280
11665TIP3    H256487   1.483   2.529  14.445 -0.3967 -0.0997  2.1981
11666TIP3   OH256488   5.264   3.197  13.912  0.5229 -0.3006 -0.3779
11666TIP3    H156489   5.312   3.268  13.956 -2.3319  1.7779 -0.4558
11666TIP3    H256490   5.295   3.201  13.822  1.3682 -0.0256 -0.0848
11667TIP3   OH256491   3.501   1.471   0.002  0.3952  0.3032  0.0601
11667TIP3    H156492   3.571   1.408  -0.013  0.5518  0.7985 -1.3970
11667TIP3    H256493   3.423   1.430  -0.036 -0.1046 -0.2077  1.5951
11668TIP3   OH256494   2.043   2.149   5.803 -0.1653  0.0978  0.1214
11668TIP3    H156495   2.083   2.114   5.883  0.0111 -1.5101 -0.6491
11668TIP3    H256496   2.103   2.218   5.775 -0.9069  1.5539  2.0873
11669TIP3   OH256497   4.295   2.919   0.938 -0.3049  0.0771  0.4254
11669TIP3    H156498   4.300   2.935   1.032 -0.1812  1.1668  0.2314
11669TIP3    H256499   4.342   2.992   0.898 -2.0439  0.6863 -0.5616
11670TIP3   OH256500   2.558   3.167   0.766 -0.2698  0.7270 -0.7325
11670TIP3    H156501   2.645   3.151   0.801  0.5476  0.6217 -2.7451
11670TIP3    H256502   2.533   3.084   0.725 -0.5536  1.3109 -1.7421
11671TIP3   OH256503   5.618   4.755   3.070 -0.0408  0.2821  0.3208
11671TIP3    H156504   5.708   4.788   3.075  0.8048 -1.8657 -0.1711
11671TIP3    H256505   5.579   4.780   3.154  1.2332  0.6060  0.8331
11672TIP3   OH256506   4.224   6.012   1.523 -0.4912 -0.2742 -0.1063
11672TIP3    H156507   4.175   6.057   1.592  0.2595 -1.1868  1.0534
11672TIP3    H256508   4.229   5.921   1.553 -0.6167 -0.7982 -1.6361
11673TIP3   OH256509   6.799   3.116  16.071  0.6558 -0.1176 -0.2376
11673TIP3    H156510   6.725   3.167  16.104  0.1975 -0.7286 -0.3225
11673TIP3    H256511   6.826   3.161  15.991  0.6392  0.3444  0.0157
11674TIP3   OH256512   2.387   0.506   3.532  1.0091 -0.2159  0.1531
11674TIP3    H156513   2.438   0.557   3.470  0.0395  0.2105 -0.3124
11674TIP3    H256514   2.432   0.517   3.616  1.8268 -0.0762 -0.2976
11675TIP3   OH256515   2.383   6.408  16.663 -0.2051  0.9274 -0.2303
11675TIP3    H156516   2.384   6.504  16.659  2.1653  0.8619 -2.1732
11675TIP3    H256517   2.476   6.383  16.665 -0.7604 -1.3895 -1.8950
11676TIP3   OH256518   2.679   1.177   3.016 -0.3513  0.3773 -0.4739
11676TIP3    H156519   2.663   1.183   3.110  0.4789 -0.0556 -0.3040
11676TIP3    H256520   2.595   1.148   2.980 -0.7856  0.9157  0.0836
11677TIP3   OH256521   0.516   1.447  14.382 -0.7806 -0.2782 -0.1615
11677TIP3    H156522   0.488   1.404  14.463 -0.2700  1.5238  0.9868
11677TIP3    H256523   0.605   1.475  14.399 -0.2796 -0.8392 -1.7540
11678TIP3   OH256524   5.854   3.805  12.635  0.1335  0.1143 -0.4542
11678TIP3    H156525   5.797   3.772  12.704 -1.7167  1.5290 -1.2712
11678TIP3    H256526   5.839   3.899  12.634  2.0842  0.4405 -1.0594
11679TIP3   OH256527   0.031   0.062  14.192 -0.7597 -0.0108  0.4930
11679TIP3    H156528   0.060   0.081  14.103 -3.4762  0.7094 -0.2703
11679TIP3    H256529   0.011   0.148  14.229 -0.2928 -0.3622  1.5856
11680TIP3   OH256530   3.729   0.926  16.045 -0.0484 -0.2956 -0.3572
11680TIP3    H156531   3.787   0.855  16.070  0.8707  0.8794  0.9542
11680TIP3    H256532   3.781   0.980  15.984  0.0968  0.5137  0.4695
11681TIP3   OH256533   3.150   4.466  10.454  0.1720  0.1065 -0.2008
11681TIP3    H156534   3.182   4.501  10.537  0.7311 -1.0750  0.0926
11681TIP3    H256535   3.150   4.541  10.395 -0.2994  0.9732  0.8840
11682TIP3   OH256536   1.664   6.594  11.796  0.5353 -0.6441  0.4724
11682TIP3    H156537   1.718   6.659  11.751  0.6486  1.1542  3.1090
11682TIP3    H256538   1.609   6.557  11.727  0.5138  2.2004 -1.1034
11683TIP3   OH256539   2.077   4.626  15.230 -0.5337 -0.3163 -0.2218
11683TIP3    H156540   2.115   4.654  15.313 -0.0780 -0.0430 -0.5171
11683TIP3    H256541   2.102   4.695  15.168 -2.0856  0.2163 -0.2811
11684TIP3   OH256542   5.745   5.259   5.494  0.4639  0.3607 -0.3816
11684TIP3    H156543   5.693   5.315   5.436 -0.1513 -0.4743 -0.6414
11684TIP3    H256544   5.833   5.260   5.456  0.4480  1.1359 -0.3961
11685TIP3   OH256545   3.803   0.133   4.735  0.7830  0.2258 -0.3468
11685TIP3    H156546   3.762   0.052   4.765  0.5825  0.7130  0.7104
11685TIP3    H256547   3.897   0.118   4.747  0.7610  0.0690 -0.3657
11686TIP3   OH256548   3.232   1.122   3.343 -0.3851  0.8254 -0.6489
11686TIP3    H156549   3.223   1.057   3.273 -0.2439  0.2641 -0.1560
11686TIP3    H256550   3.268   1.199   3.300  2.8136 -0.5551 -0.6297
11687TIP3   OH256551   4.107   0.732  11.513 -0.1333 -0.0295 -0.5896
11687TIP3    H156552   4.134   0.720  11.605  0.0750  0.2196 -0.6163
11687TIP3    H256553   4.185   0.769  11.471 -0.4308  0.4259 -0.7338
11688TIP3   OH256554   5.672   5.127   3.613 -0.4024  0.2434  0.8110
11688TIP3    H156555   5.580   5.152   3.622  0.0629  2.0985  0.6360
11688TIP3    H256556   5.679   5.095   3.524 -1.0686 -0.7479  1.1081
11689TIP3   OH256557   5.824   4.546  15.575 -0.0120  0.4199  0.1345
11689TIP3    H156558   5.797   4.460  15.607 -0.1685  0.5254  0.2873
11689TIP3    H256559   5.784   4.553  15.488 -0.6591  0.6676  0.4488
11690TIP3   OH256560   6.374   1.371  15.131  0.6283  0.7377 -0.4286
11690TIP3    H156561   6.430   1.293  15.133  0.2863  0.5160  1.7419
11690TIP3    H256562   6.406   1.421  15.056  0.6693 -1.6198 -2.0543
11691TIP3   OH256563   2.373   5.400  16.397  0.3171 -0.1538 -0.9041
11691TIP3    H156564   2.345   5.335  16.332 -0.8152 -1.2024  0.5970
11691TIP3    H256565   2.301   5.402  16.460 -0.8415  4.4042 -2.2155
11692TIP3   OH256566   6.773   0.301  11.063 -0.0085  0.4124 -0.4715
11692TIP3    H156567   6.786   0.248  11.142 -1.5524  0.7527  0.0259
11692TIP3    H256568   6.849   0.359  11.061  1.2420 -1.1819 -0.5340
11693TIP3   OH256569   5.255   4.574  15.854  0.5275 -0.5373  0.0639
11693TIP3    H156570   5.310   4.513  15.805  0.9964 -0.6351  0.7004
11693TIP3    H256571   5.307   4.654  15.861 -0.1508  0.0055 -0.9122
11694TIP3   OH256572   3.124   1.754  15.718  0.4297  0.4412 -0.0453
11694TIP3    H156573   3.078   1.670  15.724  0.7462  0.1336 -1.6502
11694TIP3    H256574   3.142   1.765  15.624  0.4955  2.2486  0.1568
11695TIP3   OH256575   0.227   2.710  12.890 -0.4433 -0.3366  0.1716
11695TIP3    H156576   0.161   2.772  12.861 -0.3377 -0.6171 -0.6970
11695TIP3    H256577   0.297   2.717  12.825 -0.1365 -0.8694  0.4362
11696TIP3   OH256578   0.848   6.140   6.788 -0.2235 -0.5917  0.2111
11696TIP3    H156579   0.809   6.227   6.777  0.6070  0.0003  1.8215
11696TIP3    H256580   0.794   6.083   6.733  0.4487  1.2515 -2.4632
11697TIP3   OH256581   1.044   1.071  12.947 -0.2430  0.0094 -0.2353
11697TIP3    H156582   0.977   1.015  12.985  0.9273 -0.7204  0.7802
11697TIP3    H256583   1.019   1.160  12.973 -2.0385 -0.0147 -1.7535
11698TIP3   OH256584   4.410   6.330  13.358 -0.2374  0.3761 -0.2993
11698TIP3    H156585   4.435   6.306  13.269 -1.2782  0.5007 -0.6283
11698TIP3    H256586   4.335   6.389  13.348  0.3061  1.2481  0.6175
11699TIP3   OH256587   4.498   5.465   0.780 -0.0140 -0.4468  0.6206
11699TIP3    H156588   4.515   5.528   0.850  1.3315  0.5416 -0.5810
11699TIP3    H256589   4.470   5.518   0.706  0.7405 -1.2936 -0.2787
11700TIP3   OH256590   0.760   1.881  14.693 -0.6805 -0.7865  0.0586
11700TIP3    H156591   0.734   1.917  14.778  0.1570  0.7498 -0.3080
11700TIP3    H256592   0.696   1.813  14.674 -1.3581 -0.5707  1.5415
11701TIP3   OH256593   0.421   5.264   3.520 -0.0023  0.1386 -0.1210
11701TIP3    H156594   0.382   5.340   3.564  0.5050 -0.4980  1.4620
11701TIP3    H256595   0.351   5.230   3.464 -0.7620  0.7550  0.4481
11702TIP3   OH256596   3.925   5.470   3.659  0.5030 -0.1245  0.6128
11702TIP3    H156597   3.962   5.557   3.676 -2.0235  1.1726 -0.1702
11702TIP3    H256598   3.866   5.455   3.733  0.0154 -0.6237  0.1261
11703TIP3   OH256599   6.505   3.935  12.529 -0.1292 -0.0090 -0.3751
11703TIP3    H156600   6.490   3.893  12.444  0.2300  1.9925 -1.4411
11703TIP3    H256601   6.550   4.016  12.509 -0.6593  0.8350  1.6905
11704TIP3   OH256602   0.681   1.789  15.468 -0.2661  0.1692 -0.1572
11704TIP3    H156603   0.688   1.694  15.466  1.1776  0.2682 -0.9168
11704TIP3    H256604   0.768   1.819  15.495 -1.2140  1.2208  1.8530
11705TIP3   OH256605   5.483   2.122   3.115  0.1706 -0.4844 -0.3111
11705TIP3    H156606   5.415   2.184   3.089  0.4505  0.2652  0.7392
11705TIP3    H256607   5.468   2.108   3.208  0.8079 -1.1375 -0.3040
11706TIP3   OH256608   4.623   6.555  11.878  0.4400  0.1842 -0.6347
11706TIP3    H156609   4.629   6.572  11.784 -1.0030  0.6500 -0.6591
11706TIP3    H256610   4.546   6.498  11.887 -1.0976  2.3565  0.5300
11707TIP3   OH256611   5.090   6.792   6.594 -0.0772 -0.3912  0.5849
11707TIP3    H156612   5.032   6.864   6.622 -2.8818 -1.2151 -2.7175
11707TIP3    H256613   5.030   6.725   6.561  2.7580 -1.4622 -2.6613
11708TIP3   OH256614   0.018   0.698  14.687 -0.2227  0.4894 -0.0785
11708TIP3    H156615  -0.011   0.615  14.649  0.1099 -0.0570  0.8727
11708TIP3    H256616  -0.053   0.759  14.666 -1.5253 -0.5520  1.1651
11709TIP3   OH256617   0.079   1.693  13.972 -0.1873 -0.5818  0.7990
11709TIP3    H156618  -0.014   1.693  13.950  0.0455 -0.0393 -0.2130
11709TIP3    H256619   0.114   1.770  13.928  0.4591  0.0741  2.4132
11710TIP3   OH256620   1.391   1.140  12.497 -0.0638 -0.4304  0.0015
11710TIP3    H156621   1.394   1.133  12.592 -0.3599  0.8422  0.1042
11710TIP3    H256622   1.368   1.051  12.468 -0.5840 -0.6781  1.1431
11711TIP3   OH256623   5.911   1.868  17.281 -0.2408  0.0219 -0.1658
11711TIP3    H156624   5.844   1.931  17.309  1.6241  1.4902  1.1865
11711TIP3    H256625   5.991   1.920  17.276  1.2346 -2.1389  0.4150
11712TIP3   OH256626   2.849   4.814   1.501  0.2630  0.1236  0.2139
11712TIP3    H156627   2.801   4.871   1.442  1.8643 -0.2903 -1.5412
11712TIP3    H256628   2.835   4.852   1.588 -0.8493  1.6365 -0.5978
11713TIP3   OH256629   6.237   0.163  14.013  0.0734  0.1369  0.6289
11713TIP3    H156630   6.239   0.169  13.917 -1.3741 -1.7747  0.4648
11713TIP3    H256631   6.252   0.253  14.042  2.2972  0.4712 -1.3495
11714TIP3   OH256632   3.261   4.348   5.340 -0.1711  0.0537  0.0619
11714TIP3    H156633   3.286   4.320   5.429 -0.6369 -0.2341  0.1083
11714TIP3    H256634   3.175   4.390   5.352  0.6662  1.8095  0.0360
11715TIP3   OH256635   2.552   0.255   3.487 -0.2289  0.3846 -0.0834
11715TIP3    H156636   2.493   0.287   3.555 -0.8849  2.0647 -1.4139
11715TIP3    H256637   2.578   0.168   3.517 -1.3088  0.6867  1.8069
11716TIP3   OH256638   3.302   4.451   2.369  0.0051 -0.0970  0.8405
11716TIP3    H156639   3.314   4.420   2.459 -0.2164  1.6010  1.4824
11716TIP3    H256640   3.389   4.475   2.340 -0.1446  0.9413  1.2191
11717TIP3   OH256641   1.440   4.454  12.617 -0.1046 -0.5259 -0.0887
11717TIP3    H156642   1.504   4.516  12.651 -0.3407  0.0778 -0.7342
11717TIP3    H256643   1.379   4.439  12.689 -1.5565  2.0083 -0.7296
11718TIP3   OH256644   4.291   5.833  12.155 -0.0181  0.0995 -0.2581
11718TIP3    H156645   4.326   5.880  12.079 -0.8427  0.8424 -0.1872
11718TIP3    H256646   4.346   5.861  12.228  0.4045 -0.1626 -0.4752
11719TIP3   OH256647   3.500   6.654  16.451 -0.4938  0.0078 -0.3789
11719TIP3    H156648   3.491   6.640  16.357 -1.7652 -0.2842 -0.2283
11719TIP3    H256649   3.509   6.566  16.488 -3.8870 -0.1861  0.1254
11720TIP3   OH256650   2.136   0.658   5.106 -0.5540  0.0154 -0.2482
11720TIP3    H156651   2.103   0.607   5.179 -0.2888  0.0705 -0.0871
11720TIP3    H256652   2.227   0.631   5.097  0.0286  1.5462  0.8120
11721TIP3   OH256653   4.978   2.941   1.782 -0.1704  0.6464  0.4728
11721TIP3    H156654   4.998   3.034   1.795 -0.5230  0.9229 -0.8868
11721TIP3    H256655   4.922   2.917   1.856 -1.5907  1.9931 -0.1464
11722TIP3   OH256656   2.771   4.428  10.724  0.2283  0.1744  0.0127
11722TIP3    H156657   2.677   4.413  10.724  0.2464  0.0442 -0.3492
11722TIP3    H256658   2.782   4.509  10.674  0.3963 -0.4457 -0.9843
11723TIP3   OH256659   4.476   2.357   3.201  0.3613 -0.4082  0.3679
11723TIP3    H156660   4.383   2.334   3.200  0.2647 -0.0023 -0.2642
11723TIP3    H256661   4.509   2.322   3.118  0.7537 -0.4820  0.5573
11724TIP3   OH256662   2.184   1.388   0.405  0.2495  0.7526 -1.2999
11724TIP3    H156663   2.198   1.430   0.320 -0.3617 -1.7564 -2.6889
11724TIP3    H256664   2.137   1.307   0.385  0.3617 -0.0497  1.4083
11725TIP3   OH256665   5.856   0.034   3.641 -0.0723 -0.4284  0.2723
11725TIP3    H156666   5.770   0.000   3.667  0.1255  1.0553  3.1386
11725TIP3    H256667   5.917  -0.036   3.665 -0.5350 -1.9069 -2.7199
11726TIP3   OH256668   5.325   6.560   2.522  1.0163 -0.4803 -0.2799
11726TIP3    H156669   5.283   6.524   2.444  0.1642  0.1661 -0.1280
11726TIP3    H256670   5.330   6.654   2.505  2.4624 -0.5489 -0.3177
11727TIP3   OH256671   0.371   3.096  12.057  0.4137 -0.1732 -0.1315
11727TIP3    H156672   0.440   3.152  12.094  0.0148  0.4091 -0.2492
11727TIP3    H256673   0.296   3.109  12.115 -0.1484  0.5798 -0.9980
11728TIP3   OH256674   5.094   3.506   1.827  0.4465 -0.3142  0.0150
11728TIP3    H156675   5.050   3.501   1.912  1.5745 -2.7548  0.5017
11728TIP3    H256676   5.183   3.533   1.847  0.2623  0.7878 -0.5855
11729TIP3   OH256677   5.931   1.625   5.642 -0.3417 -0.1416 -0.0274
11729TIP3    H156678   6.006   1.658   5.691 -0.9502  0.1750  0.7032
11729TIP3    H256679   5.931   1.677   5.561  0.4820 -0.4531 -0.2333
11730TIP3   OH256680   1.181   1.046  17.259  0.2200  0.2843 -0.4345
11730TIP3    H156681   1.106   1.013  17.208  0.3018 -1.3231  0.4617
11730TIP3    H256682   1.253   0.988  17.237  0.1428 -0.7161  1.8576
11731TIP3   OH256683   1.463   6.357  13.858 -0.1435 -0.2134  0.1951
11731TIP3    H156684   1.376   6.372  13.895 -0.6154 -0.1310 -0.9036
11731TIP3    H256685   1.522   6.410  13.911 -1.2692  2.6350 -1.3129
11732TIP3   OH256686   1.933   2.596  16.934  0.0758 -0.4872 -0.5503
11732TIP3    H156687   1.915   2.517  16.984  0.4475 -0.2285  0.0024
11732TIP3    H256688   1.999   2.643  16.986 -1.1762  0.8619 -0.1613
11733TIP3   OH256689   2.399   1.043   2.653 -0.5201  0.3345 -0.1926
11733TIP3    H156690   2.464   1.069   2.718  0.7686  0.5712 -1.5576
11733TIP3    H256691   2.343   1.119   2.643 -0.6978  0.3126  0.6077
11734TIP3   OH256692   3.556   6.236   1.322 -0.3551  0.7598 -0.2304
11734TIP3    H156693   3.547   6.193   1.408 -1.4481  0.2710 -0.5825
11734TIP3    H256694   3.590   6.167   1.265 -1.3628  0.5745 -0.6138
11735TIP3   OH256695   5.150   1.770   4.370 -0.3608  0.1419 -0.3683
11735TIP3    H156696   5.063   1.794   4.401 -0.0685  2.5547 -1.2940
11735TIP3    H256697   5.137   1.749   4.277 -0.1430 -0.5728 -0.2364
11736TIP3   OH256698   0.336   3.119  16.259  0.1970  0.5592  0.0752
11736TIP3    H156699   0.357   3.127  16.166 -1.1341 -0.2107 -0.3073
11736TIP3    H256700   0.265   3.182  16.273 -1.2748 -1.0349  0.0045
11737TIP3   OH256701   0.747   4.015   6.344 -0.6443  0.0704  0.5698
11737TIP3    H156702   0.814   3.966   6.295  2.4372  2.1163  2.6066
11737TIP3    H256703   0.714   3.952   6.408 -0.5240 -0.8584 -0.2537
11738TIP3   OH256704   4.799   6.588  13.503  0.6252 -1.0849  0.3518
11738TIP3    H156705   4.822   6.593  13.596  0.4270 -2.6634  0.4930
11738TIP3    H256706   4.736   6.517  13.498  0.6493 -1.0156 -1.0120
11739TIP3   OH256707   2.059   2.038  15.165  0.8608 -0.2818 -0.3121
11739TIP3    H156708   2.094   2.008  15.081  1.1222 -0.1006 -0.2705
11739TIP3    H256709   2.134   2.038  15.224  0.7294 -0.1717 -0.1429
11740TIP3   OH256710   2.392   1.698  11.928 -0.4192 -0.3436  0.2582
11740TIP3    H156711   2.417   1.611  11.895  0.3992 -0.2196  0.5369
11740TIP3    H256712   2.348   1.740  11.854 -0.8494 -1.0109  0.1338
11741TIP3   OH256713   2.822   2.077   2.031  0.0443 -0.3410 -0.5985
11741TIP3    H156714   2.746   2.128   2.003 -0.9212 -1.2151  0.3927
11741TIP3    H256715   2.883   2.084   1.958  0.2923  2.8915 -0.1714
11742TIP3   OH256716   6.744   3.297   3.472  0.1556  0.2868 -0.5131
11742TIP3    H156717   6.818   3.314   3.530  0.7820 -0.4315 -1.0863
11742TIP3    H256718   6.779   3.239   3.405 -0.5567  1.1376 -1.6315
11743TIP3   OH256719   5.781   3.958  14.912 -0.2094  0.1356 -0.5002
11743TIP3    H156720   5.752   4.048  14.895 -1.8180 -0.4352 -0.9157
11743TIP3    H256721   5.876   3.961  14.901 -0.3545  1.5316 -1.6378
11744TIP3   OH256722   6.655   3.059  12.698  0.2250  0.1192 -0.5708
11744TIP3    H156723   6.692   3.038  12.612  0.5889  1.2993 -0.7148
11744TIP3    H256724   6.576   3.006  12.704  0.4406 -0.3110 -1.4435
11745TIP3   OH256725   3.111   3.395   3.920 -0.4410  0.0878 -0.2700
11745TIP3    H156726   3.068   3.361   3.999  0.8131  0.3751  0.5598
11745TIP3    H256727   3.123   3.488   3.939 -0.6345  0.2669 -1.0398
11746TIP3   OH256728   5.800   1.204   2.993 -0.2295  0.4343 -0.0653
11746TIP3    H156729   5.871   1.182   2.932  0.2721  2.9595 -0.4526
11746TIP3    H256730   5.728   1.148   2.966  1.4237 -1.7711 -0.0325
11747TIP3   OH256731   0.516   3.366   2.474 -0.5164  0.3127  0.4439
11747TIP3    H156732   0.558   3.375   2.560 -0.5839  1.4216  0.3641
11747TIP3    H256733   0.571   3.303   2.427  0.4091  0.8898  0.7425
11748TIP3   OH256734   6.520   2.619  13.561  0.6789 -0.3150  0.5777
11748TIP3    H156735   6.509   2.700  13.510  1.1060  0.3784  1.5619
11748TIP3    H256736   6.456   2.558  13.524  0.1259  0.5775  0.0447
11749TIP3   OH256737   1.017   1.564  16.543 -0.1009  0.7866  0.2233
11749TIP3    H156738   1.035   1.657  16.531  1.2513  0.6616  1.1962
11749TIP3    H256739   0.961   1.560  16.621  0.2457  0.7459  0.4681
11750TIP3   OH256740   4.671   1.210  13.433  0.6512 -0.4925  0.6891
11750TIP3    H156741   4.723   1.276  13.479 -0.0048  0.4716  0.0682
11750TIP3    H256742   4.697   1.220  13.341 -2.3658  1.6693  0.0003
11751TIP3   OH256743   1.537   1.675   4.533 -0.6528  0.0136  0.0713
11751TIP3    H156744   1.584   1.613   4.477 -1.3647 -0.5537  0.0849
11751TIP3    H256745   1.457   1.696   4.483  0.7073  2.8283 -1.0434
11752TIP3   OH256746   3.281   6.356  11.503 -0.0492 -0.0157  0.5237
11752TIP3    H156747   3.331   6.346  11.584 -0.0419 -1.9202  0.2994
11752TIP3    H256748   3.189   6.363  11.532  0.1401  1.5822  0.8110
11753TIP3   OH256749   5.157   3.211  11.051 -0.1736 -0.0202 -0.0270
11753TIP3    H156750   5.149   3.299  11.014 -1.7381  0.3245  1.0934
11753TIP3    H256751   5.250   3.190  11.043  0.2617  1.8319 -0.0806
11754TIP3   OH256752   0.860   5.268  13.930  0.0455  0.2381 -0.4493
11754TIP3    H156753   0.857   5.355  13.890 -0.6917  0.1124 -0.6681
11754TIP3    H256754   0.872   5.286  14.024  0.3539  0.5626 -0.5493
11755TIP3   OH256755   3.556   4.430   0.130 -0.3366  0.1468 -0.2093
11755TIP3    H156756   3.608   4.457   0.206 -0.7362 -0.6556  0.3579
11755TIP3    H256757   3.619   4.424   0.058  0.1238  0.4512  0.1701
11756TIP3   OH256758   3.689   2.552   2.371 -0.4720 -0.2594  0.1051
11756TIP3    H156759   3.708   2.577   2.462 -0.3063  2.0026 -0.5245
11756TIP3    H256760   3.593   2.545   2.368 -0.5634  0.8776  0.1630
11757TIP3   OH256761   4.507   4.954   1.316  0.2444 -0.4501 -0.1942
11757TIP3    H156762   4.544   4.981   1.400 -1.1486 -0.6614  0.5015
11757TIP3    H256763   4.476   5.035   1.275  1.3206 -0.2928 -0.7066
11758TIP3   OH256764   6.478   0.274  15.686 -0.1488  0.1073  0.1595
11758TIP3    H156765   6.548   0.243  15.743  0.4050  1.6603  0.3266
11758TIP3    H256766   6.398   0.241  15.728  0.4839 -2.4365 -0.5156
11759TIP3   OH256767   1.787   2.918   2.698 -0.0356  0.2791  0.7572
11759TIP3    H156768   1.737   2.971   2.760  0.6668  0.4437  1.1818
11759TIP3    H256769   1.850   2.870   2.752  1.7031  1.6738  0.0451
11760TIP3   OH256770   1.502   4.669   3.564 -0.3709  0.1715  0.2019
11760TIP3    H156771   1.408   4.665   3.545 -0.4272 -0.8810  0.6508
11760TIP3    H256772   1.509   4.629   3.651  0.9236 -2.9234 -1.2917
11761TIP3   OH256773   0.342   2.027   4.903 -0.4733 -0.3563  0.1116
11761TIP3    H156774   0.262   2.052   4.951 -0.8098  0.2515 -0.7535
11761TIP3    H256775   0.316   1.948   4.855 -0.4673 -0.3161  0.0435
11762TIP3   OH256776   3.411   4.248  11.605 -0.0834  0.0320  0.2197
11762TIP3    H156777   3.476   4.308  11.641  0.5443 -1.1908  1.1527
11762TIP3    H256778   3.359   4.302  11.545  1.0352  1.2909  0.3655
11763TIP3   OH256779   0.197   3.147   1.366  0.0058  0.3994 -0.0426
11763TIP3    H156780   0.114   3.181   1.398  0.4196  1.2501  0.1490
11763TIP3    H256781   0.175   3.063   1.326 -1.3672  1.7677 -2.2764
11764TIP3   OH256782   4.793   1.848   3.001  0.2713 -0.4652 -0.7407
11764TIP3    H156783   4.752   1.912   2.943 -0.6377  0.4541  0.8887
11764TIP3    H256784   4.729   1.778   3.008 -1.1668  1.0327  1.9132
11765TIP3   OH256785   5.481   2.801   4.510  0.3886 -0.5249 -0.3223
11765TIP3    H156786   5.545   2.831   4.574  0.4150  0.0512 -0.6216
11765TIP3    H256787   5.465   2.877   4.453 -2.0118 -0.0338  0.9241
11766TIP3   OH256788   4.152   0.624  13.553  0.4165  0.3994 -0.1082
11766TIP3    H156789   4.237   0.663  13.572  0.4804 -0.1109  0.6704
11766TIP3    H256790   4.165   0.578  13.471  0.9243  0.2254  0.0687
11767TIP3   OH256791   4.179   0.021   1.315 -0.6706  0.1365 -0.1200
11767TIP3    H156792   4.101   0.032   1.261 -0.7495  2.1424  0.3696
11767TIP3    H256793   4.252   0.030   1.254 -0.8044  0.1381 -0.2783
11768TIP3   OH256794   4.724   6.805   1.687  0.3374  0.4792  0.5987
11768TIP3    H156795   4.712   6.711   1.674 -0.3310  0.5398  0.7735
11768TIP3    H256796   4.804   6.811   1.740  2.0974  0.1540 -1.9349
11769TIP3   OH256797   2.529   5.087  11.452 -0.1556  0.3299 -0.7913
11769TIP3    H156798   2.591   5.159  11.436  0.3592 -0.1140 -0.7873
11769TIP3    H256799   2.499   5.102  11.542  3.4508 -2.0769  0.9106
11770TIP3   OH256800   4.863   4.191   3.907  0.0274 -0.3974 -0.1798
11770TIP3    H156801   4.806   4.267   3.899  0.5831 -0.0311 -0.6960
11770TIP3    H256802   4.878   4.181   4.000  0.8707  0.8019 -0.1882
11771TIP3   OH256803   6.514   6.519   0.955  0.3329 -0.3888 -0.4889
11771TIP3    H156804   6.541   6.584   1.019  0.5608 -0.3691 -0.6025
11771TIP3    H256805   6.509   6.437   1.003 -2.7348  0.2007  0.3063
11772TIP3   OH256806   6.378   2.611   5.653 -0.1160  0.0807 -0.0473
11772TIP3    H156807   6.453   2.604   5.593 -1.2163 -0.9946 -1.3154
11772TIP3    H256808   6.304   2.635   5.597 -0.7660  1.0526  1.1928
11773TIP3   OH256809   2.884   2.510  15.937 -0.0482  0.4989 -0.2370
11773TIP3    H156810   2.880   2.602  15.912 -0.7098  0.7626  0.8343
11773TIP3    H256811   2.803   2.494  15.985 -0.6109 -1.0132 -1.6251
11774TIP3   OH256812   2.244   3.112  16.791  0.0594  0.0481 -0.2676
11774TIP3    H156813   2.170   3.145  16.741  1.5271  1.3332 -1.6693
11774TIP3    H256814   2.277   3.037  16.740 -0.4533 -0.7137  0.5093
11775TIP3   OH256815   2.951   2.666   5.959  0.8080  0.1280 -0.4914
11775TIP3    H156816   2.989   2.610   5.892  0.1578 -0.1368 -0.6388
11775TIP3    H256817   2.866   2.692   5.924 -0.9461 -2.5778  1.5726
11776TIP3   OH256818   1.323   1.183   4.996  0.1083 -0.1012  0.2236
11776TIP3    H156819   1.361   1.196   5.083  0.9808  0.6861 -0.2650
11776TIP3    H256820   1.398   1.167   4.939 -0.2188  1.9736 -0.8485
11777TIP3   OH256821   3.937   1.465   2.702 -0.3783  0.1107  0.0242
11777TIP3    H156822   3.997   1.463   2.628  1.0857 -0.1223  1.1951
11777TIP3    H256823   3.852   1.444   2.665  0.2501  0.4953 -1.6684
11778TIP3   OH256824   4.175   1.626   4.445 -0.0880 -0.2669  0.1464
11778TIP3    H156825   4.079   1.622   4.451 -0.0042 -0.4178  1.5920
11778TIP3    H256826   4.196   1.718   4.461 -0.0074 -0.1767 -0.4737
11779TIP3   OH256827   3.806   2.287  15.430  0.0307  0.6706  0.7923
11779TIP3    H156828   3.834   2.378  15.418  0.1426  0.8044  1.9758
11779TIP3    H256829   3.887   2.239  15.446  0.0483  0.2214 -0.5844
11780TIP3   OH256830   5.251   3.014  16.480 -0.4476  0.1138  0.8013
11780TIP3    H156831   5.249   3.108  16.495  0.4601  0.4417 -0.9823
11780TIP3    H256832   5.322   3.001  16.417 -1.7863 -1.5493 -0.4365
11781TIP3   OH256833   2.735   6.778   1.676  0.1411  0.6174  0.0684
11781TIP3    H156834   2.669   6.733   1.729 -1.0925  0.6325 -1.4059
11781TIP3    H256835   2.799   6.711   1.655  0.1392  0.3870  0.7866
11782TIP3   OH256836   1.949   1.211  10.989  0.2752 -0.4287  0.3352
11782TIP3    H156837   1.901   1.259  11.057  0.2130 -1.2348  0.8673
11782TIP3    H256838   1.902   1.232  10.908  1.2612  1.7625  0.2952
11783TIP3   OH256839   0.359   0.896  12.262  0.7029  0.4464  0.2054
11783TIP3    H156840   0.410   0.927  12.337 -0.6517  1.2396  0.8195
11783TIP3    H256841   0.301   0.969  12.241  0.1055 -0.2876 -0.7448
11784TIP3   OH256842   6.545   3.416  13.604  0.4202 -0.1294 -0.5338
11784TIP3    H156843   6.625   3.450  13.644 -0.2438 -0.9775  1.5803
11784TIP3    H256844   6.574   3.372  13.524  1.9412  0.4329 -0.2962
11785TIP3   OH256845   5.737   2.974  12.229  0.0130 -0.2713  0.6959
11785TIP3    H156846   5.784   2.977  12.313  0.5325  0.7979  0.3708
11785TIP3    H256847   5.804   2.990  12.163 -0.0502 -2.8560 -0.0848
11786TIP3   OH256848   2.875   3.017  12.336 -0.1786 -0.2579  0.1172
11786TIP3    H156849   2.849   2.995  12.246 -1.1371  0.4563  0.2129
11786TIP3    H256850   2.924   3.099  12.328  0.4738 -0.6453  0.1462
11787TIP3   OH256851   6.402   0.130   6.415 -0.7536  0.3547  0.6053
11787TIP3    H156852   6.442   0.164   6.495  0.3054  0.7016 -0.0573
11787TIP3    H256853   6.354   0.204   6.379  0.1381  0.6700  0.0577
11788TIP3   OH256854   5.261   1.712   3.677 -0.1507  0.0123 -0.6154
11788TIP3    H156855   5.289   1.763   3.601  1.1702  1.8492  1.0561
11788TIP3    H256856   5.183   1.758   3.708  0.9461  0.9418  0.7986
11789TIP3   OH256857   4.411   4.190  12.849  0.6521  0.0250  0.0434
11789TIP3    H156858   4.443   4.180  12.939  1.9425 -1.5399 -0.5698
11789TIP3    H256859   4.483   4.234  12.804  1.5577 -2.4920 -1.0733
11790TIP3   OH256860   5.846   5.592  11.550  0.0082 -0.0791  0.9338
11790TIP3    H156861   5.848   5.620  11.459 -0.7966  0.6420  1.1391
11790TIP3    H256862   5.922   5.534  11.559  1.5578  1.8439  0.4655
11791TIP3   OH256863   0.120   2.412   3.324 -0.1575  0.0419 -0.0612
11791TIP3    H156864   0.047   2.442   3.269 -1.6173 -1.8492  0.7844
11791TIP3    H256865   0.140   2.324   3.292  0.5589 -0.1553  0.9052
11792TIP3   OH256866   0.889   4.071  16.548 -0.6114 -0.6813  0.3202
11792TIP3    H156867   0.803   4.053  16.510 -0.3439  0.9157 -1.1047
11792TIP3    H256868   0.885   4.163  16.574  1.0850 -0.2295 -0.9552
11793TIP3   OH256869   6.508   0.502   1.021 -0.0597 -0.1722  0.4294
11793TIP3    H156870   6.546   0.415   1.005  0.9190  0.4388 -0.6626
11793TIP3    H256871   6.454   0.490   1.099  1.3212 -1.3983  1.2332
11794TIP3   OH256872   4.852   1.682   3.781  0.2428  0.3086 -0.5286
11794TIP3    H156873   4.769   1.727   3.797  0.0734  1.7895 -4.7174
11794TIP3    H256874   4.840   1.641   3.695  3.1699 -1.1113 -0.3098
11795TIP3   OH256875   0.750   0.576   1.949 -0.2035 -0.1602 -0.7605
11795TIP3    H156876   0.725   0.665   1.975 -0.1225 -0.4473  0.3047
11795TIP3    H256877   0.668   0.534   1.924 -0.3916 -0.1282 -0.2048
11796TIP3   OH256878   0.373   0.483  11.952 -0.0254  0.0106 -0.3072
11796TIP3    H156879   0.443   0.486  12.017 -1.5697 -1.2997  1.4579
11796TIP3    H256880   0.314   0.554  11.977 -0.8392 -0.7577 -0.0266
11797TIP3   OH256881   5.660   3.304  10.492 -0.3554  0.8274  0.3225
11797TIP3    H156882   5.712   3.293  10.571  0.2946 -0.8681 -0.3089
11797TIP3    H256883   5.720   3.347  10.430 -0.4713  1.0453  0.3623
11798TIP3   OH256884   2.905   3.730  14.653  0.5908 -0.9518 -0.1020
11798TIP3    H156885   2.920   3.640  14.623 -2.6821 -1.1646 -1.3050
11798TIP3    H256886   2.945   3.785  14.586  1.2661 -1.4949 -0.1525
11799TIP3   OH256887   6.668   5.090   2.959  0.1673  0.3843  0.3327
11799TIP3    H156888   6.657   5.083   2.864 -2.6316  0.6057  0.6127
11799TIP3    H256889   6.592   5.044   2.995  0.5939  1.3059  2.4548
11800TIP3   OH256890   5.612   2.203  10.562  0.6915  0.0341 -0.4823
11800TIP3    H156891   5.698   2.191  10.604 -0.5096 -3.3083  1.2530
11800TIP3    H256892   5.554   2.225  10.635 -0.9406 -3.3353 -0.6737
11801TIP3   OH256893   1.239   6.616   0.470 -0.2211  0.9635 -0.0852
11801TIP3    H156894   1.267   6.694   0.422 -0.1898  1.8492  1.3449
11801TIP3    H256895   1.288   6.619   0.551 -1.6249  0.4578  0.7982
11802TIP3   OH256896   1.265   2.765  11.181 -0.2346  0.0061 -0.4498
11802TIP3    H156897   1.280   2.672  11.200 -1.1338 -0.1577 -0.5221
11802TIP3    H256898   1.175   2.768  11.147  0.1969  0.7467 -1.5321
11803TIP3   OH256899   5.484   1.699   4.164  0.0033 -0.2744 -0.1853
11803TIP3    H156900   5.422   1.665   4.098  1.0871  0.6506 -1.7103
11803TIP3    H256901   5.497   1.625   4.224 -1.4178 -0.9672 -0.6942
11804TIP3   OH256902   2.232   3.452   1.030  0.3420 -0.3064  0.1411
11804TIP3    H156903   2.238   3.544   1.004  1.9461 -0.4655 -0.1427
11804TIP3    H256904   2.267   3.404   0.954  0.0379 -1.1019  0.5063
11805TIP3   OH256905   5.802   5.374   4.145  0.3407  0.0911  0.4398
11805TIP3    H156906   5.816   5.444   4.209  2.1555 -0.3089  0.5014
11805TIP3    H256907   5.888   5.360   4.105 -0.4629 -0.6718 -1.0514
11806TIP3   OH256908   6.438   5.830  11.354 -0.0404 -0.1974  0.1039
11806TIP3    H156909   6.401   5.895  11.414 -0.1869 -0.0337 -0.1657
11806TIP3    H256910   6.401   5.747  11.384 -1.0715  0.0287 -0.5000
11807TIP3   OH256911   1.344   3.518  13.618  0.8838  0.6011  0.0899
11807TIP3    H156912   1.262   3.567  13.617  0.4840 -0.0510  0.5355
11807TIP3    H256913   1.371   3.519  13.710  0.4479 -0.7016  0.2423
11808TIP3   OH256914   5.890   0.964  14.151  0.1394 -0.3346  0.4433
11808TIP3    H156915   5.888   1.039  14.211 -1.1586  0.5290 -0.6418
11808TIP3    H256916   5.811   0.915  14.170  2.0764 -2.7226  2.6936
11809TIP3   OH256917   3.205   2.766  17.207 -0.0536 -0.4880 -0.6719
11809TIP3    H156918   3.199   2.677  17.172 -1.6364 -0.0633 -1.5189
11809TIP3    H256919   3.224   2.821  17.131 -0.5977  0.0873 -0.3958
11810TIP3   OH256920   5.349   2.019  16.354 -0.1668 -0.2067 -0.4510
11810TIP3    H156921   5.330   2.112  16.340  1.2916 -0.1337 -2.0384
11810TIP3    H256922   5.288   1.974  16.296 -1.0212 -0.2654  0.4765
11811TIP3   OH256923   3.044   3.621  15.801 -0.1971  0.4587 -0.4322
11811TIP3    H156924   3.116   3.558  15.796 -0.4278  0.3324 -2.8731
11811TIP3    H256925   2.967   3.572  15.771 -1.3277  0.6075  2.0881
11812TIP3   OH256926   1.431   4.946   5.008  0.6645 -0.2646 -0.1922
11812TIP3    H156927   1.518   4.905   5.006  0.0351 -1.9041  3.3356
11812TIP3    H256928   1.448   5.033   5.046  0.7957 -0.5288  0.3643
11813TIP3   OH256929   1.622   4.764  16.240  0.0177  0.4510 -0.0671
11813TIP3    H156930   1.564   4.811  16.180  1.3401  2.0693 -0.1160
11813TIP3    H256931   1.568   4.748  16.317 -1.2118 -0.2142 -1.0539
11814TIP3   OH256932   0.756   0.122  15.096 -0.5395  0.2303  1.0189
11814TIP3    H156933   0.722   0.209  15.076  0.7857  0.3583 -0.7960
11814TIP3    H256934   0.694   0.062  15.055  1.5683  0.4721 -2.6973
11815TIP3   OH256935   4.957   2.851  13.805 -0.1941  0.1483  0.1392
11815TIP3    H156936   4.877   2.804  13.780 -0.3575  1.3331 -1.7310
11815TIP3    H256937   5.022   2.783  13.818 -1.1775 -0.7634  0.3527
11816TIP3   OH256938   5.985   1.789  16.929  0.1134 -0.6294  0.2754
11816TIP3    H156939   6.066   1.743  16.907  0.0873 -0.6392  0.1993
11816TIP3    H256940   5.996   1.815  17.021 -0.0939 -1.2607  0.4827
11817TIP3   OH256941   2.888   4.918  14.670 -0.1780  0.3446  0.2323
11817TIP3    H156942   2.950   4.943  14.602 -1.5963  0.1872 -1.1344
11817TIP3    H256943   2.914   4.970  14.746  1.7845  0.0744 -0.2302
11818TIP3   OH256944   2.248   0.257   1.651 -0.6446 -0.7674  0.1134
11818TIP3    H156945   2.213   0.281   1.566 -0.9796 -2.4326 -0.2304
11818TIP3    H256946   2.195   0.307   1.714 -0.3089  0.5557 -0.6355
11819TIP3   OH256947   1.239   2.228  14.888  0.0118 -0.6430  0.2421
11819TIP3    H156948   1.203   2.313  14.861 -0.7983 -0.8603  0.6248
11819TIP3    H256949   1.162   2.171  14.897  0.4399 -1.0923  1.1346
11820TIP3   OH256950   5.546   2.029   5.115 -0.6063 -0.4926 -0.4944
11820TIP3    H156951   5.602   2.061   5.186  0.3316 -1.3718 -0.8156
11820TIP3    H256952   5.540   2.102   5.053 -0.8443  0.0318  0.1448
11821TIP3   OH256953   4.308   4.643  10.713 -0.3513 -0.2311  0.8170
11821TIP3    H156954   4.214   4.629  10.699 -0.1250  0.1484 -1.1976
11821TIP3    H256955   4.315   4.737  10.731 -0.5057 -0.5183  2.4901
11822TIP3   OH256956   0.647   0.921  10.542 -0.0521 -0.1935 -0.5515
11822TIP3    H156957   0.732   0.954  10.512  2.5161 -4.5155  1.4656
11822TIP3    H256958   0.593   0.917  10.463  2.4070  0.4387 -2.3144
11823TIP3   OH256959   5.891   5.632  13.600 -0.5623 -0.6490  0.3199
11823TIP3    H156960   5.902   5.694  13.527 -0.7019  0.0955  0.9276
11823TIP3    H256961   5.806   5.654  13.638  0.4586  0.3747  2.0437
11824TIP3   OH256962   2.355   2.359   0.956 -0.6791  0.5770  0.9721
11824TIP3    H156963   2.267   2.376   0.988 -1.0171  1.4672 -0.3850
11824TIP3    H256964   2.367   2.421   0.884 -0.3347 -2.0173 -1.2916
11825TIP3   OH256965   3.768   0.932  12.147 -0.3545 -0.4180  0.3552
11825TIP3    H156966   3.719   0.868  12.197  1.1668 -0.3398  2.0222
11825TIP3    H256967   3.827   0.881  12.092  0.2762 -0.4938  1.0811
11826TIP3   OH256968   3.457   1.221  12.465  0.3513  0.5079 -0.3393
11826TIP3    H156969   3.382   1.207  12.524 -0.3101  2.0056 -0.7973
11826TIP3    H256970   3.439   1.165  12.390  0.3026 -0.0521  0.0817
11827TIP3   OH256971   5.035   3.935   5.227  0.7514 -0.0185 -0.4352
11827TIP3    H156972   5.047   3.949   5.133 -0.3897 -1.6073 -0.8407
11827TIP3    H256973   5.124   3.935   5.263  1.3753 -1.8275 -1.8871
11828TIP3   OH256974   1.034   5.518  17.093 -0.0937  0.2101 -0.0922
11828TIP3    H156975   1.075   5.482  17.172  0.5315 -0.4304 -0.7024
11828TIP3    H256976   1.025   5.611  17.111 -0.8508 -0.0863  1.1252
11829TIP3   OH256977   3.704   4.791  13.698  0.3858 -0.3105  0.0242
11829TIP3    H156978   3.662   4.877  13.692  0.3064 -0.2529  1.1555
11829TIP3    H256979   3.702   4.756  13.609  0.4993  0.8955 -0.4533
11830TIP3   OH256980   3.018   1.890  14.181  0.4139 -0.1915 -0.1368
11830TIP3    H156981   3.018   1.956  14.112  2.3911 -0.7944 -0.7662
11830TIP3    H256982   3.021   1.807  14.134  0.0694 -0.6585  0.6685
11831TIP3   OH256983   1.326   5.826   4.303  0.0422 -0.0981  0.7779
11831TIP3    H156984   1.266   5.771   4.252 -0.6167  0.1974  1.2335
11831TIP3    H256985   1.386   5.764   4.344 -0.3686 -0.4425  0.8606
11832TIP3   OH256986   1.405   5.921   4.827  0.1349 -0.0421  0.1917
11832TIP3    H156987   1.443   5.970   4.754 -1.0741 -0.1287 -0.5170
11832TIP3    H256988   1.377   5.838   4.787  0.6833 -0.6446  1.0384
11833TIP3   OH256989   4.036   6.195  13.001  0.6541  0.2153  0.4139
11833TIP3    H156990   3.962   6.135  12.992 -0.1669  1.0696  1.3396
11833TIP3    H256991   4.093   6.153  13.065 -0.0806  0.5542  1.3130
11834TIP3   OH256992   6.424   1.429  11.662 -0.2161  0.2498  0.1512
11834TIP3    H156993   6.481   1.486  11.714  0.5172 -0.5916  0.2825
11834TIP3    H256994   6.416   1.350  11.714  1.3706 -1.0135 -1.4733
11835TIP3   OH256995   2.289   0.116  16.762  0.5452 -0.1125 -0.1934
11835TIP3    H156996   2.275   0.179  16.692  0.8423 -2.5251 -2.4835
11835TIP3    H256997   2.202   0.102  16.800  0.2715  0.7152 -0.5173
11836TIP3   OH256998   1.510   3.889   5.116 -0.4442  0.0019 -0.3315
11836TIP3    H156999   1.545   3.978   5.121  0.4191 -0.4536  2.8229
11836TIP3    H257000   1.448   3.891   5.043  2.2639  2.1937 -2.6982
11837TIP3   OH257001   2.611   4.287  14.355  0.3797 -0.3306  0.0229
11837TIP3    H157002   2.660   4.247  14.427  0.4604  0.5829  0.4858
11837TIP3    H257003   2.611   4.381  14.376  0.6265 -0.0296 -1.3011
11838TIP3   OH257004   1.269   5.180  15.802 -0.1295  0.4084 -0.2618
11838TIP3    H157005   1.305   5.246  15.861 -1.0397  0.5875  0.0987
11838TIP3    H257006   1.256   5.226  15.719 -1.1133  0.7841  0.0955
11839TIP3   OH257007   4.077   3.946  14.107  0.1548  0.2524  0.6602
11839TIP3    H157008   4.079   4.031  14.064 -2.1449  0.2116  0.4195
11839TIP3    H257009   4.044   3.886  14.040 -0.4058 -0.3992  1.5125
11840TIP3   OH257010   3.413   2.219   0.700  0.3491 -0.2632 -0.2978
11840TIP3    H157011   3.411   2.156   0.628 -0.9149 -1.3815  0.6932
11840TIP3    H257012   3.465   2.292   0.666  0.8646 -1.3295 -1.8735
11841TIP3   OH257013   5.338   4.955   1.651 -0.2751  0.0705 -0.7113
11841TIP3    H157014   5.432   4.949   1.668 -0.2770 -0.8225 -0.9720
11841TIP3    H257015   5.302   4.997   1.729  0.5851  2.1628 -1.4227
11842TIP3   OH257016   0.958   4.425  16.551  0.0460  0.6045 -0.0188
11842TIP3    H157017   0.902   4.468  16.486 -0.7371 -1.4229 -0.7288
11842TIP3    H257018   1.024   4.379  16.498  0.1602 -0.0334  0.6739
11843TIP3   OH257019   6.522   2.998   2.111  0.5321 -0.3896  0.1018
11843TIP3    H157020   6.492   3.002   2.020  3.4240 -1.3788 -0.9629
11843TIP3    H257021   6.537   3.089   2.136 -0.0987 -0.1217 -0.4873
11844TIP3   OH257022   0.856   6.155  12.940 -0.0773 -0.0302  0.2258
11844TIP3    H157023   0.938   6.109  12.924 -0.2441 -0.6783  1.2534
11844TIP3    H257024   0.797   6.089  12.976 -0.9112  0.5388 -0.0747
11845TIP3   OH257025   4.016   5.734   2.111  0.1340 -0.3302  0.4993
11845TIP3    H157026   4.034   5.640   2.115 -0.3751 -0.4627 -0.2644
11845TIP3    H257027   3.931   5.744   2.154  0.6461 -0.0881  1.4623
11846TIP3   OH257028   2.499   5.536   5.937  0.8254 -0.1540  0.2647
11846TIP3    H157029   2.458   5.612   5.896  2.1251 -0.0463 -0.8697
11846TIP3    H257030   2.583   5.568   5.970  0.2731 -0.5034  2.0861
11847TIP3   OH257031   1.223   0.551   1.520 -0.0914 -0.2004  0.4808
11847TIP3    H157032   1.207   0.505   1.437 -0.2167  0.3866  0.1784
11847TIP3    H257033   1.300   0.604   1.503 -0.6894  0.6626  0.4391
11848TIP3   OH257034   1.109   4.686   4.465  0.0289 -0.3769  0.2133
11848TIP3    H157035   1.077   4.730   4.544 -0.2171  1.6061 -0.9581
11848TIP3    H257036   1.204   4.690   4.472  0.0550  2.4888 -0.9775
11849TIP3   OH257037   2.451   1.295  13.291  0.9744  0.3370  0.0965
11849TIP3    H157038   2.449   1.382  13.331  0.7915  1.1325 -1.6140
11849TIP3    H257039   2.358   1.273  13.278  0.9806 -0.5521  1.4053
11850TIP3   OH257040   0.176   2.455   1.336 -0.3793 -0.5457 -0.3117
11850TIP3    H157041   0.244   2.446   1.269  1.3286 -1.4802  1.4815
11850TIP3    H257042   0.196   2.386   1.399 -1.9257  0.3450  1.1933
11851TIP3   OH257043   2.671   3.424   5.799  0.1979  0.1548  0.4717
11851TIP3    H157044   2.643   3.402   5.887 -0.3362  1.4035  0.6259
11851TIP3    H257045   2.594   3.462   5.757  0.1746 -1.3013 -0.8507
11852TIP3   OH257046   6.159   3.809   5.456  0.5854  0.8569 -0.2224
11852TIP3    H157047   6.180   3.846   5.371 -0.8130  0.4251 -0.7668
11852TIP3    H257048   6.087   3.863   5.489 -0.3546 -0.3108 -0.2984
11853TIP3   OH257049   4.255   3.292  14.057 -0.0040 -0.9467  0.4595
11853TIP3    H157050   4.271   3.206  14.096 -0.4792 -0.4766  1.7195
11853TIP3    H257051   4.162   3.308  14.072  0.2609  0.1444  0.9665
11854TIP3   OH257052   2.078   3.935  14.220 -0.0713 -0.1467  0.9325
11854TIP3    H157053   2.152   3.926  14.281  1.8460 -0.1153 -1.3179
11854TIP3    H257054   2.063   3.846  14.187  0.4485  0.2238 -0.3090
11855TIP3   OH257055   4.924   1.065  13.763  0.7708  0.8647 -0.2304
11855TIP3    H157056   4.866   1.124  13.812  0.5533  0.3246  0.1596
11855TIP3    H257057   4.875   1.044  13.684 -0.0709 -0.5623  0.6660
11856TIP3   OH257058   3.052   4.967  11.737 -0.3910  0.3384  0.1416
11856TIP3    H157059   3.068   4.875  11.717 -0.9078  0.1773  0.4612
11856TIP3    H257060   3.078   5.014  11.658 -1.4256 -0.1977 -0.5224
11857TIP3   OH257061   3.983   5.350  13.751  0.6756 -0.0217 -0.3617
11857TIP3    H157062   4.035   5.293  13.808  1.0897  0.8890  0.1868
11857TIP3    H257063   4.043   5.421  13.726 -0.1268  0.7300 -0.1863
11858TIP3   OH257064   3.444   3.434  16.001  0.3805 -0.3082 -0.0874
11858TIP3    H157065   3.401   3.372  15.942 -1.4315 -0.7386  1.6371
11858TIP3    H257066   3.383   3.507  16.008  0.0720 -0.7342  2.0593
11859TIP3   OH257067   4.233   6.560   2.311  0.9772 -0.1085 -0.1277
11859TIP3    H157068   4.225   6.643   2.265 -0.0490 -0.5238 -0.7100
11859TIP3    H257069   4.317   6.566   2.358  0.0167  2.0052  1.3890
11860TIP3   OH257070   6.101   3.592   4.469 -0.1580 -0.1726  0.3601
11860TIP3    H157071   6.112   3.547   4.553  1.0052 -0.7877 -0.1064
11860TIP3    H257072   6.100   3.685   4.492 -0.0893 -0.3456  1.0867
11861TIP3   OH257073   2.933   0.333   1.990  0.3365 -0.2217 -0.5092
11861TIP3    H157074   2.884   0.388   2.051  0.4228  0.2961 -0.9092
11861TIP3    H257075   2.867   0.303   1.927  0.4173 -0.0026 -0.7012
11862TIP3   OH257076   1.434   4.776  17.149 -0.1238  0.2185 -0.1014
11862TIP3    H157077   1.420   4.829  17.227 -0.7737  0.0030 -0.0727
11862TIP3    H257078   1.408   4.833  17.077  0.3197  0.3589 -0.1531
11863TIP3   OH257079   4.761   3.431  12.457  0.0607 -0.4994  0.1088
11863TIP3    H157080   4.685   3.373  12.461  0.3758 -1.2279 -2.8705
11863TIP3    H257081   4.756   3.470  12.369  0.4916  3.1375  1.6082
11864TIP3   OH257082   3.793   0.669   1.539  0.1108 -0.4408  0.2953
11864TIP3    H157083   3.871   0.715   1.508 -1.0244  1.2091 -0.1816
11864TIP3    H257084   3.766   0.616   1.464  0.2947 -0.3880  0.1894
11865TIP3   OH257085   3.320   5.299   5.267  0.2429  0.2609 -0.1020
11865TIP3    H157086   3.246   5.279   5.325 -0.1526  1.3273 -0.2073
11865TIP3    H257087   3.303   5.248   5.188  0.7061 -1.0875  0.6606
11866TIP3   OH257088   6.179   3.207  16.833 -0.8346 -0.2424  0.2553
11866TIP3    H157089   6.173   3.212  16.929 -0.9730 -0.4080  0.2544
11866TIP3    H257090   6.183   3.113  16.815  1.1622 -0.1693  0.2217
11867TIP3   OH257091   3.965   3.398  11.823  0.3892 -0.3030  1.2244
11867TIP3    H157092   3.873   3.421  11.834  0.1365  0.0841 -1.3694
11867TIP3    H257093   4.013   3.473  11.858 -0.3564  0.9825 -0.4004
11868TIP3   OH257094   2.774   2.250  14.417 -0.0668  0.1463 -0.1194
11868TIP3    H157095   2.711   2.178  14.429  0.5714 -0.5227 -0.7188
11868TIP3    H257096   2.751   2.288  14.332 -1.9440  2.2168  1.2808
11869TIP3   OH257097   6.785   1.809   3.521  0.3166 -0.1386  0.0766
11869TIP3    H157098   6.845   1.822   3.594 -0.4141 -0.3954  0.7329
11869TIP3    H257099   6.794   1.888   3.468  1.1722 -0.1437  0.2144
11870TIP3   OH257100   5.305   0.242  14.015  0.8746  0.6077 -0.0541
11870TIP3    H157101   5.291   0.309  13.949  1.1646  0.2223 -0.5182
11870TIP3    H257102   5.377   0.188  13.979 -1.0353 -1.4670 -0.8944
11871TIP3   OH257103   5.250   4.444  16.360 -0.6676  0.2690 -0.1015
11871TIP3    H157104   5.184   4.390  16.405 -0.0387 -0.8087 -0.4581
11871TIP3    H257105   5.242   4.420  16.268  0.0457  0.3319 -0.1821
11872TIP3   OH257106   4.469   5.534  12.121  0.1898  0.1814 -0.0875
11872TIP3    H157107   4.447   5.581  12.041 -0.7700  0.4689  0.3350
11872TIP3    H257108   4.498   5.603  12.181  0.9163 -0.0344 -0.1900
11873TIP3   OH257109   6.569   0.236  17.166 -0.7595 -0.0453 -0.1534
11873TIP3    H157110   6.474   0.232  17.156 -0.5765 -1.2645 -1.6416
11873TIP3    H257111   6.602   0.222  17.077  0.8061  0.5745  0.3235
11874TIP3   OH257112   2.167   4.003  10.562  0.1580  0.1568 -0.5167
11874TIP3    H157113   2.191   3.911  10.563 -1.3012 -0.2366 -1.1317
11874TIP3    H257114   2.080   4.006  10.601 -0.2707  1.1375 -1.5068
11875TIP3   OH257115   4.262   5.433  17.285  0.0455  0.0145  0.3504
11875TIP3    H157116   4.272   5.526  17.264 -1.5778  0.2964  0.7455
11875TIP3    H257117   4.346   5.393  17.260  0.1601  1.2912 -1.3660
11876TIP3   OH257118   4.091   2.550   5.619  0.6356  0.1960  0.2476
11876TIP3    H157119   4.028   2.547   5.547  0.4954 -0.8130  0.4093
11876TIP3    H257120   4.087   2.641   5.650 -2.9742 -0.5355  2.2178
11877TIP3   OH257121   0.181   1.959  16.079 -0.1386  0.2990  0.7487
11877TIP3    H157122   0.137   1.898  16.020 -1.9945 -0.5096  2.9034
11877TIP3    H257123   0.123   1.965  16.156  2.3276  1.1080  2.6197
11878TIP3   OH257124   6.259   4.847  13.079  0.3582  0.1591  0.6874
11878TIP3    H157125   6.298   4.925  13.041 -0.9751  1.4371  1.8486
11878TIP3    H257126   6.236   4.792  13.004 -0.2603  1.6662 -0.2447
11879TIP3   OH257127   5.829   2.625  13.312 -0.4534 -0.2145  0.0789
11879TIP3    H157128   5.752   2.641  13.257  0.4028  3.1295 -0.2331
11879TIP3    H257129   5.809   2.668  13.395  0.2471 -1.1374  0.7429
11880TIP3   OH257130   1.291   5.878   1.743  0.3718  0.6339  0.3856
11880TIP3    H157131   1.229   5.867   1.672  0.3776  0.0895  0.4686
11880TIP3    H257132   1.375   5.848   1.707  0.3699  0.3357  0.6288
11881TIP3   OH257133   4.270   6.255   3.912 -0.0898  0.4406 -0.0234
11881TIP3    H157134   4.221   6.192   3.859  1.7634 -1.7155  0.7494
11881TIP3    H257135   4.329   6.297   3.850 -0.6246  0.7175 -0.3541
11882TIP3   OH257136   2.257   0.377   2.057 -0.0108  0.5644  0.0087
11882TIP3    H157137   2.341   0.417   2.034 -0.2674  0.2076 -1.5354
11882TIP3    H257138   2.202   0.389   1.980 -1.0489 -0.1436  0.6278
11883TIP3   OH257139   1.795   1.177   4.680  0.1695  1.2888  0.3287
11883TIP3    H157140   1.882   1.150   4.650 -0.3803  0.1969 -0.3296
11883TIP3    H257141   1.807   1.199   4.772  1.0645  0.6985  0.3634
11884TIP3   OH257142   1.476   5.420   2.633  0.2052 -0.3304 -0.5092
11884TIP3    H157143   1.536   5.357   2.593 -0.3990 -2.6542  2.0632
11884TIP3    H257144   1.396   5.414   2.581  1.0548  0.3243 -1.9130
11885TIP3   OH257145   4.304   3.204   4.954  0.2771  0.0392 -0.4850
11885TIP3    H157146   4.275   3.167   4.870  1.2302  0.8008 -1.1665
11885TIP3    H257147   4.398   3.216   4.943  0.6934 -1.4166  1.3149
11886TIP3   OH257148   4.333   6.008   2.769 -0.2008 -0.4142  0.1049
11886TIP3    H157149   4.256   6.004   2.712  0.1062  1.5830 -0.4921
11886TIP3    H257150   4.322   6.088   2.820  1.8025  0.2988 -0.5024
11887TIP3   OH257151   1.617   4.484  13.035  0.0305  0.2649 -0.0599
11887TIP3    H157152   1.614   4.395  13.070  0.3517  0.2385 -0.0960
11887TIP3    H257153   1.542   4.528  13.075 -0.9060 -0.3969 -1.0681
11888TIP3   OH257154   2.642   3.040  14.039 -0.1187 -0.4964 -0.3457
11888TIP3    H157155   2.726   2.995  14.027  0.0004  0.2089 -2.3328
11888TIP3    H257156   2.662   3.132  14.022 -1.1852 -0.2501 -0.2926
11889TIP3   OH257157   6.076   4.545  16.228  0.3402  0.1812 -0.2149
11889TIP3    H157158   6.111   4.468  16.183 -2.7355 -0.8889 -0.8881
11889TIP3    H257159   6.069   4.612  16.160 -0.5182 -0.1600 -0.4700
11890TIP3   OH257160   5.188   4.534  13.869 -0.3923  0.1778 -0.1990
11890TIP3    H157161   5.258   4.469  13.874 -2.4991 -2.1759 -0.6205
11890TIP3    H257162   5.144   4.529  13.954  0.8510  2.7851  0.6783
11891TIP3   OH257163   2.672   4.314   0.104 -0.2787  0.1880  0.0432
11891TIP3    H157164   2.622   4.332   0.183 -0.3376  0.7815 -0.1254
11891TIP3    H257165   2.608   4.319   0.033 -0.9259 -3.7401  0.2504
11892TIP3   OH257166   5.453   0.362  16.570  0.1557  0.1639 -0.0705
11892TIP3    H157167   5.539   0.323  16.553  0.2343  0.2106  0.2198
11892TIP3    H257168   5.421   0.317  16.648 -0.6133 -0.6997 -0.8728
11893TIP3   OH257169   5.697   3.727  12.941 -0.2805 -0.7067 -0.1442
11893TIP3    H157170   5.661   3.815  12.932  2.0793  0.3418  0.4763
11893TIP3    H257171   5.638   3.672  12.889 -1.6679  1.2344 -0.6860
11894TIP3   OH257172   3.534   6.595   2.679  0.2205  0.0777  0.2557
11894TIP3    H157173   3.521   6.640   2.595  1.6957 -0.2618 -0.1636
11894TIP3    H257174   3.463   6.628   2.734 -1.4660 -0.5279 -1.4518
11895TIP3   OH257175   4.211   5.324  12.373  0.3087  0.4507  0.4361
11895TIP3    H157176   4.128   5.354  12.408  0.6468  1.8759  0.0690
11895TIP3    H257177   4.231   5.244  12.422 -2.2698 -1.0786 -0.8925
11896TIP3   OH257178   4.533   1.098   4.508  0.0097 -0.5364  0.2588
11896TIP3    H157179   4.553   1.024   4.451  1.0764  0.1918 -0.3350
11896TIP3    H257180   4.500   1.058   4.588  0.3400 -1.6438 -0.1406
11897TIP3   OH257181   5.021   3.284  15.362 -0.6533  0.6819 -0.5266
11897TIP3    H157182   4.943   3.263  15.414  0.2976 -1.3817  0.1023
11897TIP3    H257183   5.022   3.220  15.292  2.0465 -1.2092  1.1505
11898TIP3   OH257184   4.848   0.725   0.033 -0.5081 -0.1504 -0.0090
11898TIP3    H157185   4.886   0.648   0.075  0.3075 -0.6344 -1.5707
11898TIP3    H257186   4.755   0.705   0.024 -0.3268 -0.8879 -0.2451
11899TIP3   OH257187   4.065   6.807   4.381 -0.1359 -0.0714 -0.6425
11899TIP3    H157188   4.092   6.888   4.337  0.2182 -0.9711 -2.0828
11899TIP3    H257189   4.136   6.745   4.363 -0.4407 -0.7325  0.3984
11900TIP3   OH257190   6.436   4.521  14.813 -0.7264  0.0024  0.5829
11900TIP3    H157191   6.487   4.601  14.803  0.3390 -0.5730  1.2834
11900TIP3    H257192   6.485   4.469  14.877 -1.8723 -0.8263  0.8178
11901TIP3   OH257193   3.991   5.485  14.424 -0.3800 -0.1314  0.1766
11901TIP3    H157194   3.903   5.460  14.454 -0.6365 -1.1843 -1.3541
11901TIP3    H257195   4.011   5.421  14.356  2.1019 -0.6414  1.3548
11902TIP3   OH257196   3.964   4.725  10.445 -0.2984 -0.0044  0.3824
11902TIP3    H157197   3.883   4.709  10.493 -1.2703 -1.3025 -1.6529
11902TIP3    H257198   4.009   4.641  10.445  0.2762  0.2969  0.0689
11903TIP3   OH257199   6.285   0.204  17.172  0.3271 -0.0992 -0.0238
11903TIP3    H157200   6.223   0.275  17.189  0.5113  0.0018  0.2420
11903TIP3    H257201   6.232   0.131  17.142  0.1062  0.0587 -0.0145
11904TIP3   OH257202   4.328   3.606   3.878  0.3457 -0.5406  0.3700
11904TIP3    H157203   4.330   3.678   3.815 -0.8183 -0.0565  0.8618
11904TIP3    H257204   4.358   3.645   3.960 -0.5053 -0.5379  0.6909
11905TIP3   OH257205   6.069   1.604  15.213  0.0162 -0.1309  0.0453
11905TIP3    H157206   6.160   1.598  15.244  0.1713 -0.8650 -0.5465
11905TIP3    H257207   6.076   1.638  15.124 -0.3539  0.7803  0.3665
11906TIP3   OH257208   2.787   6.069  14.633  0.2044  0.6161  0.0819
11906TIP3    H157209   2.854   6.116  14.583  0.7149 -1.6866 -1.4886
11906TIP3    H257210   2.725   6.038  14.566 -0.0824 -0.9518  1.0402
11907TIP3   OH257211   1.918   4.038  12.343 -0.2520 -0.2710  0.0062
11907TIP3    H157212   1.836   4.058  12.298 -1.2009 -1.2712  1.2550
11907TIP3    H257213   1.919   4.098  12.418  0.1516 -0.2696  0.0008
11908TIP3   OH257214   2.574   0.389   0.382  0.1411  0.5485  0.0349
11908TIP3    H157215   2.493   0.366   0.337  1.1888 -1.6968 -0.8085
11908TIP3    H257216   2.624   0.307   0.384  2.2507  1.8106  0.8057
11909TIP3   OH257217   1.184   2.252  11.121  0.2302 -0.6995 -0.4008
11909TIP3    H157218   1.234   2.215  11.048  0.3515  0.0391 -0.6940
11909TIP3    H257219   1.170   2.344  11.097  0.5620 -0.3662  0.6626
11910TIP3   OH257220   1.756   3.853   0.571 -0.2105 -0.1618  0.0386
11910TIP3    H157221   1.688   3.824   0.632 -1.5790 -0.0594 -1.4155
11910TIP3    H257222   1.721   3.833   0.484  0.7536  1.6905 -0.8050
11911TIP3   OH257223   1.408   1.496   1.649 -0.2065 -0.2603 -0.4620
11911TIP3    H157224   1.420   1.413   1.603 -0.0058 -1.3959  1.5917
11911TIP3    H257225   1.321   1.527   1.621 -0.0231 -0.8536 -1.7029
11912TIP3   OH257226   3.210   6.016   1.177  0.1485 -0.2134 -0.2731
11912TIP3    H157227   3.258   5.997   1.257 -0.2916  1.1200  0.3209
11912TIP3    H257228   3.135   5.957   1.179  1.5480 -2.0722 -1.0423
11913TIP3   OH257229   6.777   6.513   1.894  0.0488  0.6802  0.3191
11913TIP3    H157230   6.810   6.589   1.846  2.3296 -0.7124 -0.3895
11913TIP3    H257231   6.761   6.447   1.827 -1.0463  0.2116  1.0281
11914TIP3   OH257232   4.544   0.884  14.233 -0.1837 -0.0020  0.1759
11914TIP3    H157233   4.570   0.933  14.311 -1.1375 -1.8520  1.6991
11914TIP3    H257234   4.624   0.875  14.183  1.0746 -1.2354  2.3320
11915TIP3   OH257235   2.798   1.077  13.943  0.5695 -0.0764  0.5473
11915TIP3    H157236   2.760   1.165  13.939  0.1269 -0.2869 -0.0836
11915TIP3    H257237   2.888   1.091  13.970  0.6285  0.6162  0.0241
11916TIP3   OH257238   4.570   4.636  11.738 -0.1689 -0.1183 -0.1988
11916TIP3    H157239   4.554   4.711  11.681 -0.2542  0.5149  0.6428
11916TIP3    H257240   4.664   4.620  11.733 -0.4805 -1.4796 -2.2436
11917TIP3   OH257241   2.134   4.227   1.062  0.0571  0.0199 -0.1446
11917TIP3    H157242   2.165   4.143   1.095  2.0072  0.4328 -0.8683
11917TIP3    H257243   2.099   4.208   0.975 -0.4357 -0.2206  0.1093
11918TIP3   OH257244   4.726   0.765   5.062  0.2167 -0.1210  0.3100
11918TIP3    H157245   4.659   0.785   4.997  0.2759  0.7807  0.5281
11918TIP3    H257246   4.695   0.684   5.103  0.0648 -0.5811 -0.6754
11919TIP3   OH257247   6.233   2.196   2.799  0.6047  0.2004  0.9204
11919TIP3    H157248   6.196   2.136   2.734  1.5632 -0.6541  1.1595
11919TIP3    H257249   6.283   2.140   2.858 -1.4637  0.7893  3.2901
11920TIP3   OH257250   4.592   3.794  16.180  0.2134 -0.0475 -0.1286
11920TIP3    H157251   4.642   3.838  16.249 -1.9262 -1.4209  2.4165
11920TIP3    H257252   4.621   3.702  16.184  0.2392 -0.0981 -1.2399
11921TIP3   OH257253   6.026   5.846   1.990 -0.4467 -0.5144 -0.4175
11921TIP3    H157254   6.112   5.874   2.021 -0.3977 -0.1713 -0.8509
11921TIP3    H257255   6.008   5.764   2.036 -0.8138  0.4936  1.2733
11922TIP3   OH257256   6.628   5.722   2.679  0.0856 -0.1295  0.1903
11922TIP3    H157257   6.649   5.806   2.639 -0.0084 -0.6425 -0.9506
11922TIP3    H257258   6.613   5.663   2.605 -1.2956 -0.7910  0.9841
11923TIP3   OH257259   6.633   0.475   4.842 -0.1247 -0.1284  1.1102
11923TIP3    H157260   6.702   0.480   4.777 -0.0998 -0.8754  1.0762
11923TIP3    H257261   6.568   0.416   4.804 -0.7772  0.5536  1.1463
11924TIP3   OH257262   2.571   2.819   0.024 -0.1033  0.0188 -0.0879
11924TIP3    H157263   2.533   2.906   0.010 -2.2655 -1.0005 -0.7344
11924TIP3    H257264   2.541   2.794   0.112  0.3152 -0.1618  0.0019
11925TIP3   OH257265   3.718   1.646  17.037 -0.0012 -0.0210  0.1988
11925TIP3    H157266   3.762   1.694  17.108  0.0469  1.0987 -0.5762
11925TIP3    H257267   3.627   1.677  17.041 -0.0813 -0.2307  0.0013
11926TIP3   OH257268   3.924   3.113   3.982  0.3380  0.3581 -0.0606
11926TIP3    H157269   3.916   3.149   3.894  0.6733 -0.8747 -0.5939
11926TIP3    H257270   3.928   3.191   4.039 -2.2679  1.1792 -0.8986
11927TIP3   OH257271   2.639   0.050   5.111 -0.0140 -0.3334  0.1971
11927TIP3    H157272   2.550   0.062   5.078 -0.6661 -0.2533  1.9059
11927TIP3    H257273   2.681  -0.010   5.049 -0.5921  1.2277 -1.7646
11928TIP3   OH257274   2.454   1.907  16.934 -0.6144 -0.0138 -0.1553
11928TIP3    H157275   2.457   1.966  16.858  0.1269 -1.6039 -1.3802
11928TIP3    H257276   2.465   1.820  16.897 -1.8641 -0.9449  1.6386
11929TIP3   OH257277   6.755   4.374  12.689  0.1544 -0.0338 -0.5805
11929TIP3    H157278   6.662   4.369  12.713  0.3128 -2.1650 -0.3539
11929TIP3    H257279   6.754   4.389  12.594 -0.4130  3.4651 -0.1088
11930TIP3   OH257280   5.082   4.158   1.642  0.4792 -0.1168 -0.5348
11930TIP3    H157281   5.062   4.165   1.549  0.2346 -0.3570 -0.5001
11930TIP3    H257282   5.174   4.184   1.648  0.6267 -0.5494 -0.9080
11931TIP3   OH257283   2.461   2.491  13.692 -0.1355 -0.1109  0.1207
11931TIP3    H157284   2.543   2.535  13.716 -0.7839  0.9006  0.5434
11931TIP3    H257285   2.396   2.561  13.689 -0.6763 -0.6569 -1.8010
11932TIP3   OH257286   5.694   2.979  13.300  0.0840  0.0307 -0.3959
11932TIP3    H157287   5.623   2.932  13.345  0.3653 -0.3177 -0.3173
11932TIP3    H257288   5.659   2.997  13.213  0.8082 -2.3287 -1.2083
11933TIP3   OH257289   1.269   4.464  16.497  0.2826  0.3629  0.2202
11933TIP3    H157290   1.239   4.429  16.581 -1.0727  0.2761 -0.2908
11933TIP3    H257291   1.245   4.398  16.433  0.1973  0.9724 -0.3879
11934TIP3   OH257292   4.172   4.286  10.673  0.2935  0.2773  0.3656
11934TIP3    H157293   4.139   4.326  10.753 -1.7397  1.2237 -0.9175
11934TIP3    H257294   4.211   4.203  10.702 -1.2617  0.1526  2.1821
11935TIP3   OH257295   3.721   5.607  11.655  0.0061  0.5812  0.6565
11935TIP3    H157296   3.746   5.647  11.572 -0.4922  0.8672  0.6425
11935TIP3    H257297   3.628   5.629  11.666  0.2657  1.2082  1.6653
11936TIP3   OH257298   0.799   3.660  11.850  0.5645 -0.2355 -0.2691
11936TIP3    H157299   0.825   3.707  11.930 -0.6276  0.3706 -0.2183
11936TIP3    H257300   0.746   3.724  11.802 -1.2234 -1.5770 -0.1236
11937TIP3   OH257301   2.285   4.593   5.997  0.2220  0.7919  0.0818
11937TIP3    H157302   2.245   4.665   6.045 -0.3659  0.7918 -0.3967
11937TIP3    H257303   2.306   4.528   6.063 -0.9667  0.6130  0.2830
11938TIP3   OH257304   5.465   1.009  14.139  0.4447  0.6828  0.4875
11938TIP3    H157305   5.417   0.950  14.081  3.0355 -2.0060  1.0071
11938TIP3    H257306   5.471   1.091  14.090 -1.0394 -0.2197 -1.2659
11939TIP3   OH257307   5.342   6.319   3.944  0.2675  0.1958  0.1384
11939TIP3    H157308   5.329   6.245   3.884 -0.3781  0.1030  0.3938
11939TIP3    H257309   5.278   6.305   4.014 -1.1159  1.9437 -0.7339
11940TIP3   OH257310   3.016   0.311   2.622  0.3368 -0.3303  0.1584
11940TIP3    H157311   3.004   0.387   2.566  1.6634 -0.3662 -0.2012
11940TIP3    H257312   3.060   0.344   2.700  0.1121 -0.5821  0.3966
11941TIP3   OH257313   5.537   3.778  14.517 -0.6548 -0.1224  0.3145
11941TIP3    H157314   5.600   3.814  14.580 -0.9590  1.3109 -0.1821
11941TIP3    H257315   5.591   3.738  14.450 -0.3185 -1.3438  1.2969
11942TIP3   OH257316   3.657   1.627   4.931  0.4626  0.2274 -0.3481
11942TIP3    H157317   3.566   1.629   4.962  0.6766 -1.6229  0.4698
11942TIP3    H257318   3.682   1.535   4.938  2.5567  0.8067 -0.1329
11943TIP3   OH257319   0.791   6.019   4.961 -0.4557  0.4831 -0.1366
11943TIP3    H157320   0.765   6.054   5.046  1.6459 -0.1114  0.7769
11943TIP3    H257321   0.770   5.926   4.965 -2.9243  0.9412 -1.3299
11944TIP3   OH257322   5.980   2.565  12.060 -0.5102  0.0837 -0.2411
11944TIP3    H157323   6.013   2.486  12.102 -2.0955  1.7202  4.2885
11944TIP3    H257324   5.890   2.544  12.036 -0.7845  0.3531  0.5433
11945TIP3   OH257325   1.025   3.032  10.614  0.1800 -0.9044  0.1605
11945TIP3    H157326   0.957   3.068  10.557 -1.1531  1.0036  2.8027
11945TIP3    H257327   1.101   3.088  10.599 -0.6947  0.6901  1.4209
11946TIP3   OH257328   6.069   2.000   2.271 -0.1456 -0.0194  0.6900
11946TIP3    H157329   6.145   1.945   2.290 -1.5082 -1.5754  1.7725
11946TIP3    H257330   6.099   2.089   2.288  0.9541 -0.7525  2.8212
11947TIP3   OH257331   2.846   3.666   1.473  0.4982 -0.1807 -0.1296
11947TIP3    H157332   2.925   3.687   1.421  1.1599 -0.3299  0.8067
11947TIP3    H257333   2.812   3.752   1.499 -0.4856 -0.0506 -1.7352
11948TIP3   OH257334   5.751   4.502   1.079 -0.0741 -0.0525  0.3738
11948TIP3    H157335   5.790   4.551   1.007  1.4349 -0.2619  1.0235
11948TIP3    H257336   5.706   4.569   1.131  2.2322  0.7603  1.4245
11949TIP3   OH257337   4.753   0.994  13.559  0.1037 -0.2306 -0.1369
11949TIP3    H157338   4.736   0.923  13.497 -0.3428 -0.5868  0.3871
11949TIP3    H257339   4.712   1.071  13.519 -1.8001 -0.8422  0.5788
11950TIP3   OH257340   6.626   2.672  13.810 -0.1406  0.2786 -0.6046
11950TIP3    H157341   6.558   2.660  13.744 -0.0655 -0.1841 -0.5983
11950TIP3    H257342   6.649   2.764  13.804 -0.0597  0.2140 -1.2962
11951TIP3   OH257343   1.510   5.208   6.209 -0.5576  0.4596 -0.2182
11951TIP3    H157344   1.486   5.224   6.301 -0.0188 -1.0533  0.2053
11951TIP3    H257345   1.574   5.137   6.213 -0.2805  0.6077 -1.7549
11952TIP3   OH257346   2.157   2.103  16.817 -0.1112 -0.1858 -0.9769
11952TIP3    H157347   2.062   2.111  16.809 -0.2595 -1.1565 -0.1977
11952TIP3    H257348   2.188   2.193  16.828 -0.9525  0.1071 -1.0154
11953TIP3   OH257349   3.256   4.787  15.375  0.5630 -0.1681  0.2131
11953TIP3    H157350   3.305   4.869  15.366 -3.0599  2.0080 -0.6129
11953TIP3    H257351   3.273   4.740  15.294  2.2964 -0.0557  0.4898
11954TIP3   OH257352   0.710   4.600   2.628 -0.5472 -0.0906 -0.4960
11954TIP3    H157353   0.745   4.616   2.716 -0.0454  1.1991 -0.9057
11954TIP3    H257354   0.719   4.685   2.584  0.2807 -1.0111 -2.1602
11955TIP3   OH257355   3.748   5.092   1.711  0.0352 -0.1806  0.9661
11955TIP3    H157356   3.767   5.166   1.769  1.4490  0.3900 -0.1673
11955TIP3    H257357   3.692   5.129   1.642 -0.3385 -0.4806  1.1061
11956TIP3   OH257358   1.933   2.654   1.877 -0.1892 -0.4348 -0.4970
11956TIP3    H157359   1.995   2.594   1.834  3.1501  1.1552  1.8182
11956TIP3    H257360   1.924   2.727   1.816  0.3538 -0.6083 -0.7889
11957TIP3   OH257361   4.106   3.005   0.717 -0.0053 -0.3649 -0.8647
11957TIP3    H157362   4.196   2.975   0.702  0.3901 -0.1678  1.0360
11957TIP3    H257363   4.051   2.934   0.683  0.9091 -2.6887  2.2844
11958TIP3   OH257364   6.202   0.725   2.572  0.1077 -0.1770  0.2590
11958TIP3    H157365   6.168   0.650   2.523  0.0328  0.7006 -1.0736
11958TIP3    H257366   6.163   0.717   2.659 -2.6516  0.1895 -0.8862
11959TIP3   OH257367   3.862   5.674   6.061  0.9339 -0.3149 -0.1544
11959TIP3    H157368   3.786   5.621   6.040 -0.4910  2.0361 -1.1579
11959TIP3    H257369   3.894   5.639   6.144 -1.4745 -1.0811  0.4805
11960TIP3   OH257370   4.885   0.367   5.566  0.0893  0.0684 -0.0691
11960TIP3    H157371   4.958   0.391   5.509 -0.1782 -0.4654 -0.6407
11960TIP3    H257372   4.903   0.276   5.591 -0.2537  0.0118 -0.0249
11961TIP3   OH257373   3.787   5.762   3.658 -0.9562 -0.0332  0.4310
11961TIP3    H157374   3.716   5.715   3.700  0.9141 -0.5677  3.1553
11961TIP3    H257375   3.840   5.796   3.730  0.3813  2.1704 -1.4990
11962TIP3   OH257376   1.004   6.670  11.781  0.5425 -0.5713 -0.3783
11962TIP3    H157377   1.032   6.678  11.690 -0.8157 -0.0256 -0.7599
11962TIP3    H257378   0.933   6.606  11.778  1.4804 -1.6782  0.5212
11963TIP3   OH257379   6.238   2.853   1.332  0.7124 -0.3755  0.3789
11963TIP3    H157380   6.214   2.766   1.365  0.3836 -0.6099 -0.4662
11963TIP3    H257381   6.332   2.858   1.344  0.6382 -0.5910  1.0513
11964TIP3   OH257382   0.432   0.585   4.576 -0.1158  0.2788  0.0167
11964TIP3    H157383   0.434   0.637   4.495  1.1260 -0.5719 -0.4998
11964TIP3    H257384   0.451   0.496   4.548 -2.5714 -0.5364  0.8675
11965TIP3   OH257385   5.187   0.193  11.267 -0.3166  0.3996 -0.2057
11965TIP3    H157386   5.257   0.152  11.318 -0.2867  0.7341  0.0221
11965TIP3    H257387   5.228   0.215  11.183 -0.7398 -1.4388 -0.9054
11966TIP3   OH257388   0.332   5.396  10.104 -0.0556 -0.3604  0.5787
11966TIP3    H157389   0.347   5.305  10.132  1.4533 -0.5994 -0.9459
11966TIP3    H257390   0.420   5.432  10.092 -0.6443  1.3431  1.2307
11967TIP3   OH257391   1.217   6.500  14.237  0.0030  0.1758  0.8490
11967TIP3    H157392   1.293   6.489  14.294  2.0502  1.2031 -1.5721
11967TIP3    H257393   1.207   6.595  14.228 -1.4965  0.0551  1.0112
11968TIP3   OH257394   5.723   5.976  12.912  0.4111 -0.1093  0.2283
11968TIP3    H157395   5.649   5.915  12.911  1.4278 -1.3637 -1.2336
11968TIP3    H257396   5.693   6.051  12.861  0.2458 -0.7790 -0.6853
11969TIP3   OH257397   2.627   6.036  16.689 -0.3418 -0.1450  0.2366
11969TIP3    H157398   2.713   6.072  16.710  0.2764 -0.6187 -1.4219
11969TIP3    H257399   2.616   6.053  16.595 -2.6288  1.1133  0.6758
11970TIP3   OH257400   6.164   3.272   3.138 -0.1330 -0.0043  0.2591
11970TIP3    H157401   6.135   3.251   3.227  0.3594 -0.6753  0.2711
11970TIP3    H257402   6.091   3.247   3.082  0.5720 -2.1730  0.2393
11971TIP3   OH257403   5.983   2.360   2.436 -0.3130  0.4533  0.0545
11971TIP3    H157404   5.973   2.265   2.444  1.0907  0.1131 -1.8844
11971TIP3    H257405   6.072   2.371   2.401 -1.0579  2.4101 -1.2450
11972TIP3   OH257406   5.856   1.318   1.024 -0.3555 -0.2308 -0.6554
11972TIP3    H157407   5.840   1.271   0.943  1.0339 -1.9605  0.0319
11972TIP3    H257408   5.945   1.294   1.049 -1.2011 -0.7391  2.0190
11973TIP3   OH257409   3.420   3.070   3.923 -0.2247  0.1998 -0.0551
11973TIP3    H157410   3.367   3.088   4.001 -1.1273 -0.0523 -0.6063
11973TIP3    H257411   3.508   3.056   3.958 -0.6477 -0.0850  0.9513
11974TIP3   OH257412   3.514   1.471  14.136  0.5490 -0.4114  0.5552
11974TIP3    H157413   3.494   1.411  14.064  0.9294  0.5227 -0.3365
11974TIP3    H257414   3.481   1.556  14.106 -0.0595 -0.1770  1.8401
11975TIP3   OH257415   0.323   2.742   1.718 -0.0949  0.0274  0.1013
11975TIP3    H157416   0.356   2.798   1.648  0.3688 -0.0668  0.2436
11975TIP3    H257417   0.269   2.677   1.674 -0.0374  0.1425 -0.1382
11976TIP3   OH257418   0.025   5.564   6.448  0.4459 -0.5166  0.2979
11976TIP3    H157419  -0.046   5.531   6.392 -0.7240  0.4398  1.1826
11976TIP3    H257420   0.005   5.657   6.458  1.5695 -0.3421  0.9557
11977TIP3   OH257421   3.094   2.985  16.944  0.5005  0.2827  0.6447
11977TIP3    H157422   3.111   2.893  16.926 -0.5389  0.2368 -0.1541
11977TIP3    H257423   3.012   3.004  16.898  0.3800  1.4440  1.3144
11978TIP3   OH257424   6.483   0.293  13.252  0.0233 -0.4403 -0.0232
11978TIP3    H157425   6.391   0.304  13.274 -0.7298 -1.8368 -2.4188
11978TIP3    H257426   6.490   0.323  13.161  1.5616 -2.0673 -0.4625
11979TIP3   OH257427   4.714   4.190   1.070  0.0643 -0.0442 -0.2508
11979TIP3    H157428   4.778   4.130   1.032 -0.3317 -0.4549 -0.2778
11979TIP3    H257429   4.633   4.171   1.022 -0.6816 -1.2568  1.4481
11980TIP3   OH257430   6.267   2.939  16.212  0.2104  0.0506 -0.5454
11980TIP3    H157431   6.306   2.971  16.293  0.5035 -2.0094  0.1532
11980TIP3    H257432   6.223   3.016  16.174  1.2439  1.3547  0.8459
11981TIP3   OH257433   2.310   3.376   3.520  0.4019 -0.0349  0.0465
11981TIP3    H157434   2.390   3.345   3.477 -0.1853  0.9873 -1.8660
11981TIP3    H257435   2.327   3.468   3.539 -1.0935  0.7806 -2.3835
11982TIP3   OH257436   5.284   4.357   1.649 -0.3622  0.6999 -0.1344
11982TIP3    H157437   5.229   4.419   1.697 -0.6966  1.3546 -1.3348
11982TIP3    H257438   5.265   4.374   1.557 -1.2376 -1.9187 -0.4725
11983TIP3   OH257439   5.098   1.651  14.551 -0.2525  0.0988 -0.6238
11983TIP3    H157440   5.149   1.675  14.474 -0.6667  1.0672 -0.5994
11983TIP3    H257441   5.161   1.607  14.608  0.5435  1.2645 -0.6047
11984TIP3   OH257442   3.634   6.707  15.367  0.0406 -0.8680  0.5262
11984TIP3    H157443   3.552   6.659  15.362 -0.4096 -0.2040  1.3877
11984TIP3    H257444   3.625   6.761  15.445  0.6346  0.4231 -0.2812
11985TIP3   OH257445   4.513   6.085   5.158  0.4039 -0.0359  0.0586
11985TIP3    H157446   4.440   6.063   5.100  1.9160 -2.7649 -0.8559
11985TIP3    H257447   4.589   6.086   5.101  1.3513  1.1991  1.3125
11986TIP3   OH257448   4.189   5.092   5.846  0.1126  0.0960 -0.2471
11986TIP3    H157449   4.240   5.012   5.863 -0.2095  0.4810  2.8097
11986TIP3    H257450   4.120   5.091   5.912 -0.9822  2.0135 -1.3126
11987TIP3   OH257451   1.492   1.615  15.819  0.2537  0.0136  0.1789
11987TIP3    H157452   1.519   1.601  15.910 -1.1712 -0.9280  0.4748
11987TIP3    H257453   1.507   1.708  15.803 -2.2346  0.8425  2.3389
11988TIP3   OH257454   4.634   5.436   3.573 -0.4099  0.3552 -0.0106
11988TIP3    H157455   4.607   5.344   3.571 -1.7717  0.7423  0.1549
11988TIP3    H257456   4.729   5.433   3.556 -0.0936 -1.1937  1.8700
11989TIP3   OH257457   3.873   4.534  14.309 -0.2980  0.4994 -0.1982
11989TIP3    H157458   3.930   4.595  14.262 -2.1330 -0.1543 -3.4320
11989TIP3    H257459   3.784   4.565  14.290 -1.1972 -2.0099 -0.2902
11990TIP3   OH257460   0.618   5.274   3.339  0.1679  0.8280 -0.2423
11990TIP3    H157461   0.691   5.219   3.366 -0.4522 -0.2054 -0.6547
11990TIP3    H257462   0.550   5.258   3.405 -0.7762 -0.5061 -1.5217
11991TIP3   OH257463   2.174   0.013   2.662  0.0093  0.7158 -0.4959
11991TIP3    H157464   2.150  -0.054   2.598 -1.4933  0.5712  0.2191
11991TIP3    H257465   2.267  -0.005   2.681 -0.2427 -0.8601 -0.6745
11992TIP3   OH257466   3.601   5.287  14.878  0.6852  0.2352 -0.9673
11992TIP3    H157467   3.613   5.330  14.962  1.0490  0.5047 -1.1559
11992TIP3    H257468   3.582   5.196  14.900  3.7446 -0.4049 -0.6435
11993TIP3   OH257469   2.654   0.231   5.435  0.0444  0.6532  0.2193
11993TIP3    H157470   2.744   0.204   5.452  0.6614  1.1656 -1.9735
11993TIP3    H257471   2.621   0.166   5.373 -0.6029  1.2777 -0.1066
11994TIP3   OH257472   6.719   3.563  14.103  0.1359 -0.2958  0.2860
11994TIP3    H157473   6.649   3.599  14.049  1.1584  0.6150 -0.4583
11994TIP3    H257474   6.681   3.555  14.190 -0.8942  0.1731 -0.1185
11995TIP3   OH257475   5.917   6.049   0.900  0.1463  0.8448 -0.2533
11995TIP3    H157476   5.963   6.037   0.983  0.5935 -0.5633 -0.6863
11995TIP3    H257477   5.924   5.964   0.857 -0.5025  1.4287 -1.5266
11996TIP3   OH257478   1.096   6.084   6.598  0.1388 -0.2056 -0.4455
11996TIP3    H157479   1.051   6.068   6.681 -1.1267  0.5041 -0.9735
11996TIP3    H257480   1.032   6.133   6.545  0.5721 -1.4747 -2.1923
11997TIP3   OH257481   4.645   2.508  15.290 -0.3399 -0.2923  0.3850
11997TIP3    H157482   4.576   2.561  15.250 -1.0735 -0.8264  0.9286
11997TIP3    H257483   4.713   2.502  15.223 -1.0039 -0.1040 -0.3041
11998TIP3   OH257484   0.057   5.309   0.115 -0.1125  0.0666  0.0686
11998TIP3    H157485   0.138   5.336   0.159  0.6703  0.0485 -1.3288
11998TIP3    H257486   0.024   5.390   0.075 -1.0398  0.1684  1.0040
11999TIP3   OH257487   2.771   2.079   2.712  0.2313  0.2858  0.1596
11999TIP3    H157488   2.781   2.006   2.652  1.2056  0.6465 -0.1346
11999TIP3    H257489   2.680   2.106   2.703 -0.3558 -1.4258  0.8984
12000TIP3   OH257490   4.084   4.466   1.063 -0.0135 -0.0718 -0.0203
12000TIP3    H157491   4.005   4.413   1.053 -0.2906  0.5706 -1.3364
12000TIP3    H257492   4.090   4.517   0.982  1.9096 -0.3155 -0.0650
12001TIP3   OH257493   6.659   6.249   2.217  0.1543 -0.5329  0.1828
12001TIP3    H157494   6.596   6.212   2.154 -1.4202  1.6168  0.4274
12001TIP3    H257495   6.613   6.246   2.301  0.1748  1.4832  0.2877
12002TIP3   OH257496   5.432   4.653   3.924 -0.4547 -0.2326 -0.4810
12002TIP3    H157497   5.468   4.621   3.842  0.7589  0.5536 -0.2617
12002TIP3    H257498   5.400   4.575   3.969 -1.9658 -0.5730 -2.0814
12003TIP3   OH257499   5.886   6.720   2.188 -0.1686 -0.0049 -0.1166
12003TIP3    H157500   5.909   6.658   2.257 -1.7850 -0.8087 -0.2926
12003TIP3    H257501   5.834   6.787   2.232 -0.4415 -0.0414 -0.3839
12004TIP3   OH257502   3.539   4.791   0.637  0.2683  0.1059  0.0938
12004TIP3    H157503   3.479   4.845   0.688 -1.3272 -0.4645 -1.1209
12004TIP3    H257504   3.516   4.808   0.546  1.5055 -0.6391 -0.3810
12005TIP3   OH257505   3.831   6.710  16.150 -0.4107 -0.3688  0.2667
12005TIP3    H157506   3.835   6.663  16.233 -2.1183  0.1491  0.6490
12005TIP3    H257507   3.807   6.799  16.174  1.1661  0.3055 -0.5999
12006TIP3   OH257508   3.316   2.285   6.231 -0.4222 -0.0658  0.0862
12006TIP3    H157509   3.234   2.236   6.234  0.5614 -1.9802 -2.8075
12006TIP3    H257510   3.380   2.224   6.195  1.5749  2.3210 -0.5796
12007TIP3   OH257511   2.161   2.378  14.287  0.0468  0.2491  0.3677
12007TIP3    H157512   2.129   2.291  14.310 -0.0897 -0.0387 -0.8481
12007TIP3    H257513   2.082   2.430  14.271  0.1393  0.3939  0.3772
12008TIP3   OH257514   0.630   0.255  12.314  0.1819  0.2148 -0.1851
12008TIP3    H157515   0.697   0.206  12.266  0.0147 -0.2949  0.1019
12008TIP3    H257516   0.552   0.201  12.309  0.1865  0.1197  0.7247
12009TIP3   OH257517   2.551   1.265   4.122  0.2194 -0.8726  0.2899
12009TIP3    H157518   2.590   1.260   4.209  1.0039  2.3247  0.2072
12009TIP3    H257519   2.479   1.202   4.123 -0.1882 -0.4220  3.4673
12010TIP3   OH257520   5.741   0.159  13.142 -1.1648 -0.0180  0.1692
12010TIP3    H157521   5.772   0.112  13.064  1.4609 -0.3727  1.3627
12010TIP3    H257522   5.685   0.096  13.186 -0.4177 -0.8350 -0.0226
12011TIP3   OH257523   1.156   3.788   0.371  0.4835  0.1857  0.2791
12011TIP3    H157524   1.233   3.807   0.425  0.5154  1.9416 -0.3499
12011TIP3    H257525   1.085   3.834   0.414 -0.1222 -0.9906  0.5547
12012TIP3   OH257526   3.159   5.669  16.486 -0.3916 -0.2206  0.6762
12012TIP3    H157527   3.229   5.662  16.421  0.3863  0.2331  1.4485
12012TIP3    H257528   3.103   5.740  16.453 -1.1980 -1.4419 -0.5936
12013TIP3   OH257529   4.341   1.158   1.934 -0.8229 -0.1894 -0.0317
12013TIP3    H157530   4.351   1.069   1.967 -1.1005  0.3877  1.6380
12013TIP3    H257531   4.425   1.178   1.893 -1.2482 -1.7277 -1.7525
12014TIP3   OH257532   1.454   3.418  10.997 -0.3748 -0.1608  0.1332
12014TIP3    H157533   1.548   3.406  10.982 -0.5278 -2.5850  0.8259
12014TIP3    H257534   1.444   3.409  11.092 -1.1734  1.1217  0.1700
12015TIP3   OH257535   1.952   3.892   0.260  0.1658 -0.2581  0.2220
12015TIP3    H157536   1.892   3.830   0.218 -0.5771 -0.1807  1.1484
12015TIP3    H257537   2.013   3.917   0.190 -0.5659 -0.7275 -0.6031
12016TIP3   OH257538   6.171   1.714   5.755 -0.6401  0.0228  0.0126
12016TIP3    H157539   6.255   1.695   5.797 -1.2269 -0.3389  1.0201
12016TIP3    H257540   6.168   1.810   5.752 -0.6428  0.0504  0.8798
12017TIP3   OH257541   1.173   1.439   3.569  0.2535 -0.0996  0.5200
12017TIP3    H157542   1.082   1.421   3.542  0.7014 -1.3224 -0.2286
12017TIP3    H257543   1.224   1.371   3.526  1.4431  0.1201  1.5759
12018TIP3   OH257544   4.958   3.271   1.851 -0.2827 -0.2947  0.2632
12018TIP3    H157545   4.989   3.347   1.802  0.3521 -0.3343  0.5943
12018TIP3    H257546   4.970   3.296   1.943  0.6501 -1.0909  0.3651
12019TIP3   OH257547   1.511   5.162   4.761 -0.3959 -0.1425  0.3603
12019TIP3    H157548   1.513   5.246   4.807 -0.3454  0.9337 -1.5803
12019TIP3    H257549   1.602   5.133   4.760  0.0151  1.1383 -1.3862
12020TIP3   OH257550   3.940   3.368  15.977  0.7318 -0.1211 -1.4775
12020TIP3    H157551   4.026   3.377  16.017  1.4500 -0.0257 -3.0038
12020TIP3    H257552   3.944   3.285  15.929 -0.1119 -0.2472 -1.3407
12021TIP3   OH257553   3.873   4.212   5.979 -0.2139 -0.6157  0.3338
12021TIP3    H157554   3.947   4.205   5.918  0.4329  0.5089  0.9717
12021TIP3    H257555   3.897   4.157   6.053  0.5424  0.6724  1.0708
12022TIP3   OH257556   2.502   5.065   1.197 -0.2822  0.9187 -0.3864
12022TIP3    H157557   2.464   4.979   1.182 -0.9951  1.2260 -0.3881
12022TIP3    H257558   2.427   5.125   1.190 -0.1961  1.3148  1.8320
12023TIP3   OH257559   6.488   1.034  15.229  0.9922  0.4326  0.1341
12023TIP3    H157560   6.430   0.970  15.270 -0.2439  1.6247  0.2753
12023TIP3    H257561   6.501   1.001  15.140  1.3267 -0.6240  0.5634
12024TIP3   OH257562   2.046   1.639   2.268 -0.4376  0.7522  0.4928
12024TIP3    H157563   2.008   1.590   2.341 -0.1646 -0.2615 -0.0336
12024TIP3    H257564   2.022   1.589   2.190  1.6156  0.3127  0.1158
12025TIP3   OH257565   2.186   1.432   1.394  0.0350 -0.0642 -0.3560
12025TIP3    H157566   2.267   1.478   1.414 -1.3670  0.1008  5.9379
12025TIP3    H257567   2.126   1.500   1.363  0.8564  0.6444 -0.3914
12026TIP3   OH257568   5.903   4.889   4.821  0.3367 -0.1328 -0.1195
12026TIP3    H157569   5.985   4.931   4.794  1.3290 -1.3090  0.9528
12026TIP3    H257570   5.836   4.956   4.807  1.2697  0.4048 -2.2820
12027TIP3   OH257571   4.058   0.466  12.393 -0.2799 -0.2998  0.5465
12027TIP3    H157572   3.972   0.435  12.418 -0.1109  0.0519  1.5854
12027TIP3    H257573   4.056   0.560  12.409 -0.6735  0.2332 -2.2423
12028TIP3   OH257574   6.774   6.156  11.929  0.1422  0.0752 -0.2261
12028TIP3    H157575   6.729   6.228  11.884  0.5934 -0.9700 -2.4418
12028TIP3    H257576   6.823   6.198  11.999 -0.9044  1.7386 -0.4686
12029TIP3   OH257577   1.067   2.323  16.252  0.3387  0.0888 -0.6778
12029TIP3    H157578   0.974   2.318  16.229  0.3304 -1.1704 -0.3817
12029TIP3    H257579   1.070   2.297  16.345  0.7836  1.8002 -0.1876
12030TIP3   OH257580   6.169   2.628  15.670  0.2372 -0.7543 -0.5570
12030TIP3    H157581   6.234   2.620  15.601 -0.5688 -2.6310 -1.1222
12030TIP3    H257582   6.184   2.552  15.726 -1.7895 -1.5070 -0.9894
12031TIP3   OH257583   5.342   3.232  10.718  0.6892 -0.3002 -0.4300
12031TIP3    H157584   5.294   3.152  10.739 -0.1027  0.1378 -0.5651
12031TIP3    H257585   5.431   3.214  10.747  1.0730 -2.1423 -2.5636
12032TIP3   OH257586   0.985   5.935  11.342 -0.2910 -0.3022  0.1267
12032TIP3    H157587   1.047   6.002  11.314 -0.8559 -0.3387 -1.2160
12032TIP3    H257588   0.976   5.949  11.437  2.0419 -0.5526  0.4038
12033TIP3   OH257589   1.965   4.432   4.072 -0.4078  0.4045 -0.6348
12033TIP3    H157590   1.874   4.403   4.072  0.6349 -3.1647 -0.4197
12033TIP3    H257591   2.016   4.351   4.068  2.7870  2.2309  0.7282
12034TIP3   OH257592   6.437   6.073  16.587 -0.2174 -0.3319  0.4418
12034TIP3    H157593   6.447   6.039  16.676  0.2056  0.4969  0.7185
12034TIP3    H257594   6.435   5.995  16.531 -1.3583 -0.9083  1.2522
12035TIP3   OH257595   5.478   1.425   5.831 -0.5731 -0.3504 -0.1872
12035TIP3    H157596   5.465   1.340   5.789 -1.0756 -0.0841 -0.5638
12035TIP3    H257597   5.557   1.460   5.791 -0.1742 -0.7899  0.2087
12036TIP3   OH257598   1.583   3.335   0.773  0.2374 -0.1015 -0.8399
12036TIP3    H157599   1.650   3.321   0.840  0.3615 -0.6474 -1.0787
12036TIP3    H257600   1.507   3.287   0.804  0.7362 -1.5249 -1.7707
12037TIP3   OH257601   6.714   3.628  13.344 -0.0176 -0.3310  0.0947
12037TIP3    H157602   6.775   3.567  13.386  0.5942 -0.2461 -0.6803
12037TIP3    H257603   6.740   3.630  13.252 -4.0670 -3.8694 -1.2721
12038TIP3   OH257604   1.116   2.755   0.875  0.1668  0.3424  0.0117
12038TIP3    H157605   1.189   2.699   0.848 -0.5487  0.0770 -1.3759
12038TIP3    H257606   1.128   2.766   0.970  2.1469  0.5064 -0.2447
12039TIP3   OH257607   2.342   6.359   5.537  0.6928  0.0578 -0.2639
12039TIP3    H157608   2.329   6.370   5.442  0.4102  0.2281 -0.2048
12039TIP3    H257609   2.431   6.325   5.545  0.9779  0.7329 -0.5416
12040TIP3   OH257610   3.890   4.712   1.542 -0.6004  0.2880 -0.2771
12040TIP3    H157611   3.802   4.741   1.567 -1.1592 -1.7538  0.2155
12040TIP3    H257612   3.924   4.669   1.620 -0.5029 -1.9119 -1.5027
12041TIP3   OH257613   1.643   5.716  15.004 -0.2837  0.3158 -0.0718
12041TIP3    H157614   1.678   5.684  15.088 -0.5055 -0.4668 -0.2716
12041TIP3    H257615   1.701   5.678  14.938  1.3935  2.9419 -0.1634
12042TIP3   OH257616   4.813   6.541   5.519  0.0838  0.3013 -0.3804
12042TIP3    H157617   4.809   6.583   5.605  1.5674 -0.1475 -0.0759
12042TIP3    H257618   4.754   6.593   5.464 -0.5927  0.8063  0.8167
12043TIP3   OH257619   0.513   6.490  11.486  0.0187  0.7050 -0.2132
12043TIP3    H157620   0.595   6.475  11.438  0.4031 -0.4110  0.7656
12043TIP3    H257621   0.540   6.538  11.564 -0.1249 -0.4264  0.5431
12044TIP3   OH257622   5.230   5.366  17.036  0.3048 -0.3087 -0.0730
12044TIP3    H157623   5.238   5.401  16.948  0.6417 -0.8740 -0.2680
12044TIP3    H257624   5.232   5.443  17.093 -0.3671  0.0918 -0.5816
12045TIP3   OH257625   6.082   5.921   3.709 -0.1514 -0.1148  0.1918
12045TIP3    H157626   6.113   5.970   3.633 -0.5742  0.2172  0.2331
12045TIP3    H257627   6.028   5.851   3.672 -1.6430  0.9716  0.2473
12046TIP3   OH257628   3.157   1.593  17.009  0.7741  0.3592 -0.4054
12046TIP3    H157629   3.189   1.512  16.970 -0.1393 -0.7341  1.0446
12046TIP3    H257630   3.079   1.567  17.058  0.5003  2.0985  0.1275
12047TIP3   OH257631   6.620   1.729  12.819  0.6912  0.1831  0.4901
12047TIP3    H157632   6.652   1.681  12.742 -0.3408  1.6488 -0.9002
12047TIP3    H257633   6.640   1.673  12.893  0.5579 -1.8555 -0.9907
12048TIP3   OH257634   5.826   5.908   3.092  0.2885  0.6226  0.3171
12048TIP3    H157635   5.850   5.885   3.002 -1.3390  1.6909 -0.4135
12048TIP3    H257636   5.852   5.999   3.102  0.2832  0.5689  0.8555
12049TIP3   OH257637   1.751   1.257   1.725 -0.0541  0.1277  0.1127
12049TIP3    H157638   1.796   1.234   1.643 -2.7933 -1.0577 -1.1046
12049TIP3    H257639   1.819   1.249   1.792  1.9040 -0.2467 -1.8553
12050TIP3   OH257640   4.828   5.432  17.239 -0.1292  0.7143 -0.5122
12050TIP3    H157641   4.809   5.525  17.228  1.0470  1.0303  0.0037
12050TIP3    H257642   4.742   5.390  17.247 -0.6110  2.0804  1.8485
12051TIP3   OH257643   2.395   4.448  10.259  0.6629  0.5689  0.3864
12051TIP3    H157644   2.467   4.391  10.285  0.7581  0.5446  0.0700
12051TIP3    H257645   2.325   4.388  10.233  0.7214  0.5943  0.1686
12052TIP3   OH257646   0.562   1.245   1.034 -0.1581 -0.4343  0.2602
12052TIP3    H157647   0.555   1.179   0.965 -2.5676 -0.3396  0.3575
12052TIP3    H257648   0.489   1.304   1.018  1.4996  1.7701  0.6568
12053TIP3   OH257649   2.335   5.863  14.739 -0.2796  0.1293  0.3422
12053TIP3    H157650   2.329   5.923  14.664 -1.2809 -0.5330 -0.1254
12053TIP3    H257651   2.426   5.834  14.739  0.2558  1.7711  0.6734
12054TIP3   OH257652   0.963   4.112  11.211  0.0430  0.2567 -0.1742
12054TIP3    H157653   1.029   4.113  11.142 -1.3435 -1.7645 -1.5823
12054TIP3    H257654   1.014   4.107  11.292  1.6709  2.5164 -1.0118
12055TIP3   OH257655   1.753   5.627  13.875  0.4555 -0.0731 -0.3039
12055TIP3    H157656   1.839   5.633  13.918  0.1174 -1.4718  0.6207
12055TIP3    H257657   1.760   5.549  13.820 -0.5553 -0.8266  0.6086
12056TIP3   OH257658   1.025   2.587  15.973  0.2431 -0.0399 -0.2604
12056TIP3    H157659   0.971   2.660  15.943  0.9957 -0.2442 -2.1966
12056TIP3    H257660   1.012   2.519  15.906 -1.3087 -2.1341  2.0383
12057TIP3   OH257661   1.364   6.006  15.604 -0.0602  0.1093 -0.1097
12057TIP3    H157662   1.329   5.964  15.683  0.3890  0.6962  0.4008
12057TIP3    H257663   1.334   5.949  15.532 -0.4472 -0.4427  0.4758
12058TIP3   OH257664   4.310   3.303   5.658 -0.4726  1.4922 -0.1062
12058TIP3    H157665   4.352   3.280   5.575 -0.6485  0.7783 -0.0045
12058TIP3    H257666   4.349   3.242   5.722 -2.1257  0.3798 -0.1284
12059TIP3   OH257667   6.750   0.820  16.578  0.2364  0.0001 -0.1265
12059TIP3    H157668   6.813   0.781  16.638 -0.2598 -0.5555  0.0438
12059TIP3    H257669   6.763   0.774  16.495  0.0258 -0.1471 -0.0790
12060TIP3   OH257670   4.772   3.883   6.738 -0.6336 -0.0814  0.1553
12060TIP3    H157671   4.708   3.954   6.746 -0.2145  0.3501 -0.2373
12060TIP3    H257672   4.807   3.893   6.649  0.0257 -0.2638  0.3931
12061TIP3   OH257673   0.029   0.884  13.299 -0.5014  0.1249  0.1440
12061TIP3    H157674  -0.024   0.809  13.324  2.4765 -2.0155  0.2534
12061TIP3    H257675   0.102   0.883  13.361  0.2923  2.3150 -0.7001
12062TIP3   OH257676   4.410   6.496   3.378  0.1181  0.3428  0.2438
12062TIP3    H157677   4.473   6.559   3.413  1.2265 -0.8575  0.4500
12062TIP3    H257678   4.325   6.528   3.408  0.5797  2.1935 -0.3581
12063TIP3   OH257679   1.285   1.274   5.803 -0.2081  0.0535 -0.5660
12063TIP3    H157680   1.376   1.254   5.785 -0.1003  0.6526 -0.6977
12063TIP3    H257681   1.239   1.253   5.722 -0.0572  0.5847 -0.7911
12064TIP3   OH257682   1.840   0.927  14.539  0.1647 -0.3092 -0.4525
12064TIP3    H157683   1.772   0.888  14.484  0.1709  0.6329 -1.1444
12064TIP3    H257684   1.890   0.983  14.480  1.9366 -1.4496 -0.0827
12065TIP3   OH257685   5.093   1.230  12.837  0.2287 -0.3681 -0.1257
12065TIP3    H157686   5.149   1.188  12.902 -1.2164 -2.2595 -0.0460
12065TIP3    H257687   5.151   1.291  12.791  1.8919 -0.9263  1.1652
12066TIP3   OH257688   3.212   6.290  13.708  0.0500  0.4040 -0.2726
12066TIP3    H157689   3.243   6.380  13.707 -4.0766  1.9022 -0.8647
12066TIP3    H257690   3.149   6.286  13.780 -1.5599 -1.3521 -1.7031
12067TIP3   OH257691   6.131   1.711  12.957 -0.0640 -0.1244 -0.0767
12067TIP3    H157692   6.135   1.622  12.924  2.3776  0.2384 -0.8991
12067TIP3    H257693   6.194   1.760  12.902 -0.1249  1.7160  1.4288
12068TIP3   OH257694   0.733   5.069   4.165  0.5375 -0.2826 -0.3988
12068TIP3    H157695   0.667   5.016   4.119  1.2182  0.4790 -2.2684
12068TIP3    H257696   0.770   5.009   4.230 -0.1731 -1.4853 -1.0848
12069TIP3   OH257697   3.786   1.190   2.983  0.0046 -0.7248  0.5527
12069TIP3    H157698   3.709   1.239   2.957 -1.0451 -2.2611  0.7028
12069TIP3    H257699   3.752   1.111   3.025  1.6472 -1.3030  0.8660
12070TIP3   OH257700   1.889   2.797  12.472 -0.0850  0.4350 -0.4843
12070TIP3    H157701   1.936   2.880  12.466 -0.9520  0.8319 -1.9181
12070TIP3    H257702   1.917   2.760  12.556  0.9684  1.7625 -0.2317
12071TIP3   OH257703   3.300   6.447  15.979  0.1163 -0.0083 -0.5834
12071TIP3    H157704   3.219   6.473  16.023  0.3379 -0.6167  0.1894
12071TIP3    H257705   3.308   6.353  15.995  1.5736  0.2512  0.3556
12072TIP3   OH257706   1.357   5.123   4.164 -0.2215 -0.2032  0.5700
12072TIP3    H157707   1.375   5.162   4.079 -0.6056  0.7311  0.9073
12072TIP3    H257708   1.397   5.036   4.160 -1.2946 -0.6519 -0.9939
12073TIP3   OH257709   1.357   3.310   2.925 -0.4001 -0.2453  0.2270
12073TIP3    H157710   1.272   3.343   2.956 -0.8299  0.7871 -1.9287
12073TIP3    H257711   1.335   3.256   2.849  0.9624  1.2692 -1.2932
12074TIP3   OH257712   2.412   5.114  16.148  0.6027 -0.4020  0.1165
12074TIP3    H157713   2.454   5.038  16.108  1.0155  0.0615 -0.3611
12074TIP3    H257714   2.322   5.087  16.164  0.6172 -0.8315 -0.5003
12075TIP3   OH257715   2.531   5.902   3.771  0.4613 -0.2214 -0.2761
12075TIP3    H157716   2.587   5.827   3.793  0.9871  0.1410 -0.3610
12075TIP3    H257717   2.480   5.918   3.851  2.0649  0.8195  0.5686
12076TIP3   OH257718   5.933   5.765  16.577 -0.3383 -0.1536  0.2748
12076TIP3    H157719   5.878   5.714  16.519 -0.3430  0.4234 -0.2322
12076TIP3    H257720   5.875   5.793  16.648 -0.6202  0.1979 -0.1002
12077TIP3   OH257721   6.756   0.922   1.003  0.2449  0.4162  0.1732
12077TIP3    H157722   6.754   0.938   0.908 -0.4009  0.1023  0.1291
12077TIP3    H257723   6.828   0.976   1.035  1.5647 -0.7735 -0.7304
12078TIP3   OH257724   0.855   3.970  14.381 -0.0982 -0.0367  0.1592
12078TIP3    H157725   0.804   4.044  14.349  1.6962  0.7127 -1.0287
12078TIP3    H257726   0.942   3.983  14.344  0.4474 -2.3352  0.5617
12079TIP3   OH257727   1.919   4.246   4.454  0.2173  0.6320  0.6032
12079TIP3    H157728   1.926   4.190   4.376  0.5793  0.3821  0.8134
12079TIP3    H257729   1.871   4.322   4.424  0.2992  0.5080  0.1456
12080TIP3   OH257730   4.161   3.963  16.306 -0.0603  0.2831 -0.7562
12080TIP3    H157731   4.151   4.029  16.237  1.8816  2.3284  0.8839
12080TIP3    H257732   4.254   3.944  16.308  0.0776  1.0513  2.0038
12081TIP3   OH257733   2.679   3.605  13.188 -0.3019  0.5940 -0.6295
12081TIP3    H157734   2.739   3.610  13.262  1.6984  1.0720 -2.2634
12081TIP3    H257735   2.616   3.676  13.204 -0.3655  0.2011  0.9985
12082TIP3   OH257736   5.968   4.017  16.710 -0.0045 -0.4296  0.4773
12082TIP3    H157737   5.934   3.998  16.798  1.7297 -1.1470  1.0172
12082TIP3    H257738   6.021   4.096  16.722  0.4084 -0.6514  0.1337
12083TIP3   OH257739   6.484   1.256   0.335  0.0710  0.7476 -0.2571
12083TIP3    H157740   6.573   1.265   0.300  0.0619  1.7622 -0.0483
12083TIP3    H257741   6.496   1.218   0.422  0.5042  2.9671  0.7082
12084TIP3   OH257742   6.433   3.156   5.780 -0.3119 -0.3143  0.1500
12084TIP3    H157743   6.480   3.233   5.813 -2.3681  1.6015 -1.2725
12084TIP3    H257744   6.471   3.140   5.694 -1.4120  0.5031 -0.4964
12085TIP3   OH257745   0.330   5.114  14.368  0.2062  0.3647 -0.2585
12085TIP3    H157746   0.266   5.043  14.375 -2.6525  2.8091 -0.4400
12085TIP3    H257747   0.415   5.070  14.367 -1.5023 -3.0973 -1.3891
12086TIP3   OH257748   4.960   2.392  12.672 -0.2973 -0.1084 -0.4361
12086TIP3    H157749   5.044   2.419  12.636 -1.1619  0.6600 -1.9110
12086TIP3    H257750   4.926   2.472  12.714 -0.1207 -0.5183  0.4960
12087TIP3   OH257751   6.156   1.340   3.200  0.4650  0.2483  0.3538
12087TIP3    H157752   6.220   1.345   3.271 -0.6937 -2.3252  1.6741
12087TIP3    H257753   6.098   1.414   3.215  1.5308  1.0059  0.7886
12088TIP3   OH257754   2.484   4.265  11.714 -0.5649 -0.5321 -0.8724
12088TIP3    H157755   2.420   4.194  11.714 -1.1786  0.0185  0.0838
12088TIP3    H257756   2.444   4.333  11.660 -0.8548 -0.1215 -0.1359
12089TIP3   OH257757   4.109   6.164  17.283  0.3049  0.3193  0.4390
12089TIP3    H157758   4.133   6.240  17.230  1.0141 -0.7352 -0.7937
12089TIP3    H257759   4.171   6.164  17.356  0.7486  0.5445  0.0667
12090TIP3   OH257760   4.904   3.610   3.710 -0.6666  0.1012  0.0087
12090TIP3    H157761   4.942   3.523   3.706  0.0887  0.4596 -0.9875
12090TIP3    H257762   4.944   3.651   3.786 -1.3959 -0.5856  0.7690
12091TIP3   OH257763   5.699   6.809   4.374  0.0520 -0.2728 -0.3643
12091TIP3    H157764   5.793   6.826   4.374  0.2513 -1.3572 -0.5091
12091TIP3    H257765   5.659   6.894   4.394  1.1505 -0.3534  2.3579
12092TIP3   OH257766   2.621   1.691   4.136  0.7451  0.4419  0.8431
12092TIP3    H157767   2.658   1.714   4.051 -0.4040  0.0723  0.2350
12092TIP3    H257768   2.612   1.775   4.181  2.0501  0.5686  0.9074
12093TIP3   OH257769   1.358   2.703  16.374  0.0892 -0.3239  0.1434
12093TIP3    H157770   1.289   2.685  16.310 -1.3290  1.8765  0.9597
12093TIP3    H257771   1.432   2.733  16.322 -0.5356 -0.0032 -0.5774
12094TIP3   OH257772   3.136   4.784   5.073  0.0369  0.3313  0.5451
12094TIP3    H157773   3.126   4.749   5.162  2.4033 -0.1109  0.6813
12094TIP3    H257774   3.191   4.719   5.028  1.1687  1.9208 -0.3958
12095TIP3   OH257775   2.595   1.387  16.235 -0.6880  0.3436  0.1319
12095TIP3    H157776   2.653   1.424  16.301 -1.2108  1.1152  0.1774
12095TIP3    H257777   2.625   1.426  16.152 -0.8485  0.3948  0.0973
12096TIP3   OH257778   0.982   3.207  15.577  0.8381  0.0438 -0.9715
12096TIP3    H157779   1.039   3.143  15.621  1.2206 -0.6673 -2.4713
12096TIP3    H257780   0.978   3.177  15.486  0.4394  1.7606 -1.5330
12097TIP3   OH257781   1.236   0.945   2.086 -0.6204  0.1191 -0.3041
12097TIP3    H157782   1.193   0.929   2.170  1.4302 -1.1690  0.5501
12097TIP3    H257783   1.273   1.033   2.094 -0.3530 -0.0369  0.1662
12098TIP3   OH257784   3.682   5.708  16.809 -0.1278  0.1479  0.3195
12098TIP3    H157785   3.673   5.791  16.855  1.2282  0.7413 -0.4395
12098TIP3    H257786   3.603   5.701  16.755 -0.4465  0.7379  0.7048
12099TIP3   OH257787   0.596   4.912   5.743 -0.1598 -0.3613 -0.0389
12099TIP3    H157788   0.647   4.871   5.673  0.0501 -1.5185  0.7772
12099TIP3    H257789   0.635   4.879   5.824  0.4014  1.9457  0.6656
12100TIP3   OH257790   6.752   5.555   1.067 -0.7154 -0.3100 -0.2109
12100TIP3    H157791   6.755   5.649   1.046 -1.4625 -0.2002  0.1667
12100TIP3    H257792   6.818   5.516   1.010 -0.5568  0.4171 -0.5321
12101TIP3   OH257793   6.277   0.417  16.108  0.1261 -0.1641  1.0601
12101TIP3    H157794   6.239   0.484  16.052 -1.8638 -1.0478  1.3383
12101TIP3    H257795   6.286   0.460  16.194 -0.3172  0.0264  1.0118
12102TIP3   OH257796   2.466   1.164   2.087  0.1135  0.1143  0.7279
12102TIP3    H157797   2.557   1.137   2.088  0.2691  0.6022  2.3678
12102TIP3    H257798   2.463   1.239   2.028  0.2186 -1.6589 -1.5638
12103TIP3   OH257799   1.400   6.153   1.829  0.4827 -0.1318 -0.4266
12103TIP3    H157800   1.336   6.087   1.800  0.6208  0.4133 -1.9859
12103TIP3    H257801   1.396   6.221   1.762  0.3029  1.4872  1.2067
12104TIP3   OH257802   6.066   2.752  11.865 -0.1420 -0.5395  0.1454
12104TIP3    H157803   6.017   2.701  11.801  1.5991 -0.8747 -0.9340
12104TIP3    H257804   6.058   2.703  11.947  0.9436 -2.2155 -0.7210
12105TIP3   OH257805   3.122   4.100  13.063  0.6455 -0.6115  0.2573
12105TIP3    H157806   3.035   4.087  13.026  0.8101 -1.8157  0.2761
12105TIP3    H257807   3.179   4.113  12.987  0.2931  1.2493  0.2859
12106TIP3   OH257808   4.406   2.174   4.262  0.1450 -0.2569 -0.2339
12106TIP3    H157809   4.461   2.103   4.296 -0.7457 -1.5230 -1.3445
12106TIP3    H257810   4.443   2.254   4.299  2.3227 -1.1376 -0.4472
12107TIP3   OH257811   6.560   0.977   3.275 -0.3256  0.0388 -0.1542
12107TIP3    H157812   6.533   1.068   3.289  1.5979  0.6750 -0.4167
12107TIP3    H257813   6.637   0.983   3.218  0.6424 -1.6690  0.9199
12108TIP3   OH257814   6.201   4.746   3.606  0.8683 -0.0371  0.2344
12108TIP3    H157815   6.259   4.797   3.549  0.4102 -1.0322 -1.1721
12108TIP3    H257816   6.261   4.689   3.655  1.1802 -0.1060 -0.2190
12109TIP3   OH257817   4.348   1.566   3.575  0.3083  0.6973 -0.1138
12109TIP3    H157818   4.312   1.630   3.637 -2.2941 -1.0182  0.2068
12109TIP3    H257819   4.344   1.610   3.490  2.5676  2.5354  0.6845
12110TIP3   OH257820   6.417   2.763   1.686 -0.2825 -0.5473 -0.3710
12110TIP3    H157821   6.448   2.819   1.757 -1.4172 -0.5984  0.1787
12110TIP3    H257822   6.490   2.760   1.624  0.7477 -0.5553  0.8183
12111TIP3   OH257823   3.022   3.370   2.166  0.1384 -0.2938 -0.3001
12111TIP3    H157824   2.963   3.400   2.235  0.7761  1.2766 -0.4186
12111TIP3    H257825   3.101   3.341   2.212  0.0329 -0.5379 -0.2739
12112TIP3   OH257826   3.104   4.507   3.063 -0.8016 -0.2183 -0.3539
12112TIP3    H157827   3.047   4.497   3.139  0.2909 -2.6564  0.2039
12112TIP3    H257828   3.046   4.497   2.988 -1.5584  0.2215  0.1697
12113TIP3   OH257829   3.459   3.278  12.790 -0.0298 -0.0137 -0.7181
12113TIP3    H157830   3.471   3.305  12.699 -0.2628 -0.3161 -0.8398
12113TIP3    H257831   3.409   3.196  12.785 -0.0493 -0.0300 -0.3193
12114TIP3   OH257832   0.298   5.230  13.988  0.2185 -0.2810  0.1638
12114TIP3    H157833   0.343   5.267  13.911 -0.2466 -0.3607 -0.1495
12114TIP3    H257834   0.272   5.306  14.039 -0.1083 -0.1947 -0.1244
12115TIP3   OH257835   0.869   5.274  16.106 -0.6891  0.3824  0.2608
12115TIP3    H157836   0.809   5.228  16.164 -1.9108 -0.4199 -1.6024
12115TIP3    H257837   0.941   5.212  16.092 -2.4127 -1.1575 -2.3854
12116TIP3   OH257838   6.301   4.618   5.308 -0.2708  0.5730 -0.0310
12116TIP3    H157839   6.392   4.625   5.337  0.2107 -0.6996 -1.1828
12116TIP3    H257840   6.276   4.706   5.282 -0.2424  1.4826  2.7751
12117TIP3   OH257841   4.812   3.212   4.551 -0.4074 -0.4821 -0.2841
12117TIP3    H157842   4.849   3.252   4.630 -1.0285 -3.0640  1.3490
12117TIP3    H257843   4.879   3.226   4.484  0.4636  1.0774  0.8775
12118TIP3   OH257844   1.835   5.538   2.579  0.3197 -0.9728  0.4599
12118TIP3    H157845   1.883   5.502   2.504  0.9283  0.1646  0.2867
12118TIP3    H257846   1.754   5.488   2.582  1.0625 -2.2372  0.1245
12119TIP3   OH257847   0.495   3.868   6.025 -0.2655  0.4779  0.0384
12119TIP3    H157848   0.504   3.869   5.929 -2.1307  0.6905 -0.1557
12119TIP3    H257849   0.461   3.955   6.047  1.3319  0.8682  1.0396
12120TIP3   OH257850   5.392   5.483  11.763  0.0068 -0.2922 -0.2031
12120TIP3    H157851   5.318   5.446  11.810 -0.4979 -1.3292 -1.8090
12120TIP3    H257852   5.357   5.560  11.719  0.3016  0.2372  0.4778
12121TIP3   OH257853   1.132   1.387   0.360  0.0516  0.6355  0.1441
12121TIP3    H157854   1.201   1.433   0.408 -0.4173  2.8764 -1.2605
12121TIP3    H257855   1.175   1.358   0.279 -0.7227  2.4520 -0.9505
12122TIP3   OH257856   3.275   6.428  14.600  1.1352 -0.7372  0.6675
12122TIP3    H157857   3.193   6.399  14.559  1.7254 -0.4377 -0.7758
12122TIP3    H257858   3.319   6.346  14.626  0.2538 -0.8822  1.7060
12123TIP3   OH257859   6.067   6.637   3.893 -0.1078 -0.2948 -0.3404
12123TIP3    H157860   5.977   6.635   3.859  0.6533  0.0921 -2.4355
12123TIP3    H257861   6.118   6.590   3.827  1.5243  1.0412 -0.0495
12124TIP3   OH257862   5.535   3.438   0.650  0.0088 -0.0839  0.1571
12124TIP3    H157863   5.607   3.439   0.588  1.2821 -1.2449  1.5672
12124TIP3    H257864   5.512   3.346   0.660 -0.8490  0.1740  0.6385
12125TIP3   OH257865   6.706   6.566  11.473 -0.2141 -0.5700 -0.3292
12125TIP3    H157866   6.797   6.588  11.453 -0.0155 -1.8979 -0.9654
12125TIP3    H257867   6.711   6.486  11.525 -1.0081 -0.6044 -0.2887
12126TIP3   OH257868   1.623   3.721  14.478 -0.6086  0.1196  0.4139
12126TIP3    H157869   1.670   3.638  14.464  1.2379  0.7822  2.3851
12126TIP3    H257870   1.669   3.784  14.423 -0.5486  0.3102  0.6816
12127TIP3   OH257871   6.567   1.738  11.914  0.0742 -0.4053  0.2863
12127TIP3    H157872   6.476   1.753  11.890  0.2882  0.9125  0.2467
12127TIP3    H257873   6.575   1.643  11.921 -1.5070 -0.4860  1.1451
12128TIP3   OH257874   1.523   2.340   1.059  0.1691 -0.5963 -0.6551
12128TIP3    H157875   1.605   2.295   1.081  0.7853  1.0823  0.5160
12128TIP3    H257876   1.455   2.279   1.088  1.0038 -0.8375  0.9029
12129TIP3   OH257877   5.644   2.262   1.532 -0.0985 -0.1275 -1.2309
12129TIP3    H157878   5.605   2.220   1.609  0.9832 -2.1130 -1.7238
12129TIP3    H257879   5.666   2.350   1.562  0.7471 -1.0140  0.9343
12130TIP3   OH257880   6.363   3.922   3.842 -0.3289  0.3455 -0.6951
12130TIP3    H157881   6.357   3.827   3.835 -2.1291  0.4636 -0.9273
12130TIP3    H257882   6.411   3.948   3.763 -0.1138 -0.3447 -0.7946
12131TIP3   OH257883   2.743   4.117   1.438  0.3365 -0.0479 -0.1814
12131TIP3    H157884   2.694   4.192   1.406 -0.7327 -0.4851  0.4140
12131TIP3    H257885   2.683   4.043   1.429  1.3677 -0.8378 -0.7413
12132TIP3   OH257886   1.832   0.733   3.588 -0.1317 -0.2768  0.6416
12132TIP3    H157887   1.821   0.763   3.678 -0.4031 -1.7382  1.1016
12132TIP3    H257888   1.743   0.724   3.554 -0.0027  1.8997 -0.3326
12133TIP3   OH257889   4.190   5.269   2.898 -0.1607  0.0541  0.4690
12133TIP3    H157890   4.152   5.286   2.812  0.9121 -0.1687 -0.0623
12133TIP3    H257891   4.147   5.190   2.928 -0.1118 -0.2035 -0.1286
12134TIP3   OH257892   4.668   2.821  15.755 -0.0733 -0.1595 -0.5340
12134TIP3    H157893   4.584   2.843  15.717 -1.3862 -1.7991  1.2858
12134TIP3    H257894   4.690   2.735  15.718  0.6200  0.0941 -0.7196
12135TIP3   OH257895   4.526   3.441  15.578  0.2505  0.1737 -0.2912
12135TIP3    H157896   4.609   3.464  15.620 -0.7409 -0.2652  2.0144
12135TIP3    H257897   4.471   3.518  15.589 -0.4351 -0.3964  0.3553
12136TIP3   OH257898   0.233   3.261  13.529  0.0183 -0.2028  0.1032
12136TIP3    H157899   0.266   3.188  13.582  0.3467  0.4361  0.8014
12136TIP3    H257900   0.209   3.222  13.446  2.9444 -0.6376 -0.5999
12137TIP3   OH257901   1.439   0.632   1.760 -0.0196  0.0036 -0.5224
12137TIP3    H157902   1.502   0.692   1.798  2.4642 -0.5096 -3.6386
12137TIP3    H257903   1.355   0.657   1.799  1.6172  2.7027  1.3957
12138TIP3   OH257904   5.403   2.639  11.577  0.2301  0.1130  0.0900
12138TIP3    H157905   5.413   2.549  11.606 -0.5134 -0.3546 -1.0467
12138TIP3    H257906   5.491   2.676  11.583  1.1197 -1.5311 -2.1548
12139TIP3   OH257907   4.715   6.036  16.618  0.0802  0.4396 -0.2184
12139TIP3    H157908   4.749   5.994  16.697  0.2193 -1.3091 -1.1760
12139TIP3    H257909   4.746   6.127  16.624 -2.3718  1.1283  3.1407
12140TIP3   OH257910   0.546   2.616   5.891 -0.4419 -0.1743 -0.0843
12140TIP3    H157911   0.641   2.626   5.888 -0.5244  0.9405  0.9399
12140TIP3    H257912   0.531   2.557   5.965 -0.4896 -1.4122 -1.0431
12141TIP3   OH257913   1.664   4.457  14.737 -0.0633  0.4885  0.2034
12141TIP3    H157914   1.733   4.392  14.722 -0.4498  0.1729 -0.1982
12141TIP3    H257915   1.608   4.451  14.659 -0.3064  1.0426  0.3337
12142TIP3   OH257916   3.293   2.144   2.709 -0.3680  0.0063 -0.3859
12142TIP3    H157917   3.242   2.116   2.633 -2.1643 -1.1616  1.1882
12142TIP3    H257918   3.380   2.108   2.694 -0.7145 -0.2095 -1.8928
12143TIP3   OH257919   2.165   5.930  17.175 -0.0028 -0.6337 -0.2810
12143TIP3    H157920   2.088   5.890  17.216  1.2212 -2.0103  0.7708
12143TIP3    H257921   2.194   5.865  17.111 -0.1837  0.2355 -1.2503
12144TIP3   OH257922   5.784   2.134  14.624 -0.2900 -0.3208  0.6049
12144TIP3    H157923   5.858   2.073  14.625 -0.8075 -0.9559  1.1981
12144TIP3    H257924   5.816   2.212  14.669  1.9748  1.8078 -4.3723
12145TIP3   OH257925   0.303   3.261  13.142 -0.1827  0.8326  0.2092
12145TIP3    H157926   0.278   3.169  13.139  0.3753  0.7139 -0.9909
12145TIP3    H257927   0.399   3.260  13.150  0.2372  1.2811 -3.8710
12146TIP3   OH257928   6.334   0.753  14.770 -0.3351 -0.1893 -0.5135
12146TIP3    H157929   6.325   0.668  14.813 -1.7405 -0.0455 -0.5190
12146TIP3    H257930   6.257   0.761  14.714  1.1215 -0.0648 -2.5431
12147TIP3   OH257931   5.240   6.397  11.600 -0.1731 -0.2193  0.0518
12147TIP3    H157932   5.165   6.360  11.554 -1.0916 -2.1269  2.8875
12147TIP3    H257933   5.201   6.453  11.667  1.0573  1.1159 -0.3201
12148TIP3   OH257934   4.253   6.699   5.064 -0.0236  0.0031  0.0918
12148TIP3    H157935   4.337   6.738   5.042 -0.4923  0.1740 -1.4587
12148TIP3    H257936   4.188   6.756   5.023 -0.8745 -0.4286  0.8189
12149TIP3   OH257937   1.023   2.068  14.000  0.2236 -0.4862 -0.3406
12149TIP3    H157938   1.095   2.119  13.963  0.3366 -1.6996 -1.8144
12149TIP3    H257939   1.058   1.980  14.010 -0.3947 -0.6024  0.9555
12150TIP3   OH257940   3.082   0.303  13.185 -0.1212 -0.2094  0.0979
12150TIP3    H157941   3.002   0.350  13.207  0.4406  0.7327  0.1340
12150TIP3    H257942   3.129   0.296  13.268 -0.4242 -1.2706  0.1889
12151TIP3   OH257943   0.375   1.416   1.365 -0.0767  0.1202  0.1850
12151TIP3    H157944   0.357   1.509   1.382 -1.0686 -0.1274  0.4806
12151TIP3    H257945   0.302   1.370   1.405  0.8435 -0.8411  0.7641
12152TIP3   OH257946   3.575   2.426   1.354 -0.2081 -0.1576 -0.7600
12152TIP3    H157947   3.579   2.331   1.365  0.3162 -0.2395 -1.6882
12152TIP3    H257948   3.494   2.441   1.305 -1.5981  0.0779  1.4983
12153TIP3   OH257949   4.162   5.049  16.628  0.0947  0.1641 -0.2660
12153TIP3    H157950   4.176   5.074  16.719  1.3428  1.9727 -0.9342
12153TIP3    H257951   4.075   5.081  16.607  0.1224  0.4595  0.0627
12154TIP3   OH257952   1.765   4.343  10.109  0.0537 -0.4944 -0.0706
12154TIP3    H157953   1.807   4.388  10.183  0.9323  0.7349 -1.2987
12154TIP3    H257954   1.698   4.289  10.150 -0.0400  0.8100  1.5782
12155TIP3   OH257955   0.482   5.473   0.738 -0.3773  0.7064 -0.3029
12155TIP3    H157956   0.441   5.390   0.762 -0.6788  0.7166 -0.7817
12155TIP3    H257957   0.490   5.520   0.821 -0.9461  0.5283 -0.1429
12156TIP3   OH257958   3.611   0.566   1.877 -0.1532  0.7602  0.3643
12156TIP3    H157959   3.531   0.572   1.825  0.1571  2.7747  0.0710
12156TIP3    H257960   3.582   0.530   1.961 -1.0426 -0.3000 -0.3825
12157TIP3   OH257961   5.738   0.741   5.986  0.5701  0.6958  0.1875
12157TIP3    H157962   5.761   0.833   5.973  1.1636  0.2788 -1.7540
12157TIP3    H257963   5.821   0.699   6.008  1.0066 -0.0815 -2.8461
12158TIP3   OH257964   2.488   2.033   4.361  0.1176 -0.4881 -0.1748
12158TIP3    H157965   2.397   2.005   4.356 -0.3382  0.8602  0.2724
12158TIP3    H257966   2.496   2.101   4.294  0.3506  0.5286  0.8582
12159TIP3   OH257967   3.354   4.254  11.020  0.2243 -0.5542 -0.3802
12159TIP3    H157968   3.407   4.231  10.943 -1.0546  2.1784 -2.1458
12159TIP3    H257969   3.264   4.256  10.987 -0.3954  0.1424  1.3291
12160TIP3   OH257970   0.723   2.596   4.741 -0.1568  0.4075 -0.1298
12160TIP3    H157971   0.786   2.666   4.725  0.9251 -0.4146  0.5244
12160TIP3    H257972   0.754   2.522   4.690  0.3457 -0.5227  1.4794
12161TIP3   OH257973   0.243   0.106  15.234 -0.0203 -0.7073 -0.3646
12161TIP3    H157974   0.313   0.048  15.262  1.5687 -0.7393 -4.1327
12161TIP3    H257975   0.177   0.048  15.197  0.2325 -0.3432 -1.4016
12162TIP3   OH257976   1.146   5.781  14.539  0.3947 -0.3900  0.7751
12162TIP3    H157977   1.107   5.846  14.482  0.4377 -1.0706 -0.0455
12162TIP3    H257978   1.239   5.805  14.544  0.7797 -1.4007 -0.9790
12163TIP3   OH257979   5.243   1.735   1.643  0.7510 -0.0560  0.2452
12163TIP3    H157980   5.174   1.746   1.708  1.2404  0.1905  0.7321
12163TIP3    H257981   5.201   1.692   1.569  0.4812 -1.5311  1.2481
12164TIP3   OH257982   6.052   2.800   6.563  0.7351  0.7952 -0.0565
12164TIP3    H157983   6.050   2.711   6.529  4.1616 -0.3508  2.4516
12164TIP3    H257984   5.964   2.835   6.547 -0.7621 -3.1197 -0.7713
12165TIP3   OH257985   2.592   3.145   3.902 -0.2940  0.0334  0.7880
12165TIP3    H157986   2.654   3.213   3.928  0.2085 -0.0684 -0.1146
12165TIP3    H257987   2.646   3.066   3.890 -0.5743 -0.0409 -0.0598
12166TIP3   OH257988   3.716   3.780  12.497  0.0736 -0.0314  0.7231
12166TIP3    H157989   3.779   3.762  12.567  0.6960 -1.4846 -0.2076
12166TIP3    H257990   3.701   3.875  12.503 -0.7089 -0.2834  3.5221
12167TIP3   OH257991   0.472   1.501   1.120 -0.0410  0.2180 -1.0248
12167TIP3    H157992   0.389   1.546   1.135  0.5197  0.8810  0.1654
12167TIP3    H257993   0.489   1.453   1.201 -0.6122 -2.1574 -2.2644
12168TIP3   OH257994   1.951   5.561   0.958  0.1780 -0.4322 -0.4877
12168TIP3    H157995   1.901   5.594   0.884 -1.0088 -1.0659  0.0158
12168TIP3    H257996   1.920   5.471   0.970  1.0583 -0.6506  0.1584
12169TIP3   OH257997   4.738   2.685  13.760  0.7861 -0.2487 -0.3774
12169TIP3    H157998   4.676   2.746  13.801 -0.1821 -0.6158 -1.2715
12169TIP3    H257999   4.765   2.627  13.831 -0.9288 -0.9171 -0.2553
12170TIP3   OH258000   5.122   3.572   4.780  0.6806  0.0549  0.3283
12170TIP3    H158001   5.215   3.579   4.802  1.5169  1.2872 -3.2728
12170TIP3    H258002   5.079   3.637   4.836  2.3599  1.3143  0.1877
12171TIP3   OH258003   4.220   6.245  11.949  0.1774  0.3357  0.0287
12171TIP3    H158004   4.191   6.277  11.863 -0.3863  0.9451  0.4403
12171TIP3    H258005   4.161   6.173  11.970  0.6413 -0.1512 -0.3239
12172TIP3   OH258006   2.062   4.502   2.124  0.1276  0.1945 -0.3540
12172TIP3    H158007   2.125   4.430   2.123 -0.4346 -0.2956 -1.7619
12172TIP3    H258008   1.984   4.465   2.083 -0.5392  1.2811 -0.0690
12173TIP3   OH258009   1.476   0.781   2.120  0.1416  1.1889 -0.1229
12173TIP3    H158010   1.559   0.809   2.081  0.3036  0.1995 -0.4916
12173TIP3    H258011   1.437   0.862   2.153  0.7590  1.8091 -0.8988
12174TIP3   OH258012   2.442   3.015  17.007 -0.1228 -0.0260  0.1132
12174TIP3    H158013   2.404   2.944  16.957  0.5062 -0.6435  0.5036
12174TIP3    H258014   2.418   3.094  16.959  3.1046 -0.7927 -2.9282
12175TIP3   OH258015   5.616   2.571   6.637 -0.6048 -0.1821 -0.1682
12175TIP3    H158016   5.694   2.523   6.667  0.9594  1.0855 -2.0838
12175TIP3    H258017   5.551   2.503   6.619  0.7845 -1.4240 -0.5790
12176TIP3   OH258018   2.488   6.141   1.228 -0.0564  0.4215 -0.1724
12176TIP3    H158019   2.401   6.115   1.197 -0.0025  0.1131 -0.0577
12176TIP3    H258020   2.475   6.231   1.259 -0.3483  0.3573 -0.1031
12177TIP3   OH258021   1.325   1.952  13.299 -0.1965  0.4098 -0.7575
12177TIP3    H158022   1.389   1.993  13.356 -0.3744  2.7510 -2.1804
12177TIP3    H258023   1.277   1.892  13.356  1.6144  0.4626  0.8560
12178TIP3   OH258024   0.213   3.545   3.255 -0.5956 -0.2085  0.0663
12178TIP3    H158025   0.286   3.576   3.309 -0.8190  0.9218 -0.2851
12178TIP3    H258026   0.217   3.598   3.176  0.5506 -2.7166 -1.6616
12179TIP3   OH258027   0.305   3.271   0.636 -0.3118  0.0727 -0.2646
12179TIP3    H158028   0.351   3.352   0.659  2.8587 -1.3922 -1.2972
12179TIP3    H258029   0.276   3.285   0.546 -1.4528  0.7407  0.1792
12180TIP3   OH258030   3.014   2.789   6.629  0.3757 -0.3769 -0.9245
12180TIP3    H158031   3.108   2.791   6.610  0.7836  0.2029  0.9756
12180TIP3    H258032   3.009   2.754   6.718 -1.3927 -2.8348 -1.9407
12181TIP3   OH258033   1.414   0.931   0.617 -0.0037 -0.0764 -0.2273
12181TIP3    H158034   1.427   1.024   0.602  0.8798 -0.0755  0.4771
12181TIP3    H258035   1.365   0.900   0.541  0.0925  0.8737 -0.6754
12182TIP3   OH258036   3.328   1.518  10.434 -0.0308  0.1557  0.2966
12182TIP3    H158037   3.245   1.488  10.471 -0.9055  0.6140 -1.2340
12182TIP3    H258038   3.315   1.612  10.421  0.7448  0.2340  0.0608
12183TIP3   OH258039   4.981   4.297  14.670 -0.3286 -0.5638 -0.3118
12183TIP3    H158040   4.926   4.268  14.743 -1.2641  0.0385 -0.7785
12183TIP3    H258041   5.008   4.216  14.627  0.1781 -0.9229  0.6587
12184TIP3   OH258042   1.745   4.316   4.661 -0.1376  0.1699  0.0100
12184TIP3    H158043   1.816   4.272   4.614  1.6085  2.0848  0.7752
12184TIP3    H258044   1.758   4.291   4.752 -1.8553 -1.3180 -0.1351
12185TIP3   OH258045   5.841   2.004   5.374  0.5402  0.2700  0.1791
12185TIP3    H158046   5.897   1.978   5.301  0.5005 -0.5847  0.4527
12185TIP3    H258047   5.889   2.074   5.418  2.5793 -2.1443  1.9300
12186TIP3   OH258048   2.078   2.874  15.484  0.0828  0.0620 -0.0979
12186TIP3    H158049   2.033   2.957  15.470 -0.1726 -0.1627 -0.6073
12186TIP3    H258050   2.051   2.847  15.572  1.1271  1.1148  0.5646
12187TIP3   OH258051   2.473   1.759   2.974 -0.4112  0.2068  0.6159
12187TIP3    H158052   2.515   1.845   2.985 -0.5543  0.7321 -2.4763
12187TIP3    H258053   2.527   1.715   2.909 -0.8841 -1.7201  1.4970
12188TIP3   OH258054   4.384   0.014  12.976 -1.0435  0.0867  0.2373
12188TIP3    H158055   4.476   0.028  12.953 -1.3962  0.9030 -0.7378
12188TIP3    H258056   4.338   0.019  12.892 -2.0164  0.0210  0.7636
12189TIP3   OH258057   3.542   3.335  14.988  0.5723  0.4314  0.5202
12189TIP3    H158058   3.515   3.322  14.897 -0.5329  0.6138  0.8261
12189TIP3    H258059   3.583   3.422  14.988 -1.7033  1.5170  0.7186
12190TIP3   OH258060   4.512   4.247  12.333 -0.0851 -0.0371  1.2843
12190TIP3    H158061   4.493   4.153  12.323  1.5353 -0.2147 -0.5086
12190TIP3    H258062   4.599   4.257  12.295 -1.2987  2.6395 -0.8906
12191TIP3   OH258063   5.226   3.091  13.514  0.0854 -0.0033  0.0332
12191TIP3    H158064   5.136   3.106  13.542  0.4429  0.9980  0.6927
12191TIP3    H258065   5.274   3.168  13.545  1.1098 -0.3798 -0.5755
12192TIP3   OH258066   0.835   2.470  12.617 -0.0838  0.3996 -0.3927
12192TIP3    H158067   0.826   2.404  12.548  3.1540 -1.6319  1.0211
12192TIP3    H258068   0.808   2.425  12.697  3.6974  0.1963  0.8492
12193TIP3   OH258069   1.069   0.271  14.793 -0.2515 -0.2940 -0.0037
12193TIP3    H158070   1.070   0.306  14.704 -2.3948 -0.9611 -0.3393
12193TIP3    H258071   1.153   0.227  14.803  0.4160  0.6526 -1.3466
12194TIP3   OH258072   2.914   2.623   4.235  0.0625 -0.3811  0.2007
12194TIP3    H158073   2.850   2.552   4.245 -0.5037  0.4467  2.7590
12194TIP3    H258074   2.894   2.661   4.150 -0.3454 -2.5675 -0.7232
12195TIP3   OH258075   3.310   3.627  11.383 -0.2352  0.4515 -0.0763
12195TIP3    H158076   3.399   3.650  11.410 -0.0492 -0.6820  0.2859
12195TIP3    H258077   3.263   3.711  11.383  0.9718  1.1544 -0.8524
12196TIP3   OH258078   4.892   6.772   5.272 -0.4714  0.1575 -0.2966
12196TIP3    H158079   4.886   6.867   5.265 -1.6244  0.0240 -1.4763
12196TIP3    H258080   4.828   6.740   5.208 -1.7669 -1.3990  1.7225
12197TIP3   OH258081   3.596   6.078  14.320  0.1921  0.1543  0.5714
12197TIP3    H158082   3.543   6.033  14.386 -3.8907  3.8785  0.0879
12197TIP3    H258083   3.561   6.048  14.236  1.6197 -0.3653  0.1384
12198TIP3   OH258084   3.544   5.715  12.854  0.0604  0.6474  0.1316
12198TIP3    H158085   3.453   5.732  12.829  0.0894  2.1674  0.9979
12198TIP3    H258086   3.595   5.762  12.788  0.2357 -0.9804 -0.8985
12199TIP3   OH258087   3.761   6.225  14.804 -0.2740  0.2838 -0.1401
12199TIP3    H158088   3.798   6.147  14.763 -0.2558 -0.7951  1.8918
12199TIP3    H258089   3.835   6.264  14.851 -0.0198  2.1351 -1.9990
12200TIP3   OH258090   4.380   2.314   0.456  0.5613 -0.6470 -0.8290
12200TIP3    H158091   4.389   2.263   0.537  1.8806  0.1957 -0.4264
12200TIP3    H258092   4.446   2.277   0.397  1.0715  0.1523 -0.7665
12201TIP3   OH258093   1.599   4.273  15.665  0.2011 -0.0774  0.5505
12201TIP3    H158094   1.680   4.321  15.682  0.7099 -1.4383  2.1335
12201TIP3    H258095   1.610   4.238  15.577  0.7850  0.8266  0.2622
12202TIP3   OH258096   5.033   4.675   0.374 -0.3352  0.5141 -0.5842
12202TIP3    H158097   5.014   4.749   0.316 -1.0148  1.4188  0.7708
12202TIP3    H258098   5.036   4.714   0.461  1.2009 -0.7472 -0.0612
12203TIP3   OH258099   1.940   1.836   1.493 -0.2687  0.3068  0.0454
12203TIP3    H158100   1.986   1.803   1.571 -0.7551 -3.7615 -1.2809
12203TIP3    H258101   1.847   1.833   1.517 -0.3895 -0.5117 -0.4973
12204TIP3   OH258102   6.247   0.984  10.896  0.0521  0.5472  0.0565
12204TIP3    H158103   6.266   0.950  10.984 -0.3429  1.8726  0.6613
12204TIP3    H258104   6.268   0.911  10.838 -0.2045 -0.5363  1.2895
12205TIP3   OH258105   2.822   3.512  16.951  0.0230 -0.3016  0.0272
12205TIP3    H158106   2.768   3.590  16.936 -1.4091 -1.0440  1.2107
12205TIP3    H258107   2.908   3.535  16.914 -1.6321  0.0951 -3.7547
12206TIP3   OH258108   4.303   1.467  15.352 -0.1631  0.1590 -0.1486
12206TIP3    H158109   4.332   1.551  15.317 -1.1393  0.4777 -0.2086
12206TIP3    H258110   4.215   1.455  15.315 -0.9741  0.2240  1.7119
12207TIP3   OH258111   6.184   3.364  15.567  0.2122 -0.2899 -0.0968
12207TIP3    H158112   6.094   3.376  15.598  0.1189 -0.6982 -0.1993
12207TIP3    H258113   6.210   3.279  15.603  1.3501  0.8359  1.8175
12208TIP3   OH258114   1.991   1.113  15.027 -0.2903  0.8860 -0.1275
12208TIP3    H158115   2.073   1.112  14.978 -0.1923  0.4786  0.0477
12208TIP3    H258116   1.991   1.031  15.076 -0.1030  1.5648  1.0270
12209TIP3   OH258117   0.531   0.212  11.032 -0.5748 -0.0816 -0.4668
12209TIP3    H158118   0.616   0.196  10.990 -1.8257 -1.9443 -2.3779
12209TIP3    H258119   0.467   0.193  10.964 -2.5531  0.9947  1.0569
12210TIP3   OH258120   3.667   1.745   0.849  0.7299 -0.1821  0.1993
12210TIP3    H158121   3.659   1.829   0.895  0.5681  0.5360 -1.1278
12210TIP3    H258122   3.591   1.694   0.879  0.6040  0.2925  0.7011
12211TIP3   OH258123   0.329   5.305   4.033  0.6388 -0.2865 -0.0819
12211TIP3    H158124   0.340   5.318   3.939  0.0328 -0.0361 -0.1230
12211TIP3    H258125   0.295   5.388   4.066  2.1793  0.0802  0.5967
12212TIP3   OH258126   6.109   0.632  14.911 -0.0861  0.2110  0.3881
12212TIP3    H158127   6.031   0.607  14.960  0.3357 -0.2360  0.8383
12212TIP3    H258128   6.167   0.672  14.977  0.3719 -0.1431  0.2003
12213TIP3   OH258129   2.606   4.121   4.199  0.2608  0.0860  0.0897
12213TIP3    H158130   2.550   4.197   4.188  1.5403  1.3841  2.0959
12213TIP3    H258131   2.690   4.147   4.159  0.5584 -0.4277  0.3707
12214TIP3   OH258132   5.777   0.502  13.342  0.1581 -0.2617  0.0765
12214TIP3    H158133   5.772   0.497  13.247 -2.0991  0.4896  0.1243
12214TIP3    H258134   5.856   0.552  13.360 -0.1945  0.8592 -1.4390
12215TIP3   OH258135   0.539   2.362  13.440  0.1412  0.5308  0.7924
12215TIP3    H158136   0.598   2.411  13.497 -1.7981  2.9092  0.8119
12215TIP3    H258137   0.584   2.361  13.355  0.6777  1.4644  1.0574
12216TIP3   OH258138   4.893   3.692  14.084 -0.0718  0.0302 -0.5944
12216TIP3    H158139   4.840   3.613  14.069  0.1265 -0.0191 -1.0328
12216TIP3    H258140   4.842   3.763  14.046 -3.0357  1.0637  4.7418
12217TIP3   OH258141   0.848   0.143  12.168 -0.0130  0.5912  0.2714
12217TIP3    H158142   0.929   0.181  12.202 -0.3931  0.3235  1.4810
12217TIP3    H258143   0.855   0.050  12.188  0.7284  0.0481 -2.3187
12218TIP3   OH258144   6.698   2.163   6.008  0.1112 -0.1897 -0.5685
12218TIP3    H158145   6.766   2.116   5.960  2.0204  0.0936  1.7290
12218TIP3    H258146   6.649   2.095   6.054  0.5481 -0.2135 -0.1324
12219TIP3   OH258147   6.238   3.453   2.148 -0.3643 -0.0959 -0.5687
12219TIP3    H158148   6.268   3.414   2.230  0.2974 -0.6329 -1.0595
12219TIP3    H258149   6.144   3.468   2.162 -0.1310  0.4279  0.5145
12220TIP3   OH258150   4.646   3.603   3.326 -0.2269  0.0450  0.0613
12220TIP3    H158151   4.676   3.694   3.316  1.2253 -0.5899 -1.4719
12220TIP3    H258152   4.667   3.561   3.243 -1.9136 -1.4335  0.3528
12221TIP3   OH258153   6.603   2.351   4.921  0.1840 -0.2166  0.0968
12221TIP3    H158154   6.610   2.302   5.003 -1.6834 -0.3096  0.2345
12221TIP3    H258155   6.693   2.361   4.891  0.8169 -1.0722  1.6360
12222TIP3   OH258156   5.215   5.175  17.261  0.0882 -0.1926 -0.4766
12222TIP3    H158157   5.191   5.148  17.349 -0.5269 -0.6313 -0.7779
12222TIP3    H258158   5.269   5.253  17.274 -1.2783  0.6582  0.2061
12223TIP3   OH258159   0.227   5.191  16.272  0.1706  0.3168 -0.6806
12223TIP3    H158160   0.203   5.263  16.213 -0.7248  0.4201 -0.1867
12223TIP3    H258161   0.156   5.186  16.335 -0.2853 -1.6897 -1.3221
12224TIP3   OH258162   1.067   1.210  14.649  0.4944  0.2980 -0.2478
12224TIP3    H158163   1.108   1.255  14.723  1.3151  0.1180 -0.5883
12224TIP3    H258164   1.047   1.280  14.587  0.5478  0.3538 -0.2022
12225TIP3   OH258165   5.343   3.408  14.075 -0.5360 -0.0271 -0.1169
12225TIP3    H158166   5.359   3.421  14.168 -0.3669 -1.0655  0.0042
12225TIP3    H258167   5.302   3.489  14.046 -1.5642 -0.0865  1.0995
12226TIP3   OH258168   4.060   6.732  14.975 -0.1215  0.2254 -0.2524
12226TIP3    H158169   3.982   6.678  14.969  1.6923 -2.4150 -0.7252
12226TIP3    H258170   4.104   6.722  14.890  1.2914  0.7771  0.3890
12227TIP3   OH258171   3.650   1.966   5.698  0.0635  0.5610  0.2147
12227TIP3    H158172   3.564   1.952   5.736 -0.8456  1.1557 -1.5505
12227TIP3    H258173   3.647   1.917   5.615  0.8847  1.7831 -0.5528
12228TIP3   OH258174   4.600   1.041  13.159 -0.3328  0.1652 -0.1222
12228TIP3    H158175   4.522   1.088  13.131 -0.7931 -0.7069 -0.3398
12228TIP3    H258176   4.667   1.108  13.169 -0.8767  0.8092 -0.7893
12229TIP3   OH258177   6.601   6.069  12.170  0.7019 -1.0180 -0.0112
12229TIP3    H158178   6.674   6.021  12.130  0.5118 -1.7959  0.5532
12229TIP3    H258179   6.533   6.070  12.103 -0.1696 -3.5905  0.7332
12230TIP3   OH258180   2.211   6.150   0.125  0.1175 -0.2443 -0.1960
12230TIP3    H158181   2.305   6.149   0.144  0.2586  1.4715 -0.7305
12230TIP3    H258182   2.201   6.092   0.049  0.7715 -0.3157 -0.2276
12231TIP3   OH258183   4.942   5.995   0.600 -0.0979  0.3576 -0.0087
12231TIP3    H158184   4.888   6.022   0.525 -0.4665  0.5103  0.3083
12231TIP3    H258185   5.004   6.067   0.612  0.6895 -0.1636 -0.8570
12232TIP3   OH258186   0.828   6.627   2.698 -0.6122 -0.4754  0.3042
12232TIP3    H158187   0.749   6.613   2.645 -1.0179 -2.1799  1.3084
12232TIP3    H258188   0.887   6.557   2.671  1.4754  2.1031 -2.0400
12233TIP3   OH258189   5.957   6.590   5.329  0.0803  0.1160 -0.8546
12233TIP3    H158190   5.910   6.508   5.340 -1.4268  1.1756  1.0943
12233TIP3    H258191   5.889   6.654   5.308  0.6906  1.5241  1.2269
12234TIP3   OH258192   1.763   5.245  16.014  0.5079  0.0520 -0.1660
12234TIP3    H158193   1.795   5.156  16.024  1.0264  0.1892 -0.5996
12234TIP3    H258194   1.693   5.238  15.950 -0.5740 -0.2991  1.0255
12235TIP3   OH258195   0.516   1.910   2.389  0.8150 -0.3276 -0.1170
12235TIP3    H158196   0.434   1.902   2.341  0.4434  0.0291  0.4589
12235TIP3    H258197   0.581   1.930   2.321  0.1564  0.9751 -0.3829
12236TIP3   OH258198   3.617   4.110   0.829 -0.7078 -0.1278 -0.1453
12236TIP3    H158199   3.526   4.127   0.803  0.4599  0.2332 -4.3008
12236TIP3    H258200   3.638   4.026   0.787  1.4258  0.6709 -0.7135
12237TIP3   OH258201   3.326   5.107   2.119 -0.3056  0.1406  0.5212
12237TIP3    H158202   3.318   5.056   2.038 -2.6138  1.4994 -0.1657
12237TIP3    H258203   3.416   5.138   2.120 -0.8379  2.0313 -2.7514
12238TIP3   OH258204   0.106   5.925   1.755 -0.2771 -0.1141 -0.1964
12238TIP3    H158205   0.104   5.847   1.811 -2.4405 -0.2556 -0.4072
12238TIP3    H258206   0.131   5.996   1.814  2.3233 -1.0258 -0.1354
12239TIP3   OH258207   5.221   3.365  14.831 -0.1732 -0.0884  1.0561
12239TIP3    H158208   5.144   3.420  14.842  0.3095  0.0077  4.5192
12239TIP3    H258209   5.224   3.345  14.737 -2.6753  2.3663  0.4088
12240TIP3   OH258210   3.577   3.793  15.384  1.0007 -0.4346  0.0870
12240TIP3    H158211   3.575   3.712  15.435 -0.9645  0.4501  1.5212
12240TIP3    H258212   3.493   3.793  15.337  1.0684  0.6491 -0.0484
12241TIP3   OH258213   3.191   2.074  11.018  0.2187  0.0907  0.5091
12241TIP3    H158214   3.268   2.108  11.064  0.8358 -0.8593  0.2072
12241TIP3    H258215   3.126   2.143  11.025  1.2954  1.1392  0.2672
12242TIP3   OH258216   5.425   0.569  11.682  0.4469 -0.2698  0.2406
12242TIP3    H158217   5.399   0.514  11.755 -0.9677  1.5444  1.1418
12242TIP3    H258218   5.502   0.618  11.713  0.5947 -0.3976  0.0811
12243TIP3   OH258219   3.662   1.305  13.438 -0.4502 -0.0421  0.0317
12243TIP3    H158220   3.673   1.210  13.429 -1.9213 -0.3541  1.2639
12243TIP3    H258221   3.626   1.333  13.354 -2.0047 -0.9284  0.3743
12244TIP3   OH258222   6.072   6.671  15.546  0.5198 -0.3369 -0.4416
12244TIP3    H158223   6.142   6.720  15.502  0.9023  1.1641  1.7375
12244TIP3    H258224   6.082   6.581  15.514  2.3129  0.2240 -1.5281
12245TIP3   OH258225   6.520   4.563   4.307  0.0467  0.4506 -0.2485
12245TIP3    H158226   6.469   4.482   4.316 -0.2437  0.4526 -1.7073
12245TIP3    H258227   6.457   4.627   4.272  0.1290  1.4783  1.3996
12246TIP3   OH258228   5.173   0.104   5.528 -0.7565 -0.2582 -0.0832
12246TIP3    H158229   5.205   0.144   5.447 -1.6627 -0.6088 -0.6184
12246TIP3    H258230   5.146   0.016   5.503 -1.0941 -0.3501  0.5818
12247TIP3   OH258231   0.786   4.748   3.643 -0.1181 -0.0152  0.0397
12247TIP3    H158232   0.740   4.830   3.627  1.4685  0.9077  0.1293
12247TIP3    H258233   0.802   4.712   3.556  1.4274  1.0383 -0.1246
12248TIP3   OH258234   3.105   4.731   3.703  0.4939  0.2213  0.0548
12248TIP3    H158235   3.142   4.719   3.791  2.4263 -0.6418 -0.8384
12248TIP3    H258236   3.032   4.670   3.699 -0.7730  1.5719  1.6825
12249TIP3   OH258237   1.848   3.065   0.715 -0.7423  0.0988  0.2442
12249TIP3    H158238   1.920   3.113   0.757 -0.0614 -0.9638  0.3087
12249TIP3    H258239   1.851   3.094   0.624  0.1853 -0.4090  0.1032
12250TIP3   OH258240   0.097   6.759   1.462 -0.1315  0.1962  0.7924
12250TIP3    H158241   0.079   6.843   1.419 -2.4950  0.5690  2.4473
12250TIP3    H258242   0.042   6.697   1.415  2.0625 -0.6016 -0.8248
12251TIP3   OH258243   1.433   1.712  14.069  0.0996  0.9748  0.1450
12251TIP3    H158244   1.436   1.742  13.978  2.9102  0.4525  0.0229
12251TIP3    H258245   1.480   1.780  14.117  0.4640  0.2126  0.8797
12252TIP3   OH258246   3.621   1.274  14.402  0.1307 -0.7121 -0.4681
12252TIP3    H158247   3.601   1.298  14.493  1.7909 -0.3947 -0.1731
12252TIP3    H258248   3.633   1.358  14.357  3.2536 -0.8689 -0.0504
12253TIP3   OH258249   2.949   4.707   2.677  0.2949  0.4422  0.0530
12253TIP3    H158250   2.874   4.718   2.619  0.5824  3.9605  0.2096
12253TIP3    H258251   3.022   4.687   2.619  1.2084  6.7346 -1.4150
12254TIP3   OH258252   2.555   6.705   0.486  0.2092  0.5535  0.1585
12254TIP3    H158253   2.598   6.710   0.400 -0.0403 -1.3843 -0.1134
12254TIP3    H258254   2.609   6.643   0.536  0.1717  1.4294  1.3000
12255TIP3   OH258255   3.203   6.079  15.322  1.0680  0.0744 -0.2603
12255TIP3    H158256   3.279   6.133  15.346 -1.0445  1.7991  2.9378
12255TIP3    H258257   3.172   6.044  15.405 -0.0898 -2.7988 -1.8440
12256TIP3   OH258258   0.486   6.462   4.500  0.6385  0.0952  0.6021
12256TIP3    H158259   0.398   6.499   4.510  0.8209  1.1969 -1.4164
12256TIP3    H258260   0.504   6.419   4.583 -1.3280  0.8956  1.4792
12257TIP3   OH258261   3.848   4.135   5.393 -0.3262  0.2630 -0.0928
12257TIP3    H158262   3.768   4.136   5.445  0.0848  2.9625  0.5761
12257TIP3    H258263   3.846   4.051   5.347 -2.7840 -0.3475  1.0489
12258TIP3   OH258264   3.362   6.643  14.463  0.1650 -0.1606  0.4225
12258TIP3    H158265   3.428   6.667  14.528 -0.6576  1.6036  0.6515
12258TIP3    H258266   3.327   6.559  14.493 -0.7016  0.9507  2.6799
12259TIP3   OH258267   0.616   1.991   2.915  0.3137 -0.5395 -0.3919
12259TIP3    H158268   0.634   2.033   2.831 -2.0381  0.5011 -0.4146
12259TIP3    H258269   0.536   1.941   2.899  0.4584 -1.2040  0.9477
12260TIP3   OH258270   3.906   3.953   6.398  0.3572  0.1199 -0.6317
12260TIP3    H158271   3.976   4.012   6.426  2.4478 -2.0017 -1.2161
12260TIP3    H258272   3.853   3.941   6.477  2.2549 -0.4150  0.6156
12261TIP3   OH258273   5.322   1.068   4.972  0.1902 -0.6658  0.3567
12261TIP3    H158274   5.309   1.019   4.891 -0.1416  0.3891 -0.2342
12261TIP3    H258275   5.252   1.038   5.030  0.3928 -1.3771  0.2390
12262TIP3   OH258276   1.404   2.872   1.696 -0.9563  0.4469  0.1281
12262TIP3    H158277   1.317   2.866   1.656 -1.0544 -2.6413  0.7368
12262TIP3    H258278   1.454   2.802   1.656  1.2744  2.1263 -0.1298
12263TIP3   OH258279   6.253   5.233  16.643  0.1369 -0.2508 -0.1085
12263TIP3    H158280   6.177   5.210  16.698 -0.8662 -0.2072 -1.4642
12263TIP3    H258281   6.218   5.295  16.579  1.3431 -0.1774 -0.7001
12264TIP3   OH258282   0.599   6.520  14.362 -0.0730  0.1570 -0.2578
12264TIP3    H158283   0.611   6.586  14.294 -2.5008  0.2554 -0.6174
12264TIP3    H258284   0.578   6.440  14.314 -0.9060  0.0153  0.3330
12265TIP3   OH258285   4.469   3.518  15.113  0.2325  0.1700 -0.2935
12265TIP3    H158286   4.521   3.595  15.136 -0.8427  0.9689 -0.5492
12265TIP3    H258287   4.444   3.531  15.022  0.5824 -0.7888 -0.5356
12266TIP3   OH258288   6.018   3.629   3.520  0.3294 -0.6948  0.0479
12266TIP3    H158289   5.953   3.672   3.577 -1.8971 -0.2172 -2.7406
12266TIP3    H258290   6.091   3.690   3.518 -0.7253  0.6120  0.1973
12267TIP3   OH258291   6.030   1.339  16.015 -0.4236  0.3365  0.5098
12267TIP3    H158292   6.062   1.303  15.932 -0.0599 -1.4969  1.3995
12267TIP3    H258293   6.090   1.304  16.081  1.4503  4.6107  1.2270
12268TIP3   OH258294   5.086   3.818  13.826  0.7566  0.0156  0.3439
12268TIP3    H158295   4.991   3.824  13.813  0.4826 -2.9421  0.5737
12268TIP3    H258296   5.121   3.895  13.783 -1.5992  0.0163 -1.6872
12269TIP3   OH258297   2.291   3.810  16.628 -0.5754  0.8065 -0.0453
12269TIP3    H158298   2.213   3.865  16.626  0.2979  2.0232 -1.6541
12269TIP3    H258299   2.283   3.761  16.710 -2.9259  1.0334 -0.0986
12270TIP3   OH258300   4.060   4.705   5.359 -0.0792 -0.2774 -0.4381
12270TIP3    H158301   4.028   4.649   5.430  1.6420 -3.4866 -2.0397
12270TIP3    H258302   3.995   4.694   5.289 -0.7248  1.2512 -0.0760
12271TIP3   OH258303   6.791   1.548   1.326  0.2432 -0.1389  0.2762
12271TIP3    H158304   6.806   1.477   1.264  1.6774  0.2444  0.1736
12271TIP3    H258305   6.840   1.622   1.291  1.6468 -0.1208  2.1972
12272TIP3   OH258306   5.523   6.425  12.011 -0.1180  0.1766  0.0937
12272TIP3    H158307   5.605   6.434  12.060 -0.5248  0.9678  0.6441
12272TIP3    H258308   5.486   6.513  12.010  0.1447  0.2903 -2.1117
12273TIP3   OH258309   1.960   0.285  14.532  0.1531  0.0155 -0.2549
12273TIP3    H158310   1.873   0.314  14.559 -0.4780 -1.1829 -0.9725
12273TIP3    H258311   1.974   0.203  14.580  1.7704  1.2704  1.4843
12274TIP3   OH258312   6.483   2.859  15.815  0.4903 -0.5012 -0.2619
12274TIP3    H158313   6.527   2.823  15.739 -1.1603 -0.2527 -1.3581
12274TIP3    H258314   6.520   2.947  15.825  1.5813 -0.9838 -0.0321
12275TIP3   OH258315   3.411   4.739  15.121 -0.1732  0.2340  0.3290
12275TIP3    H158316   3.399   4.737  15.026  0.4624 -1.0593  0.2652
12275TIP3    H258317   3.471   4.812  15.137  1.8749 -1.2324 -0.5294
12276TIP3   OH258318   5.449   2.999  12.531 -0.3316 -0.4160  0.3040
12276TIP3    H158319   5.521   3.011  12.594  0.2334  0.7592 -0.5397
12276TIP3    H258320   5.383   3.064  12.557 -0.3339 -0.3080  0.0355
12277TIP3   OH258321   4.147   4.201  14.772  0.2198 -0.0954  0.1577
12277TIP3    H158322   4.104   4.283  14.797  0.6013 -0.2289  1.3239
12277TIP3    H258323   4.143   4.199  14.677 -0.4427  0.9264  0.1565
12278TIP3   OH258324   2.833   6.659  15.203 -0.0822  0.0896  0.0999
12278TIP3    H158325   2.746   6.657  15.163  0.6823  0.5539 -1.6175
12278TIP3    H258326   2.849   6.568  15.231 -1.1264  0.0186  0.4767
12279TIP3   OH258327   0.655   5.593  11.190  0.1507 -0.2905  0.0389
12279TIP3    H158328   0.718   5.663  11.173 -0.2816  0.6313  2.0619
12279TIP3    H258329   0.686   5.552  11.271  0.2004 -2.2196 -0.9410
12280TIP3   OH258330   1.953   1.832   0.893 -0.2015 -0.3168 -0.0545
12280TIP3    H158331   1.896   1.811   0.819  1.0928  0.9875 -1.4838
12280TIP3    H258332   1.957   1.928   0.894  0.2552 -0.3448  1.3390
12281TIP3   OH258333   6.148   6.729   5.479  0.7390 -0.1116  0.4574
12281TIP3    H158334   6.099   6.656   5.440 -0.3289  0.8099  0.0431
12281TIP3    H258335   6.137   6.718   5.573 -0.6974  0.3697  0.3574
12282TIP3   OH258336   1.056   5.133  13.784 -0.2266 -0.2683  0.6080
12282TIP3    H158337   1.059   5.142  13.689  0.4573 -0.9218  0.5631
12282TIP3    H258338   0.976   5.180  13.811 -0.6459 -0.4533 -0.3191
12283TIP3   OH258339   5.174   4.893  10.844 -0.5619 -0.2137 -0.1002
12283TIP3    H158340   5.166   4.966  10.783 -0.1315 -1.9149 -2.2375
12283TIP3    H258341   5.269   4.880  10.853 -0.6417 -0.6355  0.1214
12284TIP3   OH258342   3.118   0.065  13.444 -0.1952  0.2746 -0.4079
12284TIP3    H158343   3.121   0.102  13.532  0.0974 -0.3161 -0.1732
12284TIP3    H258344   3.059  -0.010  13.451  2.6165 -1.9657  0.1114
12285TIP3   OH258345   6.137   1.660  15.548  0.1964  0.0104  0.2252
12285TIP3    H158346   6.123   1.635  15.457  0.7745  1.0328 -0.1471
12285TIP3    H258347   6.147   1.755  15.546  1.8517 -0.1294  1.1466
12286TIP3   OH258348   3.964   0.542   4.888 -0.1627 -0.1565 -0.3979
12286TIP3    H158349   3.960   0.472   4.823 -0.1072 -1.0745  0.5725
12286TIP3    H258350   3.896   0.520   4.952  0.6591  0.0277  0.5503
12287TIP3   OH258351   2.733   2.063  14.117  0.0676 -0.2708 -0.3065
12287TIP3    H158352   2.643   2.031  14.121  0.3275 -0.9041  0.8053
12287TIP3    H258353   2.726   2.158  14.127 -0.4697 -0.3309 -0.0970
12288TIP3   OH258354   5.003   0.086   0.428 -0.2749  0.4811 -0.4919
12288TIP3    H158355   5.075   0.103   0.489 -1.5728  0.1905  1.1455
12288TIP3    H258356   4.995  -0.009   0.426 -0.2814  0.4905 -1.0795
12289TIP3   OH258357   2.349   3.924   4.725 -0.2390 -0.1875  0.3265
12289TIP3    H158358   2.283   3.865   4.762 -0.7704 -0.5977 -1.2502
12289TIP3    H258359   2.413   3.865   4.685  1.3340  0.1888  2.2101
12290TIP3   OH258360   3.414   0.217  16.874 -0.0145  0.1189  0.8499
12290TIP3    H158361   3.494   0.241  16.827 -1.0462  1.0952 -0.4551
12290TIP3    H258362   3.444   0.181  16.957  1.8072 -0.2896  0.0352
12291TIP3   OH258363   5.426   5.615  16.957 -0.3755  0.0846 -0.6787
12291TIP3    H158364   5.516   5.596  16.984 -0.6023  1.5188  1.1331
12291TIP3    H258365   5.427   5.709  16.937 -1.1435 -0.1830 -2.0376
12292TIP3   OH258366   1.136   3.611   3.770  0.3671  0.4747 -0.0970
12292TIP3    H158367   1.164   3.700   3.791 -1.1686  1.5407 -2.3496
12292TIP3    H258368   1.048   3.604   3.805  0.5954 -0.2710  0.3442
12293TIP3   OH258369   2.461   4.492  12.577  0.6350  0.1035  0.1180
12293TIP3    H158370   2.385   4.433  12.582  1.9833 -1.5543  1.7404
12293TIP3    H258371   2.466   4.533  12.663  3.5168 -2.3664  1.2265
12294TIP3   OH258372   0.915   0.776  12.756 -0.0596 -0.0970  0.3393
12294TIP3    H158373   0.880   0.837  12.691 -1.1631 -0.5358  0.4995
12294TIP3    H258374   0.873   0.692  12.734  0.0351 -0.3773  1.2311
12295TIP3   OH258375   4.457   0.174  15.964  0.3295  0.2909  0.7019
12295TIP3    H158376   4.506   0.185  15.883  1.4052  0.1121  1.3050
12295TIP3    H258377   4.427   0.262  15.987 -0.2471  0.2895 -0.0505
12296TIP3   OH258378   5.906   6.041   2.174  0.4219  0.1291 -0.4687
12296TIP3    H158379   5.961   6.008   2.103 -0.5279 -0.9025 -0.7326
12296TIP3    H258380   5.908   5.972   2.240  2.0394  1.4517  0.9436
12297TIP3   OH258381   0.603   6.745  12.189 -0.1323  0.0093 -0.1209
12297TIP3    H158382   0.534   6.764  12.125 -0.3618  0.3205  0.2234
12297TIP3    H258383   0.588   6.653  12.213 -2.1169  0.8323  2.0029
12298TIP3   OH258384   3.560   2.313  13.900  0.4085  0.4056 -0.4867
12298TIP3    H158385   3.548   2.218  13.909  0.0204  0.4563 -0.4798
12298TIP3    H258386   3.493   2.351  13.956 -1.9363  0.7281 -3.4012
12299TIP3   OH258387   3.279   1.065  15.886  0.2348 -0.1090 -0.1129
12299TIP3    H158388   3.320   1.022  15.811 -1.6105 -1.0408 -0.6156
12299TIP3    H258389   3.324   1.028  15.962 -0.9706 -2.6025 -0.5596
12300TIP3   OH258390   4.112   4.563   4.499  0.6189  0.2544  0.3529
12300TIP3    H158391   4.174   4.490   4.500  1.2950  0.8046 -1.4846
12300TIP3    H258392   4.132   4.612   4.420 -1.1532  1.3143  0.5245
12301TIP3   OH258393   4.986   3.189   6.361 -0.3855  0.7186 -0.3900
12301TIP3    H158394   4.944   3.128   6.421  0.0300 -1.3020 -2.0971
12301TIP3    H258395   4.990   3.272   6.409  1.9785 -1.3806  3.1937
12302TIP3   OH258396   3.085   5.398   3.745 -0.4318 -0.3020  0.6931
12302TIP3    H158397   3.081   5.308   3.711 -1.5382  0.5811 -1.5814
12302TIP3    H258398   3.151   5.441   3.691 -1.5852  0.8967  0.2251
12303TIP3   OH258399   5.400   2.925   5.518 -0.3495 -0.1879 -0.4970
12303TIP3    H158400   5.337   2.925   5.447  0.2075  1.5007 -0.9982
12303TIP3    H258401   5.380   2.845   5.568 -2.0324 -0.3273 -1.3772
12304TIP3   OH258402   2.449   3.034   2.280  0.3830 -0.0541  0.2427
12304TIP3    H158403   2.383   2.965   2.290 -0.2472  0.5825  0.4898
12304TIP3    H258404   2.499   3.008   2.203 -1.6646  0.6987 -1.3729
12305TIP3   OH258405   5.607   3.052  13.049 -0.1681  0.1183  0.0477
12305TIP3    H158406   5.545   2.984  13.024  0.1724  0.4518 -1.7663
12305TIP3    H258407   5.597   3.120  12.982  3.3051 -0.5604 -1.2956
12306TIP3   OH258408   2.912   4.659  14.089 -0.1105  0.4378 -0.3937
12306TIP3    H158409   2.849   4.587  14.093 -0.8821  1.0883 -0.7246
12306TIP3    H258410   2.859   4.738  14.102  0.6372  0.9908 -0.6690
12307TIP3   OH258411   4.855   3.188  14.980  0.6324 -0.0697 -0.1242
12307TIP3    H158412   4.768   3.192  15.019  1.1362 -2.2165  1.3303
12307TIP3    H258413   4.846   3.231  14.895 -1.4330  1.2143  0.7202
12308TIP3   OH258414   3.702   4.312  12.437 -0.3004  0.6261  0.5121
12308TIP3    H158415   3.762   4.387  12.432 -2.1799  2.0717 -1.6068
12308TIP3    H258416   3.628   4.344  12.488 -0.5307 -0.1952  0.6919
12309TIP3   OH258417   0.194   2.107  14.150 -0.2036 -0.2694  0.0725
12309TIP3    H158418   0.117   2.051  14.161 -0.0033 -0.7927 -1.1313
12309TIP3    H258419   0.262   2.066  14.203 -0.7931  0.3095  1.3080
12310TIP3   OH258420   2.712   1.838  11.690 -0.2205 -0.1349 -0.5905
12310TIP3    H158421   2.648   1.906  11.710 -0.3820 -0.8156  1.2653
12310TIP3    H258422   2.751   1.866  11.607  1.0670  3.2233  1.0389
12311TIP3   OH258423   1.793   1.363   5.799  0.0880  0.6840 -0.4987
12311TIP3    H158424   1.767   1.443   5.844 -0.9003  0.8221 -1.3003
12311TIP3    H258425   1.853   1.319   5.860 -1.9452  0.4160  1.3582
12312TIP3   OH258426   0.056   6.110  12.757  0.1244 -0.0641  0.1572
12312TIP3    H158427  -0.008   6.151  12.815 -0.3917 -0.7989  0.1004
12312TIP3    H258428   0.042   6.016  12.766  1.0835 -0.2304  0.0214
12313TIP3   OH258429   4.331   1.217  17.246  0.2881  0.4291 -0.3241
12313TIP3    H158430   4.299   1.206  17.336  0.8101 -0.5155 -0.2517
12313TIP3    H258431   4.404   1.278  17.254  0.7359 -0.1438 -0.0197
12314TIP3   OH258432   0.172   6.231   4.205 -0.3202  0.1720 -0.1335
12314TIP3    H158433   0.131   6.208   4.288 -1.9783  0.1058 -0.9534
12314TIP3    H258434   0.231   6.158   4.186 -1.5293 -0.8543 -0.0455
12315TIP3   OH258435   6.122   5.371   0.686 -0.0183 -0.5256 -0.5595
12315TIP3    H158436   6.043   5.380   0.633 -1.4711 -1.6268  1.3781
12315TIP3    H258437   6.181   5.318   0.632 -0.4718  0.5546 -2.1397
12316TIP3   OH258438   5.464   5.141  15.825 -0.2088  0.4982  0.0416
12316TIP3    H158439   5.513   5.168  15.902 -0.1781  0.9594 -0.1404
12316TIP3    H258440   5.531   5.116  15.761 -0.2019  1.3810 -0.2996
12317TIP3   OH258441   0.334   0.499  10.787 -0.4892 -0.0890 -0.2012
12317TIP3    H158442   0.335   0.587  10.751 -2.3598  0.4972  1.0967
12317TIP3    H258443   0.394   0.503  10.862  0.4318 -0.2918 -0.9135
12318TIP3   OH258444   3.755   0.166   5.558 -0.0018 -0.3992  0.5893
12318TIP3    H158445   3.837   0.192   5.601 -0.3269  0.0407  0.9473
12318TIP3    H258446   3.738   0.078   5.592  0.9987 -1.0332 -0.4839
12319TIP3   OH258447   3.893   2.049   2.029  0.8986  0.6411 -0.1984
12319TIP3    H158448   3.830   2.064   2.100  1.0372 -0.4714  0.1748
12319TIP3    H258449   3.875   2.118   1.966 -1.6397 -0.4904 -0.7701
12320TIP3   OH258450   2.357   6.080  14.090  0.4237 -0.1514 -0.1734
12320TIP3    H158451   2.361   6.145  14.020 -0.3975 -0.1792 -0.2493
12320TIP3    H258452   2.265   6.077  14.115  0.5425 -0.9043  0.1904
12321TIP3   OH258453   4.896   1.172   5.617 -0.0429  0.4673  0.2591
12321TIP3    H158454   4.978   1.129   5.644  0.0222  1.2784  1.4184
12321TIP3    H258455   4.868   1.221   5.695 -1.4982  0.4105 -0.2108
12322TIP3   OH258456   1.825   4.733   3.930  0.2507 -0.0037 -0.5794
12322TIP3    H158457   1.750   4.682   3.960  0.8839  0.0811  1.1974
12322TIP3    H258458   1.802   4.824   3.947  0.2653  0.1111 -1.1573
12323TIP3   OH258459   3.555   5.634   5.332  0.3903 -0.1931  0.3681
12323TIP3    H158460   3.535   5.553   5.378 -0.3363 -0.2347 -0.0213
12323TIP3    H258461   3.589   5.606   5.247 -1.6553 -0.0876 -0.5186
12324TIP3   OH258462   6.373   3.350   0.284 -0.4259  0.3050  0.0791
12324TIP3    H158463   6.447   3.341   0.344  0.4401  1.3542 -0.8250
12324TIP3    H258464   6.332   3.433   0.307 -1.6229 -0.4940  0.8915
12325TIP3   OH258465   4.386   4.349  11.260  0.5638  0.0667  0.0849
12325TIP3    H158466   4.303   4.312  11.231 -0.2786  0.8313  1.4785
12325TIP3    H258467   4.437   4.273  11.289 -0.6495 -0.1909  1.6635
12326TIP3   OH258468   2.294   2.994   3.851  0.8435  0.1881  0.0690
12326TIP3    H158469   2.256   3.081   3.858  0.3752 -0.0977  1.3122
12326TIP3    H258470   2.340   2.994   3.767  0.7267  1.5740 -0.0038
12327TIP3   OH258471   2.061   2.823   4.132 -0.0664 -0.2535  0.1900
12327TIP3    H158472   2.093   2.788   4.049  1.1749 -0.1448  0.5989
12327TIP3    H258473   1.999   2.758   4.164  1.2875 -1.4904  0.3571
12328TIP3   OH258474   4.182   1.366  13.341  0.4300 -0.1655 -0.3634
12328TIP3    H158475   4.114   1.304  13.315  0.1128 -0.5973  1.4131
12328TIP3    H258476   4.254   1.311  13.373  1.0916  0.3238 -0.9978
12329TIP3   OH258477   6.704   2.783  10.629 -0.1071 -0.3225  0.6595
12329TIP3    H158478   6.786   2.782  10.580 -0.3259 -0.3587  0.2825
12329TIP3    H258479   6.688   2.691  10.651 -0.2916 -0.3801  0.3029
12330TIP3   OH258480   5.654   5.492  15.878  0.3368 -0.9073 -0.0215
12330TIP3    H158481   5.573   5.527  15.916 -1.0199 -2.8091 -1.0536
12330TIP3    H258482   5.717   5.496  15.949 -1.0592 -0.6784  1.2407
12331TIP3   OH258483   1.323   6.693   3.476 -0.3964  0.5114 -0.4700
12331TIP3    H158484   1.308   6.785   3.499 -1.0448  0.7543 -1.7987
12331TIP3    H258485   1.267   6.644   3.537 -1.0476  1.0715 -0.6022
12332TIP3   OH258486   5.948   5.102   1.531  0.4468 -0.2199  0.5712
12332TIP3    H158487   6.023   5.161   1.519  0.7224  0.0486  3.3105
12332TIP3    H258488   5.948   5.047   1.453  0.5023  3.0410 -1.7977
12333TIP3   OH258489   1.133   3.443   5.706 -0.3647 -0.6216 -0.0117
12333TIP3    H158490   1.104   3.465   5.795  1.9727 -2.0524  1.1388
12333TIP3    H258491   1.225   3.468   5.704 -0.4193 -0.5103 -2.1044
12334TIP3   OH258492   0.131   3.860   4.195 -0.3950 -0.1502 -1.0003
12334TIP3    H158493   0.109   3.927   4.260  0.4220 -0.0304 -0.8461
12334TIP3    H258494   0.182   3.795   4.243  0.1140 -0.1185 -1.4935
12335TIP3   OH258495   4.287   3.774   5.674  0.1332  0.1223  0.3229
12335TIP3    H158496   4.199   3.805   5.696 -0.0053  0.7163 -0.9785
12335TIP3    H258497   4.297   3.693   5.723 -1.0501  0.1854  0.6901
12336TIP3   OH258498   4.350   2.656   6.081  0.1513 -0.5038 -0.0703
12336TIP3    H158499   4.350   2.682   5.989 -0.4667 -1.9629 -0.4927
12336TIP3    H258500   4.304   2.728   6.126  0.9818  0.4998 -0.7956
12337TIP3   OH258501   1.781   4.161   1.241 -0.2017 -0.3781 -0.1465
12337TIP3    H158502   1.787   4.092   1.175  1.5914  1.6548 -2.2010
12337TIP3    H258503   1.861   4.152   1.293 -1.4784 -1.7995  1.6305
12338TIP3   OH258504   2.129   3.778  11.592  0.4229 -0.4841 -0.1737
12338TIP3    H158505   2.187   3.705  11.571  1.1139  0.2211 -0.7325
12338TIP3    H258506   2.142   3.792  11.686 -1.0470 -2.2204  0.3328
12339TIP3   OH258507   4.430   2.653   1.632 -0.2233  0.2860 -0.3001
12339TIP3    H158508   4.366   2.725   1.627 -0.8067 -0.1142  1.1115
12339TIP3    H258509   4.514   2.697   1.647 -0.4277  0.7278 -0.4226
12340TIP3   OH258510   3.350   0.439   2.677  0.0211  1.0031  0.5099
12340TIP3    H158511   3.273   0.430   2.732  0.6200  0.5985  1.2820
12340TIP3    H258512   3.333   0.518   2.625 -1.7708 -0.1733 -0.7272
12341TIP3   OH258513   2.008   6.619   5.456 -0.7983 -0.3760  0.1558
12341TIP3    H158514   1.948   6.687   5.486 -1.4951 -0.4938 -0.9460
12341TIP3    H258515   2.070   6.608   5.528 -2.7780 -1.0860  1.7664
12342TIP3   OH258516   0.052   6.218   4.594 -0.0014 -0.1990 -0.5879
12342TIP3    H158517   0.044   6.270   4.675  0.4616 -0.8593 -0.1118
12342TIP3    H258518  -0.005   6.262   4.532  2.0993  2.2539 -0.8990
12343TIP3   OH258519   4.997   4.433  15.867  0.0491  0.2746  0.0838
12343TIP3    H158520   5.043   4.350  15.860  1.0194  0.6212  2.0284
12343TIP3    H258521   5.066   4.499  15.864 -0.7772  1.0932 -2.3973
12344TIP3   OH258522   3.391   4.488   3.751 -0.2166 -0.3781 -0.3342
12344TIP3    H158523   3.340   4.430   3.695 -1.5965 -1.5659  2.0403
12344TIP3    H258524   3.326   4.537   3.801  0.9642  1.0604 -0.1598
12345TIP3   OH258525   4.204   6.309  15.631  0.3203  0.0199  0.1914
12345TIP3    H158526   4.181   6.330  15.722  1.4102 -0.7435  0.6567
12345TIP3    H258527   4.167   6.381  15.580 -0.1293  0.5655  1.2658
12346TIP3   OH258528   2.320   0.240  14.428 -0.0508  0.1262 -0.2219
12346TIP3    H158529   2.357   0.318  14.469  2.4457 -1.0243 -0.1962
12346TIP3    H258530   2.354   0.167  14.479 -1.7649 -1.0458 -0.6937
12347TIP3   OH258531   4.049   2.434   5.258 -0.5438  0.0579  0.1112
12347TIP3    H158532   3.986   2.476   5.316  0.1814  1.2158  0.0561
12347TIP3    H258533   4.033   2.473   5.172  0.1649  0.2786  0.0727
12348TIP3   OH258534   6.564   0.456   4.237  0.3433 -0.3881 -0.1932
12348TIP3    H158535   6.540   0.516   4.308  2.4621  1.7359 -1.1678
12348TIP3    H258536   6.482   0.439   4.191 -0.8184 -0.6890  1.8996
12349TIP3   OH258537   6.466   6.103   2.985  0.0026 -0.6389  0.5151
12349TIP3    H158538   6.546   6.155   2.992 -0.0522 -0.7511  2.4114
12349TIP3    H258539   6.411   6.135   3.056 -1.5290 -0.7643 -0.5897
12350TIP3   OH258540   2.762   3.310   5.062 -0.4711  0.0576 -0.4490
12350TIP3    H158541   2.670   3.298   5.082 -0.0924 -1.1675  0.5527
12350TIP3    H258542   2.783   3.239   5.001 -0.0222 -0.0873 -0.1281
12351TIP3   OH258543   1.497   2.861   5.359 -0.5106  0.6741 -0.0520
12351TIP3    H158544   1.537   2.946   5.342  1.1013 -0.1559 -0.5069
12351TIP3    H258545   1.485   2.822   5.272 -1.9462  0.7266  0.1019
12352TIP3   OH258546   5.919   4.810   4.486 -0.3178 -0.2965  0.2027
12352TIP3    H158547   5.879   4.787   4.402 -1.8420 -2.3586  1.4298
12352TIP3    H258548   5.984   4.742   4.502  0.2892  0.3396  0.4933
12353TIP3   OH258549   4.583   3.234   5.816 -0.0859  0.1269 -0.6951
12353TIP3    H158550   4.582   3.259   5.909 -2.3539  0.1149 -0.6745
12353TIP3    H258551   4.654   3.286   5.778 -2.7304  4.5333 -0.0429
12354TIP3   OH258552   6.331   0.525  14.525 -0.0652 -0.0664 -0.6458
12354TIP3    H158553   6.241   0.551  14.546 -0.2052  0.8605 -2.2979
12354TIP3    H258554   6.354   0.577  14.448  2.1096  0.1438  0.1015
12355TIP3   OH258555   1.232   1.312  17.101  0.1869  0.2242 -0.5931
12355TIP3    H158556   1.165   1.312  17.032  0.7438  0.5987 -1.1394
12355TIP3    H258557   1.303   1.258  17.065 -0.1489 -0.8303  0.3105
12356TIP3   OH258558   3.904   4.046   0.367 -0.0856 -0.1945  0.1022
12356TIP3    H158559   3.926   4.126   0.414  1.8412 -1.5165  1.5266
12356TIP3    H258560   3.809   4.041   0.373 -0.1063  1.1703  1.3824
12357TIP3   OH258561   4.465   4.602  16.911  0.1618  0.0746  0.0950
12357TIP3    H158562   4.545   4.579  16.864 -0.4460  0.5680 -1.2022
12357TIP3    H258563   4.455   4.534  16.978  1.0674 -0.5976 -0.4551
12358TIP3   OH258564   4.403   6.382   0.928 -0.2549  0.8313  0.4158
12358TIP3    H158565   4.446   6.455   0.884  2.0738 -0.7961 -0.1102
12358TIP3    H258566   4.427   6.392   1.020 -1.3633  1.6836  0.6169
12359TIP3   OH258567   1.444   4.074   0.898  0.0739 -0.0423  0.0541
12359TIP3    H158568   1.469   4.086   0.806 -3.3464  0.2550 -0.9102
12359TIP3    H258569   1.411   4.160   0.926  0.6153 -0.2630  1.3917
12360TIP3   OH258570   4.828   4.569  13.302 -0.4993 -0.3556  0.1231
12360TIP3    H158571   4.851   4.630  13.372  0.0609 -1.0071  0.5152
12360TIP3    H258572   4.859   4.484  13.333 -2.3067 -1.0432  0.0955
12361TIP3   OH258573   0.972   3.858  16.383 -0.7018 -0.0038  0.1590
12361TIP3    H158574   0.956   3.947  16.414 -3.4382 -0.9404  1.5395
12361TIP3    H258575   0.942   3.801  16.454  1.6465 -2.0679 -0.4070
12362TIP3   OH258576   4.857   0.163   2.911  0.0120  0.2302 -0.1312
12362TIP3    H158577   4.895   0.101   2.973 -0.6232  1.1331  1.1866
12362TIP3    H258578   4.795   0.214   2.963 -1.7400 -0.0670 -1.8485
12363TIP3   OH258579   5.165   4.970  11.595  0.0079 -0.3850 -0.0681
12363TIP3    H158580   5.095   4.968  11.530  0.8512 -2.8943 -0.9647
12363TIP3    H258581   5.246   4.974  11.543  0.6014  0.4072  0.8909
12364TIP3   OH258582   1.556   4.536  16.853  0.3306 -0.4170 -0.5182
12364TIP3    H158583   1.586   4.455  16.811  0.0680 -0.3460 -0.8463
12364TIP3    H258584   1.513   4.507  16.933 -0.9172 -0.7096 -1.2764
12365TIP3   OH258585   2.317   5.274   3.577 -0.3662 -0.1240  0.5783
12365TIP3    H158586   2.286   5.230   3.656 -0.2325 -2.4466 -0.6049
12365TIP3    H258587   2.391   5.220   3.548  1.0583  2.0143  0.1430
12366TIP3   OH258588   4.413   2.530  15.735 -0.5005 -0.0798  0.0861
12366TIP3    H158589   4.499   2.541  15.694 -0.7874  0.4372 -0.3864
12366TIP3    H258590   4.425   2.560  15.825 -0.8019  2.4504 -0.6627
12367TIP3   OH258591   3.300   3.249   0.985  0.1091  0.3427 -0.0928
12367TIP3    H158592   3.340   3.164   0.968 -0.5563  0.2618 -1.3303
12367TIP3    H258593   3.236   3.232   1.054  0.8983  0.1028  0.5802
12368TIP3   OH258594   1.917   2.811   3.482  0.5287  0.0935 -0.0402
12368TIP3    H158595   1.939   2.731   3.434  0.2233  0.5213 -0.8983
12368TIP3    H258596   1.999   2.860   3.486  0.8368 -0.4923  0.9354
12369TIP3   OH258597   1.770   1.175  13.879  0.2396 -0.3526  0.4988
12369TIP3    H158598   1.720   1.240  13.831  0.9865 -0.1742 -0.0520
12369TIP3    H258599   1.710   1.101  13.890  0.1946 -0.5665 -1.0785
12370TIP3   OH258600   0.174   3.831   5.715 -0.5395 -0.3105  0.6368
12370TIP3    H158601   0.197   3.740   5.732  0.9948  0.0244  0.4765
12370TIP3    H258602   0.211   3.849   5.628 -1.7529  0.1605  0.2100
12371TIP3   OH258603   5.186   3.841   0.987 -0.1467  0.3543  0.5457
12371TIP3    H158604   5.232   3.781   0.928 -2.2580  0.0447 -0.8306
12371TIP3    H258605   5.214   3.815   1.075 -0.0534 -1.8306 -0.1002
12372TIP3   OH258606   1.810   6.425   5.942 -0.2854 -0.0712 -0.1117
12372TIP3    H158607   1.846   6.362   5.879 -0.6668 -0.2798 -0.1268
12372TIP3    H258608   1.785   6.371   6.017 -0.2574  0.1162  0.0326
12373TIP3   OH258609   3.745   3.376   3.896  0.0822 -0.1181  0.7954
12373TIP3    H158610   3.681   3.307   3.912 -0.9798  0.8730  0.8562
12373TIP3    H258611   3.798   3.344   3.822  0.5278 -1.6183  1.7474
12374TIP3   OH258612   1.801   5.232  11.511  0.0048  0.4948 -0.1751
12374TIP3    H158613   1.785   5.139  11.494 -0.2436  0.4290  0.3962
12374TIP3    H258614   1.895   5.244  11.497  0.3148 -0.1664  1.2046
12375TIP3   OH258615   6.538   6.548  15.638  0.0436 -0.1422  0.5819
12375TIP3    H158616   6.520   6.487  15.709 -2.5170 -0.7144 -0.4617
12375TIP3    H258617   6.486   6.626  15.659 -3.2416 -1.4684 -2.0734
12376TIP3   OH258618   6.683   3.949  13.547 -0.0185 -0.2389  0.0371
12376TIP3    H158619   6.761   3.926  13.497 -1.3742 -1.2540 -1.6488
12376TIP3    H258620   6.611   3.903  13.503 -1.6556  1.1238  1.2076
12377TIP3   OH258621   2.474   0.070  16.974 -0.3098  0.1354  0.0140
12377TIP3    H158622   2.423   0.116  16.907 -0.7661  0.1457  0.3618
12377TIP3    H258623   2.559   0.053  16.933 -0.9595 -0.8379 -0.9405
12378TIP3   OH258624   6.524   4.199   1.454 -0.3061 -0.1306 -0.1658
12378TIP3    H158625   6.556   4.242   1.374  2.3430 -0.0484  0.8955
12378TIP3    H258626   6.513   4.271   1.516 -1.8844 -0.2597 -0.2710
12379TIP3   OH258627   0.231   6.566   4.565  0.4463 -0.2651  0.1666
12379TIP3    H158628   0.265   6.559   4.654  0.8048  2.1309  0.2386
12379TIP3    H258629   0.152   6.619   4.573 -0.2552 -1.1488 -0.7705
12380TIP3   OH258630   4.653   5.487  16.661  0.0613 -0.1359 -0.0765
12380TIP3    H158631   4.720   5.463  16.598  0.1156  1.1577 -0.5396
12380TIP3    H258632   4.637   5.580  16.645 -0.8810 -0.1046  0.9236
12381TIP3   OH258633   3.579   4.510  15.133 -0.5788  0.8710  0.3565
12381TIP3    H158634   3.517   4.581  15.153 -1.7979  0.4704 -1.8698
12381TIP3    H258635   3.563   4.489  15.041 -0.3018 -2.3736  0.9858
12382TIP3   OH258636   5.544   1.465   2.067  0.7764  0.0793 -0.1081
12382TIP3    H158637   5.582   1.431   1.986 -1.2292  2.0727 -1.9566
12382TIP3    H258638   5.526   1.386   2.119  4.5501 -1.0798 -0.4039
12383TIP3   OH258639   6.624   5.458   4.725  0.0461  0.1527 -0.0474
12383TIP3    H158640   6.581   5.373   4.712 -1.8220  1.1465 -0.6429
12383TIP3    H258641   6.711   5.436   4.757 -0.1476 -2.0188 -0.8797
12384TIP3   OH258642   1.155   1.925  13.719 -0.2984 -0.1635  0.7140
12384TIP3    H158643   1.180   2.017  13.714 -0.1707 -0.2519 -0.3990
12384TIP3    H258644   1.192   1.895  13.802  1.1939  0.3292  0.2483
12385TIP3   OH258645   2.734   3.015  15.789  0.8614  0.0233 -0.0698
12385TIP3    H158646   2.682   3.093  15.808  1.9381  0.2352  2.0782
12385TIP3    H258647   2.823   3.048  15.776  1.0206 -0.6720 -0.7931
12386TIP3   OH258648   1.957   1.379  16.571  0.0118 -0.4453  0.4054
12386TIP3    H158649   1.957   1.473  16.555 -0.3613 -0.5446 -0.2052
12386TIP3    H258650   1.871   1.350  16.542  0.6912 -1.2144 -0.9346
12387TIP3   OH258651   4.542   3.894  13.812  0.4640  0.0930  0.2604
12387TIP3    H158652   4.465   3.927  13.857 -0.3957 -1.9029  0.3260
12387TIP3    H258653   4.539   3.935  13.726 -0.4830  0.3132  0.3897
12388TIP3   OH258654   3.348   4.263   1.439 -0.2172  0.4077  0.0330
12388TIP3    H158655   3.278   4.281   1.375  0.9437 -0.4579 -1.5189
12388TIP3    H258656   3.337   4.330   1.505 -1.8528  0.9600 -0.7481
12389TIP3   OH258657   1.515   0.944   0.099  0.1848  0.2983  0.3344
12389TIP3    H158658   1.462   0.881   0.148  0.8169 -0.0648  0.5555
12389TIP3    H258659   1.510   0.914   0.008  0.1818  0.1475  0.3836
12390TIP3   OH258660   5.295   6.786  15.395 -0.5101 -0.2353 -0.2237
12390TIP3    H158661   5.361   6.762  15.460 -0.8545  0.1556  0.2697
12390TIP3    H258662   5.234   6.712  15.394  1.6755 -2.1062 -3.0170
12391TIP3   OH258663   0.537   4.763   3.024 -0.3372  0.0412 -0.1612
12391TIP3    H158664   0.445   4.788   3.018 -1.1328 -3.1545 -2.5769
12391TIP3    H258665   0.584   4.835   2.981 -1.8664  0.8647 -0.4943
12392TIP3   OH258666   5.239   1.127  13.023 -0.5365 -0.7130  0.3604
12392TIP3    H158667   5.200   1.155  13.105  0.7340  1.4516  0.2669
12392TIP3    H258668   5.329   1.105  13.046 -1.1028 -3.4440  0.1543
12393TIP3   OH258669   4.446   0.917  16.573 -0.2700  0.4053 -0.3261
12393TIP3    H158670   4.353   0.896  16.572 -0.5911  1.6196  1.2967
12393TIP3    H258671   4.490   0.836  16.547 -1.6399 -1.0057  1.6414
12394TIP3   OH258672   1.168   6.183  11.373  0.2399  0.1046 -0.1515
12394TIP3    H158673   1.251   6.169  11.327 -0.4906  2.3577 -2.2528
12394TIP3    H258674   1.171   6.274  11.401 -2.4823  0.9421 -2.3605
12395TIP3   OH258675   3.399   4.899  13.380  0.7092 -0.8347 -0.0507
12395TIP3    H158676   3.375   4.921  13.290 -0.0908  0.8692  0.5615
12395TIP3    H258677   3.475   4.954  13.400  0.8664 -1.1802  0.3263
12396TIP3   OH258678   0.445   1.405   3.946  0.0219  0.1165 -0.2175
12396TIP3    H158679   0.367   1.379   3.995 -1.2632 -0.8346 -2.6297
12396TIP3    H258680   0.500   1.451   4.009 -2.1760  0.1735  1.7197
12397TIP3   OH258681   0.838   3.702   5.813 -0.1781 -0.3817  0.2025
12397TIP3    H158682   0.802   3.771   5.758  1.5074  1.5098  1.4175
12397TIP3    H258683   0.780   3.627   5.799 -2.6582  1.5910 -0.3360
12398TIP3   OH258684   0.375   5.743  11.615  0.0429  0.2793  0.1037
12398TIP3    H158685   0.452   5.755  11.671  0.6154 -1.4448 -0.2916
12398TIP3    H258686   0.408   5.700  11.536 -1.2379 -0.0320 -0.2791
12399TIP3   OH258687   2.714   3.990  15.672  0.2641  0.4408 -0.6215
12399TIP3    H158688   2.803   3.989  15.637  0.3854  0.0227 -0.2928
12399TIP3    H258689   2.720   3.947  15.757  0.0236  1.7015  0.0570
12400TIP3   OH258690   5.609   1.061   2.870  0.1867 -0.1658  0.0355
12400TIP3    H158691   5.570   1.026   2.790 -0.4041 -1.2000  0.7657
12400TIP3    H258692   5.537   1.104   2.916  0.5465  0.5217 -0.0369
12401TIP3   OH258693   1.012   3.937   4.923 -0.0583  0.6281  0.5351
12401TIP3    H158694   0.995   3.874   4.992  0.0382  1.8032  1.6527
12401TIP3    H258695   1.096   3.910   4.885 -0.4784 -0.4565  0.3565
12402TIP3   OH258696   6.485   5.802   3.216  0.1575 -0.1018 -0.2283
12402TIP3    H158697   6.493   5.808   3.120 -0.1536  0.5166 -0.2187
12402TIP3    H258698   6.569   5.766   3.244  0.4083  0.0875 -0.7063
12403TIP3   OH258699   6.428   0.386  11.871  0.4874  0.2941 -0.3084
12403TIP3    H158700   6.378   0.306  11.885  0.5846 -0.1175 -2.1843
12403TIP3    H258701   6.411   0.439  11.950 -0.6169 -1.0103  0.3540
12404TIP3   OH258702   4.228   6.734   5.350 -0.0067  0.3054  0.6621
12404TIP3    H158703   4.288   6.733   5.274  1.6288 -0.5266  1.9290
12404TIP3    H258704   4.157   6.793   5.323  1.1784  1.0230 -1.0436
12405TIP3   OH258705   1.613   4.133   5.105  0.0992 -0.6639 -0.2065
12405TIP3    H158706   1.655   4.157   5.022 -0.2880  3.6092  0.7141
12405TIP3    H258707   1.674   4.164   5.172 -1.6657  0.0232  1.1057
12406TIP3   OH258708   2.986   2.575   0.749 -0.1629  0.0296  0.3219
12406TIP3    H158709   3.019   2.646   0.804  0.7210 -1.3683  1.6559
12406TIP3    H258710   2.890   2.586   0.751  0.0338  2.5861 -1.4812
12407TIP3   OH258711   4.058   5.776  17.154  0.0022  0.3848  0.0150
12407TIP3    H158712   4.103   5.713  17.098 -0.7015 -0.5208  0.4505
12407TIP3    H258713   4.117   5.787  17.229 -1.1532 -1.9687  1.3225
12408TIP3   OH258714   2.813   4.101   2.523  0.3811  0.5317  0.3113
12408TIP3    H158715   2.761   4.167   2.570  2.3391  1.6960  0.9329
12408TIP3    H258716   2.800   4.123   2.430  0.3887  1.3221  0.4871
12409TIP3   OH258717   6.799   6.806  10.784  0.0833  0.0476 -0.2922
12409TIP3    H158718   6.829   6.715  10.777 -1.9483 -0.9055  2.5661
12409TIP3    H258719   6.754   6.822  10.701  0.8683 -1.3696 -1.0234
12410TIP3   OH258720   5.862   0.934  15.902  0.1870 -0.0456  0.4487
12410TIP3    H158721   5.873   0.895  15.989  2.6467  0.6800  0.5008
12410TIP3    H258722   5.946   0.976  15.884  0.0178 -0.8803 -2.6212
12411TIP3   OH258723   2.735   5.693   5.283 -0.0258  0.1948  0.2111
12411TIP3    H158724   2.756   5.638   5.358 -0.7505  1.2197  1.1842
12411TIP3    H258725   2.678   5.638   5.228 -1.2555  0.1831  1.4745
12412TIP3   OH258726   1.912   6.660   4.536  0.5225 -0.1886 -0.2251
12412TIP3    H158727   1.951   6.572   4.535  0.4430 -0.2481  0.9932
12412TIP3    H258728   1.986   6.719   4.518  0.1881 -0.6238 -3.1547
12413TIP3   OH258729   5.079   4.156   6.373 -0.4532 -0.2216  0.0592
12413TIP3    H158730   5.109   4.213   6.444 -1.5960  1.5731 -0.8611
12413TIP3    H258731   4.984   4.149   6.386 -0.7035  0.2526 -1.3451
12414TIP3   OH258732   4.080   5.544  14.664  0.2475 -0.2059  0.1417
12414TIP3    H158733   4.051   5.515  14.578  0.2371 -0.1354  0.1205
12414TIP3    H258734   3.999   5.572  14.708  0.5653  2.4348 -0.8480
12415TIP3   OH258735   3.262   0.821  13.998 -0.2058  0.0562 -0.5560
12415TIP3    H158736   3.301   0.832  13.911 -0.3689  0.1074 -0.6230
12415TIP3    H258737   3.259   0.726  14.012  2.2095  0.0922  0.4747
12416TIP3   OH258738   3.605   4.693   1.344 -0.2670 -0.0305  0.1456
12416TIP3    H158739   3.604   4.611   1.296 -0.0943  0.1433 -0.1580
12416TIP3    H258740   3.682   4.739   1.311  0.0500 -0.0614  0.8445
12417TIP3   OH258741   4.819   1.265  15.982  0.0886 -0.2289  0.7343
12417TIP3    H158742   4.868   1.187  15.955  1.7807  0.1956  2.4810
12417TIP3    H258743   4.838   1.330  15.914  2.4473  0.1077  1.6646
12418TIP3   OH258744   0.376   3.688   3.470  0.0618  0.0695  0.4009
12418TIP3    H158745   0.303   3.655   3.522 -1.0811 -0.9422 -1.7865
12418TIP3    H258746   0.341   3.767   3.428  0.2864 -0.3149 -0.5061
12419TIP3   OH258747   6.483   0.819  15.918 -0.0424  0.1618  0.1326
12419TIP3    H158748   6.541   0.850  15.987  2.0519  2.6588 -2.6102
12419TIP3    H258749   6.409   0.880  15.920 -0.8852 -0.8887  1.3464
12420TIP3   OH258750   0.502   2.073   4.570  0.0920  0.5388  0.1591
12420TIP3    H158751   0.486   2.150   4.624  1.2147  1.6026 -0.9830
12420TIP3    H258752   0.553   2.014   4.627  1.1741  1.6036  0.3249
12421TIP3   OH258753   1.941   6.333  16.908 -0.0202  0.2660 -0.0230
12421TIP3    H158754   1.987   6.407  16.867  0.1310 -0.3482 -0.9643
12421TIP3    H258755   2.003   6.300  16.974  1.2004 -0.9941 -1.7578
12422TIP3   OH258756   2.697   5.701   0.386 -0.2734  0.4049 -0.0583
12422TIP3    H158757   2.684   5.778   0.442 -1.6665  1.9474 -2.4180
12422TIP3    H258758   2.774   5.722   0.333  0.7225 -0.8210  0.8903
12423TIP3   OH258759   5.633   2.447  15.275  0.4838  0.3300 -0.3745
12423TIP3    H158760   5.641   2.408  15.188 -0.7894  0.1194 -0.4045
12423TIP3    H258761   5.630   2.542  15.259  2.1243  0.3883 -0.4085
12424TIP3   OH258762   1.903   3.088   5.076 -0.4553  0.2747 -0.0056
12424TIP3    H158763   1.931   3.154   5.139 -1.8693  0.3830  0.5112
12424TIP3    H258764   1.977   3.026   5.072  1.1298  2.1680 -0.9521
12425TIP3   OH258765   2.084   1.987   1.956 -0.4709 -0.0686  0.6057
12425TIP3    H158766   2.091   2.029   2.042 -0.1384  1.5188 -0.1751
12425TIP3    H258767   1.996   2.010   1.925 -0.1524  0.3466  0.0129
12426TIP3   OH258768   4.993   3.374  13.623 -0.4038  0.4572 -0.0625
12426TIP3    H158769   5.019   3.330  13.704  1.2854 -1.7295 -1.7462
12426TIP3    H258770   4.899   3.356  13.615 -0.8051  1.5510  1.8920
12427TIP3   OH258771   6.699   1.811   0.142 -0.6624 -0.2171  0.3296
12427TIP3    H158772   6.783   1.784   0.178 -0.8773 -1.3382  0.0449
12427TIP3    H258773   6.703   1.784   0.050 -1.3038 -0.2420  0.3030
12428TIP3   OH258774   0.116   2.605  12.362 -0.4078 -0.2448 -0.0955
12428TIP3    H158775   0.110   2.675  12.296 -0.0403  0.9964  1.1698
12428TIP3    H258776   0.206   2.608  12.393 -0.6789 -0.5549  0.7486
12429TIP3   OH258777   1.549   3.733  14.081  0.4051  0.2998 -0.2079
12429TIP3    H158778   1.615   3.800  14.063 -1.0235  1.7051 -0.3254
12429TIP3    H258779   1.565   3.706  14.171  0.0336  1.9221  0.3555
12430TIP3   OH258780   3.435   4.320  13.169 -0.2940 -0.1317  0.5177
12430TIP3    H158781   3.509   4.265  13.144  0.8226  1.8365 -0.6541
12430TIP3    H258782   3.384   4.266  13.228  1.5034 -1.9294  0.4814
12431TIP3   OH258783   3.693   0.817   5.760 -0.0989  0.1990 -0.2272
12431TIP3    H158784   3.652   0.899   5.732 -3.0977 -0.6962  1.2919
12431TIP3    H258785   3.721   0.775   5.679 -2.2217  0.8645 -1.3428
12432TIP3   OH258786   1.723   2.791  16.850  0.7627  0.0509 -0.0725
12432TIP3    H158787   1.684   2.711  16.813 -0.5455  0.8384 -0.4313
12432TIP3    H258788   1.803   2.761  16.893  0.8334 -1.3064 -1.1134
12433TIP3   OH258789   5.070   4.276  12.701 -0.0012  0.2234 -0.3720
12433TIP3    H158790   4.977   4.269  12.721 -0.4721 -0.7770 -2.7268
12433TIP3    H258791   5.111   4.300  12.784 -2.4111  1.2241  0.5684
12434TIP3   OH258792   2.750   2.947   3.673  0.3951 -0.6380 -0.5043
12434TIP3    H158793   2.788   2.969   3.758  0.9034  0.8534 -1.0951
12434TIP3    H258794   2.826   2.929   3.618  0.1251 -0.4220 -0.9488
12435TIP3   OH258795   4.340   3.414  16.946 -0.6741  0.2488 -0.2075
12435TIP3    H158796   4.333   3.324  16.914  1.0752  0.4363 -1.1371
12435TIP3    H258797   4.434   3.431  16.952 -0.9552  1.1757  2.3701
12436TIP3   OH258798   6.201   3.430   1.693  0.3642  0.3540  0.5526
12436TIP3    H158799   6.212   3.356   1.752 -0.2638  0.7047  1.1282
12436TIP3    H258800   6.116   3.416   1.652  1.4610 -0.6636 -1.4084
12437TIP3   OH258801   0.035   4.655   2.304  0.5421 -0.0802 -0.5289
12437TIP3    H158802  -0.019   4.654   2.226  0.0260  0.8551 -0.1908
12437TIP3    H258803   0.013   4.574   2.350 -1.9423  1.1784  0.5374
12438TIP3   OH258804   0.855   5.194   2.269 -0.1600  0.3855 -0.2173
12438TIP3    H158805   0.771   5.238   2.264  0.1077  0.8860 -0.3964
12438TIP3    H258806   0.915   5.253   2.223  0.4228  0.3662  0.5066
12439TIP3   OH258807   1.949   5.952   5.809  0.1766  0.1935 -0.6419
12439TIP3    H158808   1.956   5.906   5.893 -1.7181  2.1296  0.6286
12439TIP3    H258809   2.004   5.901   5.749 -0.6606 -2.8123  1.0685
12440TIP3   OH258810   1.805   5.809  16.665 -0.3848  0.4163 -0.2613
12440TIP3    H158811   1.760   5.864  16.601 -1.8803  0.8662  1.1653
12440TIP3    H258812   1.885   5.858  16.686 -0.4204  0.7829 -0.9514
12441TIP3   OH258813   5.884   5.845  11.823 -0.1821  0.5755  0.0570
12441TIP3    H158814   5.883   5.764  11.875 -1.6082  1.2249  1.0799
12441TIP3    H258815   5.804   5.841  11.771  0.1745  0.9239 -0.5197
12442TIP3   OH258816   5.744   4.309  12.868  0.3186  0.7228  0.0162
12442TIP3    H158817   5.662   4.290  12.821  1.4464 -1.9132 -1.0413
12442TIP3    H258818   5.727   4.282  12.958  0.4312 -1.1720 -0.5054
12443TIP3   OH258819   6.573   0.871   2.001  0.1510  0.1735  0.3824
12443TIP3    H158820   6.488   0.900   1.970 -0.7156 -1.3460  1.2749
12443TIP3    H258821   6.627   0.863   1.922 -1.1111 -0.7159 -0.4047
12444TIP3   OH258822   1.202   3.218  14.016 -0.4318 -0.4498  0.1604
12444TIP3    H158823   1.190   3.301  13.970  1.1547 -1.3338 -1.9166
12444TIP3    H258824   1.122   3.168  13.996 -0.1501 -0.4818 -0.9356
12445TIP3   OH258825   3.099   1.183   4.841 -0.0819  0.4589 -0.3835
12445TIP3    H158826   3.083   1.166   4.934 -0.7852  0.8409 -0.4261
12445TIP3    H258827   3.187   1.149   4.824  1.3804  3.3065  1.1751
12446TIP3   OH258828   0.397   0.618  17.292 -0.4616 -0.5590  0.0221
12446TIP3    H158829   0.371   0.564  17.367 -1.6006  1.2897  0.9761
12446TIP3    H258830   0.477   0.662  17.320 -0.9081  0.1627  0.1547
12447TIP3   OH258831   6.659   2.033   5.571  0.1472 -0.4198 -0.6762
12447TIP3    H158832   6.595   2.025   5.641  1.2612  0.7594  0.5086
12447TIP3    H258833   6.633   1.967   5.507 -0.2354 -2.3134  1.3575
12448TIP3   OH258834   3.364   3.024   5.259 -0.1206 -0.0049  0.1931
12448TIP3    H158835   3.293   3.003   5.320  0.1036 -1.8478 -0.1285
12448TIP3    H258836   3.321   3.058   5.181 -0.6755 -1.0734  0.0189
12449TIP3   OH258837   4.727   3.455  16.717  0.1448 -0.1662 -0.1747
12449TIP3    H158838   4.729   3.365  16.748 -1.1926 -0.4791 -0.9923
12449TIP3    H258839   4.820   3.480  16.710  0.5646 -1.9407 -1.3024
12450TIP3   OH258840   0.972   4.236   1.307  0.7020 -0.1310 -0.3043
12450TIP3    H158841   1.058   4.263   1.338 -0.3990  2.7939  0.3055
12450TIP3    H258842   0.985   4.146   1.275  3.6328 -0.2430  1.0891
12451TIP3   OH258843   6.803   6.361   6.530  0.7195 -0.0623  0.1937
12451TIP3    H158844   6.808   6.402   6.616  1.7116 -0.8166  0.4942
12451TIP3    H258845   6.722   6.309   6.533 -1.2890  2.8574 -0.6447
12452TIP3   OH258846   3.790   6.620   0.230 -0.2311 -0.0808  0.3407
12452TIP3    H158847   3.802   6.660   0.316 -2.9942 -0.9065  1.1884
12452TIP3    H258848   3.778   6.694   0.170  0.3234  0.4661  0.8999
12453TIP3   OH258849   1.353   6.108  12.840 -0.1324 -0.5130 -0.0164
12453TIP3    H158850   1.293   6.056  12.786  2.1403 -1.4678 -1.6694
12453TIP3    H258851   1.295   6.155  12.900 -2.5211 -1.7067 -1.2928
12454TIP3   OH258852   4.921   3.599   1.267 -0.1602  0.6523  0.0156
12454TIP3    H158853   4.940   3.581   1.175  1.0655 -0.4076  0.4524
12454TIP3    H258854   5.007   3.601   1.309 -0.8606 -2.4208  1.7307
12455TIP3   OH258855   5.709   0.604   4.248 -0.1968  0.3550 -0.0891
12455TIP3    H158856   5.632   0.658   4.232 -0.3915 -0.3386 -1.5022
12455TIP3    H258857   5.704   0.582   4.341 -2.6988 -1.1799 -0.5482
12456TIP3   OH258858   4.880   3.190  14.462 -0.3538 -0.3988 -0.0729
12456TIP3    H158859   4.880   3.242  14.382  0.3240 -1.1229 -0.5585
12456TIP3    H258860   4.964   3.145  14.461  0.6748  1.3857  2.2533
12457TIP3   OH258861   0.920   3.339  17.209 -0.0664  0.8677 -0.0651
12457TIP3    H158862   0.893   3.313  17.297  0.4803  2.7990  0.7062
12457TIP3    H258863   0.839   3.344  17.158 -0.3424 -0.5999  0.2360
12458TIP3   OH258864   2.370   5.291  11.639  0.0227  0.0445  0.5807
12458TIP3    H158865   2.379   5.267  11.731 -0.8589 -1.0876  0.3727
12458TIP3    H258866   2.382   5.386  11.638 -1.8219  0.3162  2.1239
12459TIP3   OH258867   4.129   2.485  11.869 -0.4507  0.2807  0.4591
12459TIP3    H158868   4.058   2.447  11.921 -0.3815  0.4875  0.7064
12459TIP3    H258869   4.115   2.451  11.781  1.0300 -2.3216  1.1578
12460TIP3   OH258870   1.228   4.029  15.463 -0.5413  0.1458  0.1328
12460TIP3    H158871   1.149   3.989  15.500  0.3007  0.0166  1.8434
12460TIP3    H258872   1.293   4.023  15.534  1.6606 -1.7212 -1.9583
12461TIP3   OH258873   2.434   6.234  14.491 -0.3103 -0.1908  0.4508
12461TIP3    H158874   2.522   6.206  14.463 -0.3711 -0.8975  0.9555
12461TIP3    H258875   2.401   6.286  14.417  0.3255 -0.3595  0.0404
12462TIP3   OH258876   5.508   2.288   0.397  0.2242 -0.3186 -0.4509
12462TIP3    H158877   5.524   2.200   0.432 -1.8067  0.1646  1.8828
12462TIP3    H258878   5.413   2.294   0.389  0.3631  1.4981 -1.0166
12463TIP3   OH258879   1.260   3.292   2.279 -0.4046 -0.1647  0.5001
12463TIP3    H158880   1.221   3.219   2.232 -1.5896  0.6277  0.2341
12463TIP3    H258881   1.210   3.298   2.361  1.8105 -1.7069  2.0305
12464TIP3   OH258882   1.166   4.842   6.370 -0.3456 -0.4234  0.5447
12464TIP3    H158883   1.107   4.786   6.319 -0.0023  0.3830 -0.7736
12464TIP3    H258884   1.252   4.828   6.329 -0.0044  0.0029  1.1155
12465TIP3   OH258885   4.624   4.927  11.464  0.3986  0.1140 -0.4616
12465TIP3    H158886   4.602   5.020  11.458  0.0495 -0.0101 -1.1516
12465TIP3    H258887   4.671   4.908  11.383 -1.2566 -0.7680 -1.2456
12466TIP3   OH258888   3.604   0.882   2.962 -0.2118  0.2848  0.0388
12466TIP3    H158889   3.666   0.890   2.890  0.1457  0.9849  0.4257
12466TIP3    H258890   3.650   0.829   3.027 -0.0286  0.7813  0.3144
12467TIP3   OH258891   0.868   4.682  14.348  0.2675  0.3557 -0.4574
12467TIP3    H158892   0.925   4.605  14.338 -1.9175 -1.5238  0.8885
12467TIP3    H258893   0.855   4.689  14.443 -3.8583 -0.9317 -0.8362
12468TIP3   OH258894   1.349   4.453   2.342  0.3485 -0.1029 -0.0392
12468TIP3    H158895   1.346   4.496   2.428  1.5095 -0.2201  0.0678
12468TIP3    H258896   1.271   4.484   2.297 -0.2231  0.0376  1.0250
12469TIP3   OH258897   5.072   0.224  16.076 -0.0476  0.5210  0.0035
12469TIP3    H158898   5.160   0.241  16.108  0.4993  0.2550 -1.3580
12469TIP3    H258899   5.016   0.242  16.152  1.3286 -1.4647  1.5367
12470TIP3   OH258900   2.722   3.300  15.887  0.6635 -0.2650 -0.4541
12470TIP3    H158901   2.815   3.304  15.864  0.7584 -2.3010 -0.4532
12470TIP3    H258902   2.719   3.338  15.975  1.5033 -0.2990 -0.4014
12471TIP3   OH258903   5.564   1.158   5.332  0.1814  0.4201  0.2332
12471TIP3    H158904   5.531   1.069   5.344 -2.4568  1.1689 -1.0489
12471TIP3    H258905   5.580   1.165   5.237 -1.9959  2.0529 -0.0561
12472TIP3   OH258906   2.620   3.630  17.193 -0.6063 -0.0910  0.0147
12472TIP3    H158907   2.599   3.659  17.104 -1.0548  0.6693  0.3648
12472TIP3    H258908   2.562   3.681  17.249 -0.8011 -1.0510  0.7000
12473TIP3   OH258909   2.008   4.351  16.422 -0.0917 -0.0284 -0.0584
12473TIP3    H158910   1.997   4.421  16.359 -0.8621  0.9460  1.1383
12473TIP3    H258911   1.952   4.280  16.390  0.7456 -0.1413 -1.3086
12474TIP3   OH258912   3.689   1.847   2.134  0.2936  0.3463 -0.3348
12474TIP3    H158913   3.757   1.808   2.079 -0.3928 -0.1851 -0.7985
12474TIP3    H258914   3.607   1.814   2.099 -0.1379 -0.2548  1.2044
12475TIP3   OH258915   5.045   6.474   5.829 -0.3490  0.4858  0.3382
12475TIP3    H158916   5.119   6.513   5.782  0.1144 -0.9818 -0.1841
12475TIP3    H258917   4.968   6.519   5.793 -0.0195 -0.7237 -1.9684
12476TIP3   OH258918   6.263   3.233  12.449 -0.2087  0.1278  0.5596
12476TIP3    H158919   6.357   3.218  12.450 -0.2487 -0.1784 -0.1318
12476TIP3    H258920   6.231   3.184  12.525  0.5582  2.8408  2.7040
12477TIP3   OH258921   4.814   0.930  14.095  0.7852 -0.2854  0.1224
12477TIP3    H158922   4.857   1.013  14.072 -0.8772  0.2742 -1.1510
12477TIP3    H258923   4.785   0.895  14.011 -0.6970 -0.9208  0.8864
12478TIP3   OH258924   5.665   4.002   6.097 -0.2087  0.1690  0.8617
12478TIP3    H158925   5.607   4.003   6.173 -0.0202 -0.9679  1.0327
12478TIP3    H258926   5.747   3.964   6.130 -0.2847 -0.7780 -0.0098
12479TIP3   OH258927   1.371   3.433   1.803 -1.0679 -0.0587  0.0055
12479TIP3    H158928   1.397   3.467   1.717 -1.0449  1.6730  0.6713
12479TIP3    H258929   1.367   3.338   1.791  1.9239 -0.1047 -1.1086
12480TIP3   OH258930   4.985   2.442   1.358 -0.0541 -0.4562 -0.3487
12480TIP3    H158931   5.015   2.352   1.366 -1.1783 -0.6389  2.5940
12480TIP3    H258932   5.064   2.495   1.367  0.5193 -1.1273 -1.3803
12481TIP3   OH258933   1.060   3.055  15.783  0.7858  0.1262 -0.0097
12481TIP3    H158934   1.149   3.024  15.802 -0.0504 -1.3542  1.6380
12481TIP3    H258935   1.040   3.116  15.854  0.5359  0.5539 -0.4468
12482TIP3   OH258936   6.081   0.681   3.406  0.2548  0.3416 -0.4800
12482TIP3    H158937   6.050   0.647   3.322 -3.2409  2.2279 -0.0152
12482TIP3    H258938   6.128   0.761   3.384  0.2636  0.2786 -0.6946
12483TIP3   OH258939   0.958   1.823  14.508  0.5157 -0.2463 -0.0714
12483TIP3    H158940   0.947   1.907  14.464  0.3432  0.6782  1.6997
12483TIP3    H258941   0.881   1.815  14.564  1.8531 -0.2749  1.8322
12484TIP3   OH258942   3.937   3.058   5.440  0.0147 -0.0477 -0.9017
12484TIP3    H158943   3.929   3.032   5.532  0.0593  2.1856 -0.2604
12484TIP3    H258944   3.931   3.153   5.441 -0.4773 -0.0334 -3.2788
12485TIP3   OH258945   3.133   1.012   1.323 -0.2423 -0.3447  0.0992
12485TIP3    H158946   3.219   0.988   1.357  0.4575 -1.7035 -2.5124
12485TIP3    H258947   3.151   1.084   1.262 -0.8816 -0.9623 -0.8290
12486TIP3   OH258948   4.818   2.441  15.679  0.0436  0.3381  0.4361
12486TIP3    H158949   4.903   2.484  15.685  0.9567 -1.1776 -0.9127
12486TIP3    H258950   4.765   2.500  15.627  1.0549  0.2057 -0.7830
12487TIP3   OH258951   5.406   4.080   0.558 -0.2557 -0.3803 -0.1526
12487TIP3    H158952   5.461   4.106   0.632  1.4861  0.6283 -1.7726
12487TIP3    H258953   5.324   4.051   0.599 -0.1111  2.0953  2.0514
12488TIP3   OH258954   6.066   1.311  12.452  0.2467  0.3320 -0.6190
12488TIP3    H158955   5.994   1.248  12.456  0.1910  0.3919 -0.6888
12488TIP3    H258956   6.083   1.323  12.359  1.8177 -1.3390 -0.5802
12489TIP3   OH258957   2.791   5.759  15.841  0.1744  0.2983 -0.1539
12489TIP3    H158958   2.787   5.821  15.768  0.9847 -0.5058 -0.8963
12489TIP3    H258959   2.706   5.714  15.839 -0.7411  1.9353  0.9028
12490TIP3   OH258960   1.050   4.447  10.550 -0.3871 -0.2661 -0.1428
12490TIP3    H158961   0.999   4.527  10.559  1.0991  0.5533  1.3003
12490TIP3    H258962   1.113   4.468  10.481  0.9994  0.3781  1.2866
12491TIP3   OH258963   1.832   0.133  12.484  0.2483 -0.0428  0.0887
12491TIP3    H158964   1.765   0.196  12.511  0.2735  0.5460 -1.1968
12491TIP3    H258965   1.795   0.048  12.505 -1.6242  0.1849 -2.0964
12492TIP3   OH258966   2.287   0.010   3.403  0.6078 -0.2476 -0.2229
12492TIP3    H158967   2.191   0.008   3.396  0.4669  1.1035  1.1462
12492TIP3    H258968   2.306  -0.030   3.488  1.2196  0.0690 -0.2080
12493TIP3   OH258969   0.868   2.964  14.724 -0.0442 -0.2593 -0.1272
12493TIP3    H158970   0.809   2.974  14.649 -1.0816  1.2782  0.8689
12493TIP3    H258971   0.841   2.881  14.765  2.9869 -3.1095 -3.5363
12494TIP3   OH258972   4.349   1.392   3.833 -0.7815 -0.1726 -0.4433
12494TIP3    H158973   4.331   1.458   3.766  0.4939  3.0712  2.2218
12494TIP3    H258974   4.263   1.359   3.859 -1.9591  4.1267  1.5763
12495TIP3   OH258975   4.281   0.968  11.204 -0.2726 -0.6130  0.6458
12495TIP3    H158976   4.333   0.894  11.172 -0.9501 -0.4411 -0.8815
12495TIP3    H258977   4.329   1.046  11.176 -0.9449 -0.4609 -0.1137
12496TIP3   OH258978   4.988   3.890   4.361  0.5018 -0.0407 -0.1822
12496TIP3    H158979   5.064   3.877   4.304  0.6622 -3.2764  0.7081
12496TIP3    H258980   5.023   3.934   4.438  0.8304  1.5894 -1.2431
12497TIP3   OH258981   3.098   3.515  14.775 -0.6841 -0.1520  0.8024
12497TIP3    H158982   3.024   3.461  14.747 -0.7849 -1.0149  2.6250
12497TIP3    H258983   3.138   3.545  14.694 -2.2168 -0.8016 -0.2227
12498TIP3   OH258984   0.138   2.192   5.521  0.1758  0.2799 -0.1352
12498TIP3    H158985   0.135   2.250   5.445  1.2167  0.1938 -0.2429
12498TIP3    H258986   0.056   2.143   5.517 -0.3985  1.2396 -0.4375
12499TIP3   OH258987   4.187   4.079  11.581 -0.5319  0.0620 -0.7415
12499TIP3    H158988   4.092   4.069  11.586 -0.4587  0.0429  0.6976
12499TIP3    H258989   4.202   4.173  11.586 -0.4614  0.0450 -0.6150
12500TIP3   OH258990   4.649   5.528   1.789 -0.4138  0.6366 -0.5274
12500TIP3    H158991   4.630   5.614   1.827  0.2784  0.2458  0.7000
12500TIP3    H258992   4.644   5.468   1.863  0.0193 -0.2587 -1.2278
12501TIP3   OH258993   5.896   1.780  14.969  0.0706 -0.3928 -0.3483
12501TIP3    H158994   5.849   1.761  14.888  0.3521  0.4734 -0.7160
12501TIP3    H258995   5.966   1.715  14.972 -2.1366 -2.7956  1.0424
12502TIP3   OH258996   4.555   4.198  16.484 -1.1301  0.6750  0.1462
12502TIP3    H158997   4.473   4.236  16.516 -2.8275 -1.2160 -1.8141
12502TIP3    H258998   4.544   4.193  16.389  0.6073 -1.1141 -0.0006
12503TIP3   OH258999   6.701   4.976  13.309 -0.4327 -0.2479 -0.1409
12503TIP3    H159000   6.714   4.961  13.403 -1.9590  0.5704  0.2125
12503TIP3    H259001   6.629   4.918  13.285 -0.2151 -0.2689 -0.7496
12504TIP3   OH259002   1.390   2.482  15.957  0.2901  0.1167  0.2556
12504TIP3    H159003   1.346   2.407  15.917 -0.5366  1.2596 -1.0018
12504TIP3    H259004   1.333   2.508  16.029  0.3272 -0.1351  0.3770
12505TIP3   OH259005   1.130   3.444   0.050  0.5885  0.2368  0.2699
12505TIP3    H159006   1.123   3.539   0.052  1.4864  0.3106  0.1574
12505TIP3    H259007   1.063   3.417  -0.012 -1.6440  0.5715  2.4626
12506TIP3   OH259008   2.456   1.055  12.119  0.4525 -0.1485  0.5109
12506TIP3    H159009   2.413   1.063  12.204 -2.1287  0.8651 -0.8405
12506TIP3    H259010   2.438   0.965  12.092  1.1203 -0.4160  0.9425
12507TIP3   OH259011   4.917   1.983   3.248  0.0572  0.1885 -0.9004
12507TIP3    H159012   4.847   1.989   3.314 -0.8594 -3.1363 -1.4979
12507TIP3    H259013   4.936   2.074   3.226 -3.2046  1.2246  0.2260
12508TIP3   OH259014   3.006   5.680  11.483  0.1470 -0.0508  0.2668
12508TIP3    H159015   3.018   5.670  11.389  2.4613  1.6237  0.3394
12508TIP3    H259016   3.039   5.598  11.520  0.2618 -0.2633 -0.2967
12509TIP3   OH259017   5.492   2.406  12.806 -0.1329 -0.3732  0.5900
12509TIP3    H159018   5.568   2.452  12.841  0.0141 -0.5004  0.4422
12509TIP3    H259019   5.526   2.359  12.729 -0.6865  0.7620 -0.3605
12510TIP3   OH259020   3.879   5.170  11.503  0.3828  0.0280 -0.2013
12510TIP3    H159021   3.884   5.234  11.432 -1.5670  0.1545 -0.2392
12510TIP3    H259022   3.913   5.216  11.579 -1.6893  1.3906 -0.0629
12511TIP3   OH259023   2.049   2.450   4.274 -0.0064 -0.4328  0.8333
12511TIP3    H159024   1.992   2.518   4.310 -0.0173  0.0025  0.0124
12511TIP3    H259025   2.132   2.494   4.257  0.0882 -0.6949  0.5993
12512TIP3   OH259026   6.566   3.931   3.681  0.7339  0.1114  0.0749
12512TIP3    H159027   6.655   3.963   3.666  1.3787 -1.3626  0.6620
12512TIP3    H259028   6.564   3.845   3.638 -0.1938 -0.1576  0.6468
12513TIP3   OH259029   3.904   2.385  11.967 -0.8759 -0.2661  0.5317
12513TIP3    H159030   3.869   2.473  11.950 -1.1396 -0.5205 -0.2635
12513TIP3    H259031   3.894   2.373  12.061 -2.5335 -0.1465  0.3907
12514TIP3   OH259032   6.066   1.995   1.007  0.7258  0.5213 -0.5464
12514TIP3    H159033   6.073   2.070   1.066  2.6330  1.1982 -1.6306
12514TIP3    H259034   6.156   1.965   0.995  0.0399 -1.5873 -0.5918
12515TIP3   OH259035   1.334   6.392  16.289 -0.2744 -0.2253  0.0364
12515TIP3    H159036   1.319   6.442  16.208 -0.2066  0.8152  0.6545
12515TIP3    H259037   1.372   6.310  16.260  0.8180  0.6048 -0.9160
12516TIP3   OH259038   5.680   3.802  15.744 -0.1955  0.3980 -0.3249
12516TIP3    H159039   5.624   3.760  15.680  0.0698  2.1948 -1.7708
12516TIP3    H259040   5.769   3.779  15.717 -0.1491 -1.0668  0.9925
12517TIP3   OH259041   6.675   3.747   2.045  0.5136 -0.5433  0.0535
12517TIP3    H159042   6.585   3.718   2.028  0.4224 -0.6972  0.7758
12517TIP3    H259043   6.685   3.826   1.991  0.4199 -1.3088 -1.1030
12518TIP3   OH259044   0.972   6.761  16.929  0.4600 -0.7562  0.4109
12518TIP3    H159045   0.954   6.829  16.864  0.9787  0.4424  1.5067
12518TIP3    H259046   1.005   6.687  16.877  0.2779 -0.0390 -0.7547
12519TIP3   OH259047   6.307   0.212  15.459  0.3811 -0.2424  0.1022
12519TIP3    H159048   6.233   0.273  15.454  0.9179  0.3868 -0.1231
12519TIP3    H259049   6.351   0.235  15.541 -0.4141 -1.4649  0.8845
12520TIP3   OH259050   4.126   2.185   0.346 -0.0107  0.3407  0.3656
12520TIP3    H159051   4.172   2.181   0.262 -2.5464  2.5319 -1.2112
12520TIP3    H259052   4.164   2.260   0.391  2.2382 -1.5936  1.7870
12521TIP3   OH259053   5.297   2.703   3.207 -0.6678  0.9347 -0.0312
12521TIP3    H159054   5.313   2.711   3.113  0.3755  0.5568  0.1049
12521TIP3    H259055   5.365   2.758   3.247 -1.4473  1.5390  0.4917
12522TIP3   OH259056   2.836   5.983  12.177  0.2516  0.1590 -0.2141
12522TIP3    H159057   2.874   6.067  12.151 -0.4313  0.4350 -0.3254
12522TIP3    H259058   2.743   6.002  12.191  0.0142 -0.6766 -0.6658
12523TIP3   OH259059   3.272   4.696   4.728 -0.0140 -0.5591  0.3968
12523TIP3    H159060   3.213   4.764   4.697 -0.3121 -1.4914 -1.1272
12523TIP3    H259061   3.215   4.622   4.751  0.3699 -0.5921  1.2723
12524TIP3   OH259062   0.320   1.665   4.708 -0.0822  0.4414  0.0956
12524TIP3    H159063   0.279   1.748   4.683 -0.4222  0.3904  0.4890
12524TIP3    H259064   0.249   1.613   4.745  0.2492  0.1913  0.3790
12525TIP3   OH259065   1.381   5.062   5.380  0.6551 -0.3732 -0.0518
12525TIP3    H159066   1.434   5.140   5.396 -0.2622  0.1092  0.6251
12525TIP3    H259067   1.395   5.042   5.287 -0.1146  1.3360 -0.5402
12526TIP3   OH259068   1.933   5.679  15.165 -0.9648 -0.5014 -0.1056
12526TIP3    H159069   1.991   5.631  15.106 -1.5683 -0.4686 -0.7365
12526TIP3    H259070   1.965   5.657  15.253  1.9269  1.9067 -0.4622
12527TIP3   OH259071   1.520   2.070   3.617  0.1577  0.2395 -0.7071
12527TIP3    H159072   1.566   1.986   3.611  0.5477  0.5670 -2.5321
12527TIP3    H259073   1.512   2.086   3.711  2.4200 -0.5547 -0.3567
12528TIP3   OH259074   5.047   2.860   6.307 -0.5954 -0.0228  0.2030
12528TIP3    H159075   5.118   2.891   6.362 -0.7572  1.9304 -0.6348
12528TIP3    H259076   5.046   2.765   6.320  0.2294  0.2427  2.4922
12529TIP3   OH259077   0.042   3.934   0.272 -0.1541  0.2759  0.3695
12529TIP3    H159078   0.135   3.910   0.276 -0.2783 -0.0700  1.1423
12529TIP3    H259079   0.014   3.938   0.363 -1.0558 -0.2463  0.1219
12530TIP3   OH259080   4.050   5.667   2.488 -0.2769  1.1282 -0.2934
12530TIP3    H159081   3.989   5.716   2.432 -1.6489 -0.6838 -0.4318
12530TIP3    H259082   4.085   5.599   2.431  1.0723  1.4903  0.0966
12531TIP3   OH259083   2.020   5.502  16.938 -0.6036  0.2373  0.1499
12531TIP3    H159084   1.976   5.433  16.888  0.7527 -0.5795  0.0451
12531TIP3    H259085   2.108   5.467  16.954  0.3775  2.2775 -0.6055
12532TIP3   OH259086   1.891   4.250  15.113  0.0542  0.1423  0.2407
12532TIP3    H159087   1.852   4.172  15.074 -0.7195  1.0905 -0.9310
12532TIP3    H259088   1.872   4.242  15.206 -2.5043  0.3238 -0.2334
12533TIP3   OH259089   6.523   1.116  16.948  0.4315  0.0315  0.1705
12533TIP3    H159090   6.619   1.122  16.946  0.3332  1.6424  0.0756
12533TIP3    H259091   6.505   1.022  16.943  1.9561 -0.1653 -2.3637
12534TIP3   OH259092   0.801   5.790  11.161  0.0565 -0.1255 -0.3212
12534TIP3    H159093   0.817   5.837  11.079  0.9252  1.6321  0.8219
12534TIP3    H259094   0.859   5.833  11.224 -2.7306  0.4902  1.9163
12535TIP3   OH259095   4.021   6.328  16.878 -0.4723  0.2493  0.0923
12535TIP3    H159096   4.091   6.353  16.940 -0.2290 -1.9602  0.7639
12535TIP3    H259097   3.943   6.321  16.933 -0.8332  0.9128 -0.3373
12536TIP3   OH259098   0.071   5.250   5.790 -0.2003  0.0773 -0.2583
12536TIP3    H159099   0.050   5.256   5.884 -1.9455  0.3500 -0.6378
12536TIP3    H259100   0.082   5.341   5.763  0.0382  0.0138 -0.3657
12537TIP3   OH259101   1.066   6.751   1.197 -0.1747  0.0199  0.1859
12537TIP3    H159102   0.974   6.738   1.171 -0.2538  0.1024  0.4264
12537TIP3    H259103   1.107   6.789   1.120 -0.0446 -1.2294 -0.3747
12538TIP3   OH259104   1.313   4.891   5.826 -0.5809 -0.0444 -0.4686
12538TIP3    H159105   1.349   4.803   5.812 -1.4135 -0.2818 -1.1264
12538TIP3    H259106   1.221   4.876   5.844 -0.5709  0.6494  0.1898
12539TIP3   OH259107   2.619   2.173   1.869  0.3916  0.3356 -0.0845
12539TIP3    H159108   2.553   2.239   1.893  0.2501  0.5286 -1.0095
12539TIP3    H259109   2.613   2.166   1.774 -0.3999 -1.8772  0.1112
12540TIP3   OH259110   4.531   2.657   1.254 -0.0381 -0.1266  0.3086
12540TIP3    H159111   4.519   2.739   1.301  2.0388 -0.2411  1.0879
12540TIP3    H259112   4.493   2.673   1.167  1.6608  2.1537 -0.0582
12541TIP3   OH259113   2.327   1.040  15.359  0.2391 -0.1974  0.5639
12541TIP3    H159114   2.304   0.996  15.441 -0.5166  0.1510  0.5442
12541TIP3    H259115   2.281   0.991  15.292  0.4314 -0.1564  0.4009
12542TIP3   OH259116   3.734   4.232  11.996  0.1992  0.4022  0.7915
12542TIP3    H159117   3.782   4.310  12.023  0.2095  0.8370 -0.4561
12542TIP3    H259118   3.775   4.205  11.914 -1.0825  0.2472  0.1769
12543TIP3   OH259119   4.101   1.273   3.885  0.1939 -0.1360  0.3256
12543TIP3    H159120   4.065   1.358   3.910 -1.2750 -0.5643 -0.2945
12543TIP3    H259121   4.046   1.209   3.929  0.5780 -0.7975 -0.1399
12544TIP3   OH259122   1.733   3.249   1.737 -0.3919  0.2054 -0.0582
12544TIP3    H159123   1.752   3.172   1.791 -0.8356  0.1208 -0.0197
12544TIP3    H259124   1.769   3.322   1.786 -0.8133  0.1330  0.3730
12545TIP3   OH259125   6.420   1.428  11.260  0.5691  0.0013  0.3786
12545TIP3    H159126   6.385   1.447  11.173  1.8250  1.1429  0.1054
12545TIP3    H259127   6.374   1.349  11.288 -1.7758  1.1329 -0.1849
12546TIP3   OH259128   2.740   3.218  13.060 -0.3466 -0.3268 -0.6015
12546TIP3    H159129   2.765   3.128  13.078  0.9905  0.0704 -0.4541
12546TIP3    H259130   2.820   3.260  13.028 -1.3754  0.3406 -2.4268
12547TIP3   OH259131   6.793   2.390  11.606  0.1768 -0.3062 -0.5505
12547TIP3    H159132   6.788   2.481  11.633  0.4700 -0.5437  0.3435
12547TIP3    H259133   6.845   2.391  11.526  0.0073  0.3355 -0.6484
12548TIP3   OH259134   4.523   4.577   3.879 -0.3172  0.3582 -0.3938
12548TIP3    H159135   4.580   4.653   3.889 -1.2505  1.2416 -1.6378
12548TIP3    H259136   4.447   4.610   3.830 -0.6789 -1.3899 -1.0514
12549TIP3   OH259137   2.067   5.456   4.414 -0.1855 -0.1207  0.2220
12549TIP3    H159138   2.094   5.507   4.490 -0.7028 -0.2835  0.5202
12549TIP3    H259139   2.131   5.477   4.346  0.2119  0.1135  0.6689
12550TIP3   OH259140   3.545   5.592   3.465 -0.1078  0.3342 -0.2427
12550TIP3    H159141   3.615   5.553   3.413 -1.1581 -0.1172 -1.3448
12550TIP3    H259142   3.474   5.606   3.403 -1.0085  0.7653  0.8661
12551TIP3   OH259143   3.214   3.526   1.017  0.5318  0.1365  0.0506
12551TIP3    H159144   3.262   3.446   0.996 -0.1024  0.0897 -1.2877
12551TIP3    H259145   3.247   3.552   1.103  3.0652  0.2210 -0.9061
12552TIP3   OH259146   5.485   0.419   0.380 -0.3481 -0.4949 -0.2842
12552TIP3    H159147   5.560   0.448   0.328  0.0266  0.6639  0.8842
12552TIP3    H259148   5.469   0.491   0.442 -0.5052 -2.0485  1.5192
12553TIP3   OH259149   3.868   0.624  13.559 -0.5627 -0.3225 -0.3310
12553TIP3    H159150   3.821   0.689  13.611  0.9500  0.7708 -0.2958
12553TIP3    H259151   3.960   0.637  13.581 -0.2670 -2.8206  0.0429
12554TIP3   OH259152   0.370   1.894  17.038  0.4873 -0.3649  0.4542
12554TIP3    H159153   0.330   1.965  16.988  1.9341 -0.2715 -0.6029
12554TIP3    H259154   0.456   1.928  17.064  0.5137 -1.1135  1.3981
12555TIP3   OH259155   1.056   5.488  12.428  0.6078  0.7902 -0.3638
12555TIP3    H159156   1.006   5.556  12.473 -0.0555  0.3660 -0.4509
12555TIP3    H259157   1.142   5.491  12.469  0.1653  0.7501  0.5864
12556TIP3   OH259158   0.660   0.111  15.637 -0.5050 -0.4317  0.0988
12556TIP3    H159159   0.700   0.113  15.550 -1.2530  1.0550 -0.2323
12556TIP3    H259160   0.734   0.121  15.697 -0.3714  3.4369 -0.5397
12557TIP3   OH259161   6.062   4.266   4.001  0.1449 -0.0184 -0.3767
12557TIP3    H159162   6.095   4.345   4.044  0.5631  0.0593 -0.8416
12557TIP3    H259163   6.128   4.200   4.018  0.3302  0.0223 -0.9308
12558TIP3   OH259164   0.063   0.873  12.560 -0.2769  0.0350 -0.5457
12558TIP3    H159165   0.081   0.879  12.466  0.4560  3.0491 -0.2529
12558TIP3    H259166   0.148   0.859  12.601 -0.7785 -2.8863 -0.4021
12559TIP3   OH259167   0.277   3.033  14.096 -0.2167  0.4874  0.1644
12559TIP3    H159168   0.358   2.985  14.082 -0.4706 -0.1766  0.9390
12559TIP3    H259169   0.305   3.116  14.136  0.0269 -0.0690  1.1674
12560TIP3   OH259170   4.685   4.060   2.479 -0.0478 -0.1516 -0.0691
12560TIP3    H159171   4.719   4.061   2.568  0.6296  0.0622 -0.3268
12560TIP3    H259172   4.747   4.006   2.430 -0.1049  0.1977 -0.5321
12561TIP3   OH259173   6.343   2.218   0.408  0.7474 -0.5503  0.3849
12561TIP3    H159174   6.353   2.124   0.421  0.1136 -0.8075 -0.9029
12561TIP3    H259175   6.404   2.238   0.336 -1.4829 -0.5721 -1.5594
12562TIP3   OH259176   4.513   0.671   0.163  0.3016 -0.0266 -0.5217
12562TIP3    H159177   4.436   0.727   0.162  0.2950 -0.0339 -0.4781
12562TIP3    H259178   4.511   0.625   0.080 -1.9176 -2.9436  1.0551
12563TIP3   OH259179   3.342   1.866   0.709 -0.3181  0.2788  0.8904
12563TIP3    H159180   3.395   1.889   0.633 -1.0899 -0.2031  0.1967
12563TIP3    H259181   3.330   1.771   0.701 -0.3419  0.2141  1.6620
12564TIP3   OH259182   6.157   6.236   3.837 -0.1193 -0.0135  0.1267
12564TIP3    H159183   6.207   6.171   3.886  1.1294  1.0392  0.2979
12564TIP3    H259184   6.073   6.194   3.819  0.5691 -1.5599  0.4484
12565TIP3   OH259185   5.221   6.154  11.806 -0.5983 -0.5488 -0.7418
12565TIP3    H159186   5.200   6.247  11.817  0.4876 -0.3755 -0.1126
12565TIP3    H259187   5.304   6.143  11.851 -1.7923 -2.3184  1.1183
12566TIP3   OH259188   3.225   4.081   4.208 -0.0430 -0.2632  0.1148
12566TIP3    H159189   3.267   4.089   4.122  1.4241 -2.2265  0.6250
12566TIP3    H259190   3.293   4.046   4.265 -0.8800  1.4137  2.2132
12567TIP3   OH259191   2.957   5.529   5.081  0.2557  0.3582 -0.3582
12567TIP3    H159192   2.966   5.541   5.176  1.8639 -0.6796 -0.3707
12567TIP3    H259193   2.869   5.562   5.062 -0.7805 -1.0348  1.7581
12568TIP3   OH259194   2.798   5.152  16.835 -0.9670 -0.2937 -0.0009
12568TIP3    H159195   2.820   5.185  16.922  1.6945 -0.3615 -0.6067
12568TIP3    H259196   2.845   5.069  16.827 -2.2015 -0.9201 -1.0470
12569TIP3   OH259197   4.756   6.555  16.347 -0.0167  0.5027  0.2143
12569TIP3    H159198   4.821   6.624  16.334  0.3949  0.2200  0.7547
12569TIP3    H259199   4.703   6.586  16.420 -1.0309  1.1271 -0.7650
12570TIP3   OH259200   2.777   5.488  13.135 -0.4577  0.8827  0.1199
12570TIP3    H159201   2.766   5.422  13.204 -0.7319  1.4930  0.6557
12570TIP3    H259202   2.708   5.468  13.072 -0.0457  0.1634 -0.1116
12571TIP3   OH259203   5.768   4.321   6.142  0.2770  0.6261  0.7734
12571TIP3    H159204   5.805   4.407   6.164 -0.6163  1.0422  0.6400
12571TIP3    H259205   5.675   4.330   6.159 -0.4849  0.9844 -3.3326
12572TIP3   OH259206   1.900   1.152  12.522 -0.1507 -0.2534 -0.1446
12572TIP3    H159207   1.951   1.215  12.573  1.4012 -0.2582 -1.6430
12572TIP3    H259208   1.944   1.068  12.536  1.1534 -0.0310 -2.5222
12573TIP3   OH259209   4.410   4.128   5.952  0.4035 -0.0466 -0.5027
12573TIP3    H159210   4.418   4.034   5.937  0.9581 -0.0385 -0.2858
12573TIP3    H259211   4.460   4.144   6.032  2.4827  0.7915 -1.8927
12574TIP3   OH259212   6.270   6.210   5.275 -0.0803  0.4591  0.0466
12574TIP3    H159213   6.187   6.163   5.280 -0.1421  0.6145  0.5723
12574TIP3    H259214   6.248   6.292   5.230 -0.1660  0.3926 -0.0321
12575TIP3   OH259215   1.082   2.818  15.225 -0.2417  0.3156  0.0245
12575TIP3    H159216   1.173   2.813  15.254 -0.7302  1.4906  1.8567
12575TIP3    H259217   1.086   2.863  15.140  0.7748  1.7864  0.8149
12576TIP3   OH259218   5.442   1.173   3.087  0.0405 -0.1794 -0.2664
12576TIP3    H159219   5.389   1.247   3.059 -0.1562 -0.6824 -1.2459
12576TIP3    H259220   5.397   1.139   3.164 -0.2818  0.2497 -0.2652
12577TIP3   OH259221   4.896   6.029   2.415  0.1593 -0.4205  0.6158
12577TIP3    H159222   4.867   5.941   2.390  0.5905 -0.6936  1.0712
12577TIP3    H259223   4.820   6.067   2.460 -0.3668 -0.1952 -0.4314
12578TIP3   OH259224   1.165   4.136   0.793  0.3212 -0.5632 -0.0539
12578TIP3    H159225   1.153   4.125   0.698  0.1518 -0.3316 -0.0592
12578TIP3    H259226   1.260   4.147   0.803  0.3317 -0.5045 -0.2060
12579TIP3   OH259227   2.181   4.629   1.914  0.1640  0.2555  0.5684
12579TIP3    H159228   2.091   4.662   1.917  0.2107  0.5753 -1.2604
12579TIP3    H259229   2.194   4.590   2.000 -2.2190 -1.0640  0.3766
12580TIP3   OH259230   0.228   6.063  13.777 -0.2018  0.0849  1.0175
12580TIP3    H159231   0.287   6.122  13.730 -1.3129 -0.4194 -1.0982
12580TIP3    H259232   0.160   6.120  13.813  0.0205  0.3553  1.0063
12581TIP3   OH259233   0.429   6.039   4.222 -0.0108 -0.0484 -0.0319
12581TIP3    H159234   0.493   5.974   4.250  1.1827  0.8119 -0.6922
12581TIP3    H259235   0.381   6.063   4.301 -0.8812 -2.1592  0.1012
12582TIP3   OH259236   5.165   3.146  15.561 -0.4975 -0.4126  0.7274
12582TIP3    H159237   5.229   3.215  15.541  0.8961 -2.4349 -2.2882
12582TIP3    H259238   5.095   3.159  15.497 -1.0081 -0.7743  1.2156
12583TIP3   OH259239   4.659   5.675   0.874  0.3450  0.1803  1.0026
12583TIP3    H159240   4.716   5.598   0.878  1.2059  0.8577  1.8920
12583TIP3    H259241   4.719   5.749   0.869 -0.4799  0.7709 -0.5982
12584TIP3   OH259242   2.784   5.771  13.581 -0.5820 -0.2501 -0.7987
12584TIP3    H159243   2.734   5.811  13.510  0.1054  1.8495 -0.1549
12584TIP3    H259244   2.876   5.780  13.554 -0.2745  1.2556  0.6708
12585TIP3   OH259245   5.856   5.657  12.029  0.6791 -0.3444  0.2858
12585TIP3    H159246   5.806   5.635  12.108 -0.4679  1.9773  0.2656
12585TIP3    H259247   5.811   5.611  11.958  1.4506 -2.0904  0.9129
12586TIP3   OH259248   5.951   4.924   1.800 -0.4769  0.2407  0.0909
12586TIP3    H159249   5.921   5.012   1.779  1.5465  1.2823  1.3799
12586TIP3    H259250   5.938   4.916   1.895  0.7551 -0.2708  0.2318
12587TIP3   OH259251   1.000   0.918  14.617  0.4187  0.2223 -0.6301
12587TIP3    H159252   1.043   0.865  14.683 -0.3809  1.1677  0.6879
12587TIP3    H259253   1.029   1.007  14.635 -3.1684  1.1349  1.3155
12588TIP3   OH259254   6.032   6.389   1.097  0.1060  0.5822  0.4349
12588TIP3    H159255   6.003   6.464   1.044  0.7707  0.2974 -0.3460
12588TIP3    H259256   6.102   6.349   1.045  0.1384 -0.2471  1.1142
12589TIP3   OH259257   2.918   4.242  15.829  0.5180  0.9927 -0.0224
12589TIP3    H159258   2.840   4.267  15.779  0.3541  0.8475  0.1624
12589TIP3    H259259   2.963   4.325  15.845  1.0985  0.9357 -1.2795
12590TIP3   OH259260   6.699   3.639  12.152  0.6041 -0.0644 -0.2431
12590TIP3    H159261   6.752   3.627  12.074 -0.5603 -1.0339 -0.8883
12590TIP3    H259262   6.655   3.555  12.166 -1.5634  1.0090 -0.3245
12591TIP3   OH259263   2.946   1.492  12.201  0.3829  0.3571 -0.3482
12591TIP3    H159264   2.959   1.569  12.258 -0.2308  0.4994 -0.4002
12591TIP3    H259265   2.859   1.460  12.224 -0.3197  1.0585 -1.9734
12592TIP3   OH259266   4.920   2.924   2.365 -0.4361 -0.1648 -0.1869
12592TIP3    H159267   4.966   2.908   2.448 -0.4718 -2.0306 -0.5001
12592TIP3    H259268   4.967   2.871   2.301 -1.0557  0.4470 -1.1611
12593TIP3   OH259269   4.718   0.176  16.774 -0.7538  0.3345  0.1203
12593TIP3    H159270   4.762   0.208  16.853 -2.2237  1.2059  0.6274
12593TIP3    H259271   4.788   0.158  16.712  0.2667  2.2584  0.6835
12594TIP3   OH259272   5.936   4.851  13.907 -0.0199  0.3351 -0.3626
12594TIP3    H159273   5.950   4.809  13.992 -3.0209  1.4617  0.7989
12594TIP3    H259274   5.894   4.784  13.853 -0.5549  0.3953 -0.0344
12595TIP3   OH259275   5.281   5.463   1.214 -0.5688  0.5092  0.2147
12595TIP3    H159276   5.307   5.437   1.125 -2.4550 -0.1510 -0.1731
12595TIP3    H259277   5.212   5.528   1.201  0.7310  2.1424  1.2189
12596TIP3   OH259278   2.376   1.925   4.752 -0.7381  0.1968  0.0130
12596TIP3    H159279   2.402   1.880   4.833 -0.3419  0.7607  0.2012
12596TIP3    H259280   2.379   2.018   4.774 -0.9448  0.3427 -0.5591
12597TIP3   OH259281   3.909   3.857   0.116 -0.1175  0.2425  0.5681
12597TIP3    H159282   3.945   3.770   0.129  1.3298  0.2635 -2.6731
12597TIP3    H259283   3.878   3.856   0.025 -1.0346  2.7549  0.8180
12598TIP3   OH259284   5.825   6.204   0.026 -0.3788  0.4471  0.0245
12598TIP3    H159285   5.774   6.183   0.104 -0.8200 -2.5749 -1.0035
12598TIP3    H259286   5.843   6.119  -0.015  1.8907  1.7817 -1.8879
12599TIP3   OH259287   3.313   0.743  15.568  0.3891  0.1185 -0.3143
12599TIP3    H159288   3.307   0.697  15.651  0.3464 -0.2815 -0.5347
12599TIP3    H259289   3.298   0.835  15.589 -2.6404 -0.3297 -0.2757
12600TIP3   OH259290   5.230   2.609   3.537 -0.2829 -0.1820 -0.2285
12600TIP3    H159291   5.220   2.624   3.631 -0.6127 -0.2511 -0.2528
12600TIP3    H259292   5.180   2.529   3.520  0.0146 -0.3294 -0.4117
12601TIP3   OH259293   6.301   4.570  15.071 -0.2943 -0.6512  0.5927
12601TIP3    H159294   6.266   4.651  15.034  2.9855  0.5074 -0.2075
12601TIP3    H259295   6.320   4.515  14.996  3.6331  0.5456  0.5488
12602TIP3   OH259296   2.454   6.204   4.528 -0.0691  0.1740  0.1035
12602TIP3    H159297   2.388   6.135   4.538 -0.1241  0.3360  0.9451
12602TIP3    H259298   2.419   6.278   4.577 -0.3530  1.0589 -1.4235
12603TIP3   OH259299   2.023   4.198  11.587  0.0985 -0.0193 -0.0645
12603TIP3    H159300   1.936   4.159  11.578 -0.0773  0.7194 -1.7334
12603TIP3    H259301   2.006   4.292  11.595  0.6909  0.0124  0.9161
12604TIP3   OH259302   2.771   3.034   0.428  0.2196 -0.4315 -0.1861
12604TIP3    H159303   2.778   2.939   0.416 -0.1108 -0.6872  1.5207
12604TIP3    H259304   2.790   3.071   0.341 -1.6326 -2.1268 -1.3486
12605TIP3   OH259305   6.607   3.975  15.048 -0.9387 -0.0298 -0.2029
12605TIP3    H159306   6.549   4.029  15.101 -1.3502 -0.6113 -0.0636
12605TIP3    H259307   6.630   3.901  15.104  1.2361  0.9975  0.3348
12606TIP3   OH259308   0.181   6.034  11.158 -0.4108  0.5751  0.3845
12606TIP3    H159309   0.142   5.972  11.096  1.3674 -0.2254  0.0156
12606TIP3    H259310   0.182   5.988  11.241  0.0690  0.4537  0.3128
12607TIP3   OH259311   1.768   2.239   1.115  0.6894  0.1617 -0.1733
12607TIP3    H159312   1.772   2.143   1.121  1.4765  0.2511  0.8067
12607TIP3    H259313   1.814   2.270   1.192  3.5301  1.3504 -2.2865
12608TIP3   OH259314   6.687   0.387   2.711  0.1728 -0.1577 -0.4814
12608TIP3    H159315   6.663   0.373   2.619 -1.4458  0.3400 -0.1562
12608TIP3    H259316   6.642   0.468   2.735 -0.4567 -0.9590  1.1092
12609TIP3   OH259317   1.363   6.056   3.092  0.0209 -0.0569 -0.7045
12609TIP3    H159318   1.419   6.013   3.028 -1.0350 -1.3947 -0.7656
12609TIP3    H259319   1.294   5.991   3.110 -0.3750  0.7839  0.8478
12610TIP3   OH259320   5.386   4.249   4.621  0.3050  0.1306 -0.4899
12610TIP3    H159321   5.447   4.199   4.566 -0.1839 -2.1412  1.0067
12610TIP3    H259322   5.427   4.336   4.627  3.6878 -1.4508  0.8520
12611TIP3   OH259323   3.840   1.921  10.749 -0.2772 -0.1451 -0.0007
12611TIP3    H159324   3.884   1.996  10.789  0.6978 -1.1694  0.8945
12611TIP3    H259325   3.884   1.845  10.787 -0.4261 -1.1633 -1.8252
12612TIP3   OH259326   2.397   1.524  13.424  0.0496 -0.0823 -0.2414
12612TIP3    H159327   2.439   1.609  13.413 -1.9462  0.7033 -2.3367
12612TIP3    H259328   2.304   1.542  13.414 -0.5482 -2.2685  1.0306
12613TIP3   OH259329   0.507   6.178  11.297 -1.0877  0.7493  0.2387
12613TIP3    H159330   0.583   6.151  11.245 -1.7770  0.7016 -0.7682
12613TIP3    H259331   0.466   6.096  11.324 -0.1590  0.7601  1.7433
12614TIP3   OH259332   0.444   2.668  11.697  0.1182 -0.6652 -0.6523
12614TIP3    H159333   0.356   2.634  11.713 -0.1920 -0.3226 -1.6311
12614TIP3    H259334   0.444   2.695  11.605 -0.0481  3.2648  0.4463
12615TIP3   OH259335   4.661   1.602   6.672 -0.6753 -0.0705  0.2797
12615TIP3    H159336   4.737   1.570   6.720 -0.6919  0.2836  0.5403
12615TIP3    H259337   4.687   1.688   6.639 -1.1751  0.3043  0.8692
12616TIP3   OH259338   4.595   1.090  16.187  0.2386  0.0103 -0.1070
12616TIP3    H159339   4.508   1.091  16.148  0.7818  0.1179 -1.3367
12616TIP3    H259340   4.579   1.098  16.281 -1.1676 -2.2484 -0.1288
12617TIP3   OH259341   1.565   2.229   3.879  0.1779  0.7726 -0.1170
12617TIP3    H159342   1.509   2.163   3.920  0.9239  1.5135  2.1881
12617TIP3    H259343   1.508   2.305   3.866 -0.0424  0.5570 -0.4271
12618TIP3   OH259344   6.434   5.593   1.399 -0.1897  0.2550 -0.1924
12618TIP3    H159345   6.428   5.669   1.341  0.2012  2.0989  2.0986
12618TIP3    H259346   6.344   5.570   1.420 -0.2884  0.9150  0.1202
12619TIP3   OH259347   4.761   1.475   0.876  0.2129  0.5061  0.0873
12619TIP3    H159348   4.684   1.498   0.825  0.9692 -1.2119 -1.9046
12619TIP3    H259349   4.764   1.379   0.873  1.2639  0.4604  1.9065
12620TIP3   OH259350   6.642   2.825   0.340  0.2826 -0.4760 -0.1944
12620TIP3    H159351   6.712   2.886   0.318 -1.0272  1.6873  1.4024
12620TIP3    H259352   6.673   2.741   0.308  2.7942  0.7423 -1.1517
12621TIP3   OH259353   0.424   6.505   5.991 -0.0750 -0.1479 -0.1972
12621TIP3    H159354   0.436   6.596   6.018  0.8143  0.1580 -1.5929
12621TIP3    H259355   0.497   6.458   6.033  1.7285  0.4463 -2.5351
12622TIP3   OH259356   5.404   1.886   0.010  0.2151  0.6744 -0.0959
12622TIP3    H159357   5.373   1.799   0.036 -2.0410  0.6049 -2.8534
12622TIP3    H259358   5.465   1.868  -0.062 -0.2056  1.3676 -0.6239
12623TIP3   OH259359   5.364   2.122  15.238 -0.2338 -0.4589 -0.5774
12623TIP3    H159360   5.284   2.128  15.187 -1.2812 -0.6002  1.0070
12623TIP3    H259361   5.357   2.193  15.302  0.7027 -0.7618 -0.1292
12624TIP3   OH259362   4.932   2.460   1.773  0.2127  0.5161 -0.0187
12624TIP3    H159363   4.865   2.424   1.830  0.9450  0.3118  0.7232
12624TIP3    H259364   4.918   2.417   1.689 -0.1112 -0.0834  0.3381
12625TIP3   OH259365   2.303   0.326   0.306 -0.1322 -0.0024 -0.5846
12625TIP3    H159366   2.250   0.352   0.381 -0.0423  0.8404 -0.8133
12625TIP3    H259367   2.239   0.290   0.243 -0.4785  1.3345 -1.0022
12626TIP3   OH259368   2.461   1.889  14.983 -0.2016 -0.2476  0.0151
12626TIP3    H159369   2.458   1.974  14.939 -0.8354  0.3298  1.1528
12626TIP3    H259370   2.503   1.907  15.067 -0.9334 -0.9360  0.5332
12627TIP3   OH259371   2.323   2.064   1.851  0.0394  0.4523  0.3326
12627TIP3    H159372   2.276   2.119   1.788 -0.8082 -0.1619  0.4311
12627TIP3    H259373   2.255   2.015   1.896  0.8664 -2.0415 -1.0199
12628TIP3   OH259374   1.312   2.074   6.339 -0.1831  0.3396  0.9634
12628TIP3    H159375   1.315   2.089   6.433  5.3875  2.3702  0.6573
12628TIP3    H259376   1.402   2.050   6.315 -1.5913 -0.8065 -3.7293
12629TIP3   OH259377   5.486   4.053   6.290  0.4371  0.6668 -0.3469
12629TIP3    H159378   5.519   4.141   6.272 -0.2460  1.2227  1.0379
12629TIP3    H259379   5.392   4.065   6.304 -0.0394 -0.6141 -2.3446
12630TIP3   OH259380   6.230   1.293   0.462 -0.3933  0.3180 -0.0341
12630TIP3    H159381   6.162   1.356   0.437 -1.4966 -1.0729 -0.6154
12630TIP3    H259382   6.291   1.293   0.389  0.0672  1.3107  0.3345
12631TIP3   OH259383   6.549   2.815   3.813  1.1720  0.0792  0.6040
12631TIP3    H159384   6.631   2.863   3.800  0.9132  0.6596  1.0639
12631TIP3    H259385   6.488   2.856   3.751  0.8362  0.6319  1.2952
12632TIP3   OH259386   4.140   3.450   6.779 -0.2497  0.5430  0.3639
12632TIP3    H159387   4.107   3.366   6.747  1.8305  0.2329 -1.1022
12632TIP3    H259388   4.206   3.427   6.844  0.0028  1.0548  0.2899
12633TIP3   OH259389   5.419   6.703   3.469 -0.3143 -0.6471 -0.5876
12633TIP3    H159390   5.407   6.790   3.508  0.4706  0.1718 -2.0913
12633TIP3    H259391   5.513   6.686   3.477 -0.5233 -1.5116  0.0075
12634TIP3   OH259392   3.932   3.722  13.467 -0.8557  0.0231 -0.0229
12634TIP3    H159393   3.885   3.731  13.550 -1.3993  0.3905 -0.3712
12634TIP3    H259394   3.894   3.788  13.410  0.0415  0.2809 -0.3317
12635TIP3   OH259395   0.901   3.688   5.474  0.3692  0.2051 -0.3467
12635TIP3    H159396   0.958   3.612   5.481 -1.4880 -1.1373  0.4049
12635TIP3    H259397   0.958   3.762   5.497  1.7413 -1.1285  0.6715
12636TIP3   OH259398   4.354   1.584  13.493 -0.6108 -0.2963  0.4265
12636TIP3    H159399   4.383   1.596  13.583 -1.0629  1.8893  0.2947
12636TIP3    H259400   4.433   1.598  13.440 -0.3546 -1.5352  0.4628
12637TIP3   OH259401   3.935   0.189   6.197  0.3868  0.3646 -0.1544
12637TIP3    H159402   3.992   0.231   6.261  1.6327 -1.9888  0.3436
12637TIP3    H259403   3.889   0.121   6.246 -2.6455  1.9898 -0.6277
12638TIP3   OH259404   6.135   4.997   0.670 -0.2185  0.1293 -0.9712
12638TIP3    H159405   6.203   5.024   0.608 -0.1880 -0.2771 -1.1234
12638TIP3    H259406   6.119   5.074   0.724 -0.9226  0.7950 -2.1061
12639TIP3   OH259407   0.573   5.825   1.086 -0.4405  0.1976 -0.0930
12639TIP3    H159408   0.654   5.811   1.135  0.0372  1.0037 -0.6315
12639TIP3    H259409   0.573   5.918   1.066 -0.1270 -0.2580 -2.4333
12640TIP3   OH259410   1.826   3.149  14.901  0.4026 -0.2097 -0.1216
12640TIP3    H159411   1.789   3.076  14.851  0.5669 -0.3564 -0.0338
12640TIP3    H259412   1.908   3.114  14.937  0.3122 -0.0876  0.2061
12641TIP3   OH259413   6.237   2.392  12.066 -0.0471 -0.0941  0.6467
12641TIP3    H159414   6.244   2.464  12.004  2.6743 -2.6016 -2.0985
12641TIP3    H259415   6.285   2.422  12.143 -2.2173  2.4585  1.1011
12642TIP3   OH259416   1.633   2.633  14.361 -0.3835 -0.0422  0.5925
12642TIP3    H159417   1.580   2.707  14.331  0.6609  0.1884 -0.7964
12642TIP3    H259418   1.711   2.674  14.399 -0.8615 -0.3849  1.9348
12643TIP3   OH259419   2.930   0.725  15.856  0.3743  0.0441 -0.0799
12643TIP3    H159420   2.872   0.670  15.909  1.6540 -1.4950 -0.2482
12643TIP3    H259421   2.889   0.727  15.770 -0.3760  0.4778  0.2734
12644TIP3   OH259422   2.571   0.104   1.936 -0.1490 -0.5904  0.4269
12644TIP3    H159423   2.595   0.147   2.018 -0.8519  1.0086 -0.1998
12644TIP3    H259424   2.652   0.103   1.884 -0.2044  0.2249  0.3284
12645TIP3   OH259425   6.758   1.601  14.689 -0.3163 -0.1913  0.5261
12645TIP3    H159426   6.738   1.526  14.744 -0.1653 -0.5848  0.0554
12645TIP3    H259427   6.690   1.602  14.622 -1.4310  1.2436  1.6510
12646TIP3   OH259428   0.713   3.662  13.856 -0.0622  0.1487 -0.3090
12646TIP3    H159429   0.689   3.650  13.764  2.7220 -0.6505 -0.9854
12646TIP3    H259430   0.665   3.594  13.903  0.1751 -0.8498 -1.4864
12647TIP3   OH259431   5.956   6.210  14.291 -0.2624  0.0102 -0.2837
12647TIP3    H159432   5.884   6.191  14.230  1.4482 -0.0329 -2.3524
12647TIP3    H259433   5.949   6.305  14.306  0.7048  0.4560 -2.4404
12648TIP3   OH259434   3.029   6.216   0.265  0.1078 -0.9090 -0.4585
12648TIP3    H159435   3.081   6.296   0.269 -0.4069 -0.6442  1.5146
12648TIP3    H259436   2.954   6.239   0.209  0.6646 -0.4483 -1.0255
12649TIP3   OH259437   1.064   6.237   1.743 -0.1904 -0.2482  0.0195
12649TIP3    H159438   1.101   6.325   1.734  2.8771 -1.5472 -0.8771
12649TIP3    H259439   1.040   6.231   1.835 -1.8914  2.0480 -0.2246
12650TIP3   OH259440   5.730   1.781   4.369 -0.4485  0.3435 -0.5453
12650TIP3    H159441   5.660   1.716   4.364  0.2439 -0.3790 -0.8462
12650TIP3    H259442   5.748   1.789   4.463 -0.6364  0.2130 -0.4976
12651TIP3   OH259443   2.379   0.942   0.527 -0.2660  0.2298 -0.0497
12651TIP3    H159444   2.343   0.890   0.456 -1.8319 -0.0884  0.9543
12651TIP3    H259445   2.474   0.932   0.519 -0.4761 -0.8254 -1.3016
12652TIP3   OH259446   5.600   2.032  15.398 -0.0199  0.0439 -0.0210
12652TIP3    H159447   5.562   2.018  15.484  0.1544 -1.2584 -0.1488
12652TIP3    H259448   5.530   2.008  15.337 -0.3558  1.5513 -0.2557
12653TIP3   OH259449   1.678   5.110   4.286  0.0631 -0.0246  0.5299
12653TIP3    H159450   1.748   5.138   4.344 -0.4704  0.1007  1.1094
12653TIP3    H259451   1.598   5.145   4.325 -0.3352 -0.2332 -0.0859
12654TIP3   OH259452   3.561   6.383  12.835  0.0912 -0.4947 -0.0698
12654TIP3    H159453   3.595   6.458  12.785  3.4092 -2.0124 -0.1984
12654TIP3    H259454   3.592   6.398  12.924 -0.7029 -0.8531  0.2664
12655TIP3   OH259455   6.246   1.967   3.467  0.3374  0.1560  0.2944
12655TIP3    H159456   6.320   1.978   3.526  0.3501  0.4397  0.2248
12655TIP3    H259457   6.179   1.924   3.521  0.7802 -0.7042  0.1760
12656TIP3   OH259458   1.126   5.510   4.839  0.5830  0.1981 -0.3273
12656TIP3    H159459   1.129   5.414   4.834  1.5183  0.2819 -1.8615
12656TIP3    H259460   1.059   5.535   4.775  2.4012  0.6868 -2.0827
12657TIP3   OH259461   1.482   2.480  13.761 -0.4638  0.1410  0.1660
12657TIP3    H159462   1.508   2.408  13.704  1.4545  2.2282 -1.7405
12657TIP3    H259463   1.563   2.506  13.805 -1.0437  1.3660  0.5395
12658TIP3   OH259464   1.173   0.722   3.998 -0.4173  0.1662 -0.3076
12658TIP3    H159465   1.229   0.799   4.004  1.0114 -0.7440 -1.4207
12658TIP3    H259466   1.226   0.652   4.036 -0.6006 -0.8061 -1.8095
12659TIP3   OH259467   1.919   0.516  16.547 -0.4556 -0.2726  0.0445
12659TIP3    H159468   1.845   0.456  16.546  0.2674 -1.1698 -1.5928
12659TIP3    H259469   1.978   0.480  16.614 -0.1065 -1.3026 -0.8026
12660TIP3   OH259470   3.188   5.058   5.094  0.8924 -0.1125  0.4242
12660TIP3    H159471   3.110   5.064   5.150  1.2652  0.9254  0.8347
12660TIP3    H259472   3.195   4.965   5.073 -1.5113 -0.0104 -1.0848
12661TIP3   OH259473   0.796   4.004   0.747 -0.1174 -0.0767 -0.5641
12661TIP3    H159474   0.758   4.066   0.810  0.2237  0.9723 -1.3839
12661TIP3    H259475   0.752   3.921   0.766 -1.3165  0.6423 -0.1298
12662TIP3   OH259476   0.089   6.538  10.757  0.4043  0.6818 -0.0580
12662TIP3    H159477   0.122   6.552  10.669  0.6597  0.0873 -0.0588
12662TIP3    H259478   0.010   6.487  10.745  0.4883  0.5232  0.0666
12663TIP3   OH259479   3.196   2.359   4.975  0.2415 -0.3180  0.3571
12663TIP3    H159480   3.203   2.368   5.070  0.5110 -2.8065  0.6144
12663TIP3    H259481   3.270   2.302   4.951  0.5148  0.7364 -1.4327
12664TIP3   OH259482   6.026   5.795   6.139  1.4061  0.7209  0.0474
12664TIP3    H159483   6.005   5.867   6.080  0.9209  1.6578  1.3623
12664TIP3    H259484   6.061   5.727   6.081 -0.7034  0.9561 -1.5469
12665TIP3   OH259485   2.731   3.738  14.848  0.3428 -0.0845 -0.3519
12665TIP3    H159486   2.802   3.744  14.784  0.2995  0.8881 -0.3175
12665TIP3    H259487   2.761   3.672  14.910  0.1744 -1.3904 -1.6252
12666TIP3   OH259488   0.983   0.488   2.934  0.3456  0.0965 -0.1946
12666TIP3    H159489   1.035   0.498   3.014 -0.0121 -0.4920  0.1200
12666TIP3    H259490   0.928   0.567   2.931 -0.3172 -0.3165  0.6531
12667TIP3   OH259491   2.830   2.396  15.223  0.6837  0.0902  0.1418
12667TIP3    H159492   2.920   2.364  15.223  1.2377  1.5994  1.3291
12667TIP3    H259493   2.838   2.491  15.231 -0.9637  0.4570 -2.1440
12668TIP3   OH259494   4.694   0.447   1.192  0.1788  0.7849 -0.6293
12668TIP3    H159495   4.673   0.448   1.286 -0.4768 -0.6167 -0.7597
12668TIP3    H259496   4.623   0.398   1.152  1.1119  0.3093 -1.7167
12669TIP3   OH259497   0.207   0.386   4.330 -0.3041 -0.6981  0.3599
12669TIP3    H159498   0.218   0.361   4.422 -1.0959  0.4174  0.7708
12669TIP3    H259499   0.292   0.367   4.290  0.5969  0.3733  1.7036
12670TIP3   OH259500   0.041   1.336  16.528  0.2284 -0.0419 -1.1393
12670TIP3    H159501   0.028   1.358  16.436 -1.6131  0.3332 -0.8147
12670TIP3    H259502  -0.041   1.363  16.571  1.1314 -0.0280  0.6332
12671TIP3   OH259503   0.149   3.310   4.700  0.5072  0.4327  0.0315
12671TIP3    H159504   0.068   3.354   4.675  1.4836  1.7455 -0.9303
12671TIP3    H259505   0.140   3.222   4.665 -0.7477  0.3860  0.4361
12672TIP3   OH259506   2.816   5.404   1.708  0.0563  0.4216  0.5967
12672TIP3    H159507   2.900   5.365   1.730  0.2951  0.9357  0.6237
12672TIP3    H259508   2.823   5.425   1.615  0.2600  1.1900  0.7795
12673TIP3   OH259509   5.431   4.491   3.198  0.3141 -0.3494 -0.7922
12673TIP3    H159510   5.344   4.477   3.236  0.2191  0.8545 -0.5476
12673TIP3    H259511   5.414   4.512   3.106  0.2742  0.9732 -0.4859
12674TIP3   OH259512   0.998   0.652  13.108 -0.1345 -0.1418  1.0027
12674TIP3    H159513   1.051   0.574  13.124  1.4241  0.1009 -2.4118
12674TIP3    H259514   1.058   0.713  13.063 -1.9398  2.1288  1.5738
12675TIP3   OH259515   5.746   1.331  14.153 -0.6892  0.5184  0.1362
12675TIP3    H159516   5.830   1.349  14.196  0.3653 -2.0825 -0.7556
12675TIP3    H259517   5.751   1.380  14.071  0.1852 -0.0125 -0.1375
12676TIP3   OH259518   4.578   5.383   6.565  0.3358  0.1980 -0.4072
12676TIP3    H159519   4.594   5.288   6.566  2.0904  0.4999  0.3919
12676TIP3    H259520   4.527   5.399   6.645  1.5031  0.1777  0.3478
12677TIP3   OH259521   5.231   3.942  15.701  0.3110  0.5273 -0.6955
12677TIP3    H159522   5.308   3.912  15.749 -0.1750  1.0708  0.4378
12677TIP3    H259523   5.176   3.864  15.692 -0.1059  0.6496  0.6281
12678TIP3   OH259524   3.400   3.675  12.546 -0.6363  0.7937  0.0579
12678TIP3    H159525   3.375   3.742  12.610 -0.1508  1.4603 -0.4461
12678TIP3    H259526   3.480   3.708  12.506 -0.8767  0.3348 -0.8229
12679TIP3   OH259527   6.121   4.449  13.904 -0.3920  0.5454 -0.1112
12679TIP3    H159528   6.046   4.491  13.862  0.0557  1.0807 -0.3933
12679TIP3    H259529   6.090   4.426  13.991 -0.6643  1.4112  0.0210
12680TIP3   OH259530   0.844   3.414  12.465  0.1802 -0.6759  0.1633
12680TIP3    H159531   0.858   3.410  12.560  1.6024 -1.1716 -0.0492
12680TIP3    H259532   0.758   3.375  12.452 -1.2790  1.9344  1.5139
12681TIP3   OH259533   3.401   5.398  11.743 -0.2977  0.3373  0.3181
12681TIP3    H159534   3.491   5.402  11.775 -0.2365  1.5890  0.0082
12681TIP3    H259535   3.399   5.322  11.685  0.8884  1.0508 -0.6768
12682TIP3   OH259536   3.617   4.445  11.631  0.4735  0.2848  0.5564
12682TIP3    H159537   3.711   4.460  11.640  0.1754  0.1430  4.7959
12682TIP3    H259538   3.580   4.532  11.614  1.0648  0.8326  2.0416
12683TIP3   OH259539   2.728   2.196  13.858  0.2887 -0.6059  0.2646
12683TIP3    H159540   2.646   2.182  13.906  1.9560 -0.9278  3.1513
12683TIP3    H259541   2.758   2.282  13.887  2.7863 -2.0441  2.1309
12684TIP3   OH259542   4.756   4.195   3.445  0.7257  0.3270  0.1397
12684TIP3    H159543   4.677   4.220   3.494 -0.2040 -2.0442 -0.1208
12684TIP3    H259544   4.747   4.241   3.361  1.2659  2.6779  1.3074
12685TIP3   OH259545   4.803   5.758  14.635 -0.4261  0.0392 -0.5922
12685TIP3    H159546   4.849   5.838  14.609  0.9726 -0.3508  0.5571
12685TIP3    H259547   4.860   5.719  14.701 -0.3888 -2.6170 -2.1161
12686TIP3   OH259548   5.027   1.569  16.113  0.5122  0.3518 -0.5191
12686TIP3    H159549   4.942   1.561  16.155  1.0185 -0.2828  0.3917
12686TIP3    H259550   5.018   1.645  16.056 -0.5132  0.5764 -0.0727
12687TIP3   OH259551   3.058   0.234   0.601 -0.5418 -0.2912 -0.6428
12687TIP3    H159552   2.973   0.224   0.644 -0.0098  1.8625  0.9578
12687TIP3    H259553   3.069   0.329   0.591  2.3820 -0.4609  0.6048
12688TIP3   OH259554   1.656   2.679   1.786  0.0642  0.1781  0.3675
12688TIP3    H159555   1.698   2.639   1.710 -0.3084 -0.4722  0.4947
12688TIP3    H259556   1.720   2.670   1.857  0.2314  0.3768  0.2419
12689TIP3   OH259557   1.824   4.574  14.416 -0.1459  0.7370 -0.1958
12689TIP3    H159558   1.886   4.504  14.401  1.6245  1.6792  2.4571
12689TIP3    H259559   1.740   4.530  14.430  0.4577 -0.6705 -0.9540
12690TIP3   OH259560   6.364   5.639   3.676 -0.1828 -0.2100  0.0933
12690TIP3    H159561   6.367   5.662   3.769 -1.4484  0.2671  0.0313
12690TIP3    H259562   6.275   5.604   3.664  0.1449 -0.7333 -0.8315
12691TIP3   OH259563   0.267   6.056  13.071 -0.5300  0.5059  0.2769
12691TIP3    H159564   0.287   6.054  12.977 -2.0795  0.7511 -0.0797
12691TIP3    H259565   0.282   5.966  13.100  1.5689  0.8000  0.1630
12692TIP3   OH259566   4.706   2.805  13.419  0.4885  0.2197  0.2892
12692TIP3    H159567   4.680   2.773  13.332 -1.3870  0.8535  0.5900
12692TIP3    H259568   4.726   2.726  13.468 -0.2889 -0.2658 -0.1554
12693TIP3   OH259569   4.607   2.966   0.059  0.3791  0.0323 -0.0115
12693TIP3    H159570   4.637   2.914  -0.016  0.1803  0.3123 -0.2851
12693TIP3    H259571   4.512   2.953   0.060  0.2210  1.1026 -0.6189
12694TIP3   OH259572   6.274   0.156   1.328 -0.5481  0.0633 -0.4378
12694TIP3    H159573   6.200   0.163   1.267  0.1107 -0.4389 -1.2996
12694TIP3    H259574   6.244   0.095   1.395 -1.5078  1.0988  0.0844
12695TIP3   OH259575   3.376   1.752  15.497 -0.0117  0.5017 -0.5747
12695TIP3    H159576   3.368   1.734  15.590 -2.1519  0.7901 -0.6856
12695TIP3    H259577   3.467   1.780  15.486  0.5400 -0.4949  1.2417
12696TIP3   OH259578   1.306   5.610   1.127  0.0101  0.2871 -0.3948
12696TIP3    H159579   1.306   5.657   1.211  1.0636 -1.1118  0.4091
12696TIP3    H259580   1.230   5.553   1.132  0.6223 -0.4960  0.0144
12697TIP3   OH259581   1.201   1.878  16.668 -0.5008  0.4204  0.3324
12697TIP3    H159582   1.123   1.857  16.617 -0.3486 -0.8398  0.5879
12697TIP3    H259583   1.195   1.822  16.746  0.0334  1.2109  0.9505
12698TIP3   OH259584   3.650   4.367   3.747 -0.0398  0.4159  0.4112
12698TIP3    H159585   3.556   4.384   3.744 -0.5904 -2.4655 -0.7781
12698TIP3    H259586   3.669   4.326   3.663  2.1216  0.2525  0.9576
12699TIP3   OH259587   4.163   4.123   5.327 -0.5007  0.0630 -0.3170
12699TIP3    H159588   4.087   4.180   5.334 -1.1549 -0.8554  0.0670
12699TIP3    H259589   4.135   4.039   5.363  1.3137  0.2860  1.7456
12700TIP3   OH259590   2.776   1.387   4.618  0.7594  0.0356 -0.2470
12700TIP3    H159591   2.687   1.419   4.631  0.6913  0.0058 -0.6339
12700TIP3    H259592   2.789   1.391   4.523  1.4315  0.7491 -0.1251
12701TIP3   OH259593   3.436   0.413   2.052 -0.0657 -0.4133 -0.0313
12701TIP3    H159594   3.456   0.324   2.078  0.8373 -0.2236 -0.0513
12701TIP3    H259595   3.354   0.406   2.002 -0.4466 -1.1036  0.6915
12702TIP3   OH259596   2.651   6.322  14.814 -0.0248  0.7251 -0.2781
12702TIP3    H159597   2.646   6.237  14.858 -0.5191  1.1715  0.5378
12702TIP3    H259598   2.727   6.315  14.756 -0.1311 -0.3113 -0.2981
12703TIP3   OH259599   1.839   5.624  14.809 -0.3136  0.0790  0.1555
12703TIP3    H159600   1.878   5.554  14.861  0.3840 -0.7747 -1.4765
12703TIP3    H259601   1.900   5.697  14.818 -0.3073  0.0037  0.7092
12704TIP3   OH259602   4.191   3.189  11.866 -0.1678  0.3096  0.4715
12704TIP3    H159603   4.144   3.264  11.830  1.8687  1.6616  0.5261
12704TIP3    H259604   4.271   3.184  11.813 -0.2096 -1.7409  0.5639
12705TIP3   OH259605   2.231   5.040  12.110  0.4662  0.3219  0.0203
12705TIP3    H159606   2.158   4.997  12.155 -0.9572  0.7424 -1.8427
12705TIP3    H259607   2.296   4.971  12.099  0.1890 -0.1590  1.3395
12706TIP3   OH259608   6.520   3.840   2.268 -0.5972  0.0963 -0.0503
12706TIP3    H159609   6.612   3.842   2.241 -0.3300 -1.4967  0.6817
12706TIP3    H259610   6.475   3.896   2.204  0.5786 -0.6477 -1.5756
12707TIP3   OH259611   0.794   3.173   4.409  0.0766 -0.2819 -0.9671
12707TIP3    H159612   0.854   3.099   4.409  0.0632 -0.2935 -1.0738
12707TIP3    H259613   0.708   3.134   4.428  0.3319 -0.0683  0.7036
12708TIP3   OH259614   4.983   3.541  15.320 -0.0062 -0.1063 -0.2739
12708TIP3    H159615   4.911   3.583  15.368  1.6038  1.6389  0.6584
12708TIP3    H259616   4.973   3.448  15.340 -1.5893  0.1915  0.4190
12709TIP3   OH259617   6.623   6.712   6.887 -0.1408 -0.4469  0.0479
12709TIP3    H159618   6.660   6.778   6.945 -1.6044 -0.1667  0.7031
12709TIP3    H259619   6.555   6.759   6.838 -0.6971 -1.2931  0.0008
12710TIP3   OH259620   0.803   0.365  13.057 -0.3083  0.2858 -0.2546
12710TIP3    H159621   0.765   0.330  13.137 -0.4048  0.3491 -0.2727
12710TIP3    H259622   0.729   0.374  12.997  0.2233 -2.7623 -1.4472
12711TIP3   OH259623   3.246   0.276   1.635 -0.4087  0.1006  0.1221
12711TIP3    H159624   3.191   0.211   1.679 -0.4594  1.0076  1.4083
12711TIP3    H259625   3.210   0.282   1.547 -2.2623  0.5645  0.8952
12712TIP3   OH259626   1.064   2.954  16.133  0.1344 -0.2719 -0.1627
12712TIP3    H159627   1.137   2.910  16.089 -0.4499  1.0539 -2.5534
12712TIP3    H259628   1.032   3.017  16.069 -2.0210  0.3758  1.4893
12713TIP3   OH259629   3.343   0.085  13.304  0.1610  0.7074  0.0347
12713TIP3    H159630   3.262   0.063  13.350 -0.1184 -0.0400 -0.8001
12713TIP3    H259631   3.413   0.048  13.357 -0.1675 -0.2629 -0.1945
12714TIP3   OH259632   0.060   1.533   2.718 -0.1226 -0.0327  0.1410
12714TIP3    H159633   0.144   1.556   2.758 -1.2049  1.2978  1.7295
12714TIP3    H259634   0.043   1.444   2.747 -0.9717  0.9668  2.8559
12715TIP3   OH259635   4.873   0.989   0.649 -0.0113 -0.8991  0.0287
12715TIP3    H159636   4.820   1.036   0.714  0.0028 -2.0525  0.8952
12715TIP3    H259637   4.960   0.985   0.689  0.0877 -1.2752 -0.2282
12716TIP3   OH259638   4.735   5.280   2.157  0.2761  0.4326 -0.5349
12716TIP3    H159639   4.654   5.252   2.200 -0.3258  0.7388 -1.4362
12716TIP3    H259640   4.804   5.231   2.200 -0.2316  1.2312  1.2218
12717TIP3   OH259641   4.702   3.806  12.353 -0.6624  0.5201  0.0183
12717TIP3    H159642   4.695   3.732  12.292  0.9079  1.1849 -0.9902
12717TIP3    H259643   4.760   3.774  12.422 -0.1816  0.7235 -0.2903
12718TIP3   OH259644   5.521   4.047   2.770  0.3064  0.1356 -0.2221
12718TIP3    H159645   5.537   4.085   2.856 -0.0286 -1.9102  0.7842
12718TIP3    H259646   5.608   4.019   2.740 -0.0496 -2.7070  1.2241
12719TIP3   OH259647   4.632   3.008   5.652  0.4803 -0.1124 -0.4572
12719TIP3    H159648   4.612   3.090   5.699  1.3624  0.0762 -0.4091
12719TIP3    H259649   4.599   3.024   5.563  1.6078  0.6991 -0.7359
12720TIP3   OH259650   5.674   6.509   1.822 -0.1325 -0.1825  0.4356
12720TIP3    H159651   5.677   6.504   1.917 -2.0775 -1.1470  0.4760
12720TIP3    H259652   5.654   6.419   1.794  4.3132 -0.8128 -1.1081
12721TIP3   OH259653   2.106   2.327   0.348 -0.3202  0.4390  0.1901
12721TIP3    H159654   2.064   2.290   0.271  0.9591 -0.2455 -0.1965
12721TIP3    H259655   2.039   2.382   0.388 -1.0012  0.7980 -1.4040
12722TIP3   OH259656   4.506   2.284  11.255  0.2104 -0.1456  0.3753
12722TIP3    H159657   4.524   2.249  11.168 -0.5421 -2.4286  1.0890
12722TIP3    H259658   4.584   2.333  11.278  1.7709 -2.2199 -0.3052
12723TIP3   OH259659   2.618   0.652   0.285  0.2900  0.5345  0.5520
12723TIP3    H159660   2.632   0.570   0.334  0.6030 -0.7335 -1.5907
12723TIP3    H259661   2.706   0.684   0.266  0.1816  0.5946  0.1422
12724TIP3   OH259662   5.246   6.725   4.785  0.2254  0.1666 -0.3200
12724TIP3    H159663   5.195   6.658   4.740  0.5022 -1.4370  1.6756
12724TIP3    H259664   5.186   6.800   4.792  0.1584  0.4421 -3.2216
12725TIP3   OH259665   5.255   3.136  15.960  0.0511  0.0976 -0.0166
12725TIP3    H159666   5.245   3.075  16.032  1.0983  0.6021  0.5758
12725TIP3    H259667   5.166   3.162  15.936 -0.2891  0.0595  1.2077
12726TIP3   OH259668   6.343   2.207  16.318 -0.3870 -0.2266  0.0986
12726TIP3    H159669   6.306   2.271  16.379 -1.2852 -0.4795 -0.1737
12726TIP3    H259670   6.344   2.253  16.233 -2.3321 -1.0231 -0.3858
12727TIP3   OH259671   3.207   1.403   2.304 -0.3724 -0.1906 -0.4151
12727TIP3    H159672   3.117   1.372   2.316 -0.6361 -0.5321 -2.9622
12727TIP3    H259673   3.236   1.429   2.392 -2.5414 -1.1768  0.6217
12728TIP3   OH259674   2.626   4.752   5.542  0.4813  0.8935 -0.7926
12728TIP3    H159675   2.631   4.669   5.589  2.9988  0.0321 -2.4269
12728TIP3    H259676   2.644   4.818   5.609  0.2930 -0.0145  0.1746
12729TIP3   OH259677   5.774   0.813   0.052  0.5843 -0.0851 -0.1604
12729TIP3    H159678   5.705   0.763   0.008  1.2497 -0.9203 -0.2599
12729TIP3    H259679   5.827   0.849  -0.019  1.8172 -1.6565 -0.0640
12730TIP3   OH259680   2.691   6.028  13.719 -0.2090 -0.4441  0.2691
12730TIP3    H159681   2.706   5.973  13.643  0.0391  0.3938 -0.2940
12730TIP3    H259682   2.722   6.115  13.693 -0.8759  0.0350  1.0323
12731TIP3   OH259683   2.408   0.382  17.148 -0.0455  0.4288 -0.1861
12731TIP3    H159684   2.457   0.444  17.094  0.6654 -0.5624 -0.6793
12731TIP3    H259685   2.448   0.389  17.235  1.0288 -0.4268 -0.6041
12732TIP3   OH259686   2.864   6.434   4.451  0.9514  0.1743  0.3036
12732TIP3    H159687   2.805   6.400   4.518  0.9485 -1.2560 -0.3916
12732TIP3    H259688   2.807   6.456   4.377  1.2054 -0.6391 -0.1463
12733TIP3   OH259689   5.056   3.609  11.988  0.0637  0.4804 -1.0117
12733TIP3    H159690   5.074   3.531  11.935 -1.3707  0.2414 -1.1782
12733TIP3    H259691   5.120   3.605  12.059  0.3715 -0.5548 -1.3368
12734TIP3   OH259692   5.059   1.212   2.802 -0.0734 -0.0754 -0.8607
12734TIP3    H159693   5.003   1.146   2.763  0.5294 -0.0944 -1.7145
12734TIP3    H259694   5.091   1.263   2.727  1.7081 -0.5931 -0.4666
12735TIP3   OH259695   6.370   6.193  17.062  0.0624 -0.1018  0.2195
12735TIP3    H159696   6.378   6.123  17.127  0.6745 -0.6158 -0.4026
12735TIP3    H259697   6.276   6.200  17.047  0.1038 -2.6719 -1.6992
12736TIP3   OH259698   5.796   0.168   0.116 -0.1365  0.0698  0.2648
12736TIP3    H159699   5.892   0.161   0.121  0.2267  0.9949 -3.6737
12736TIP3    H259700   5.780   0.262   0.110 -0.8103 -0.2395 -4.7771
12737TIP3   OH259701   5.109   6.571   6.105 -0.0125 -0.1970 -0.5084
12737TIP3    H159702   5.063   6.547   6.024 -1.3179 -0.0614  0.1662
12737TIP3    H259703   5.038   6.589   6.167  0.9790  0.0733  0.5503
12738TIP3   OH259704   3.334   5.662  17.224  0.6551  0.0682 -0.0661
12738TIP3    H159705   3.359   5.628  17.138 -1.3500 -2.2024  0.2163
12738TIP3    H259706   3.407   5.638  17.281  2.4831  2.4821 -1.2718
12739TIP3   OH259707   4.856   1.082   3.388 -0.1799  0.2233 -0.2297
12739TIP3    H159708   4.913   1.091   3.312 -0.1909  0.1716 -0.2447
12739TIP3    H259709   4.890   1.145   3.452  1.2869 -1.3701  0.6115
12740TIP3   OH259710   2.630   2.976   4.253  0.4494 -0.7024 -0.3828
12740TIP3    H159711   2.651   2.932   4.171 -1.2809 -0.8101 -0.7838
12740TIP3    H259712   2.580   3.053   4.227  1.2341  0.1192  0.4850
12741TIP3   OH259713   6.046   0.180   4.362  0.6268  0.3059  0.3088
12741TIP3    H159714   5.992   0.212   4.289 -0.9253 -2.5551  0.1103
12741TIP3    H259715   6.125   0.146   4.321  1.0047  1.2631  0.2403
12742TIP3   OH259716   5.343   6.669  12.033  0.0153 -0.2245  0.0442
12742TIP3    H159717   5.306   6.636  12.115 -2.2660 -0.7709 -1.1719
12742TIP3    H259718   5.386   6.751  12.058 -1.7472  0.2572  1.5842
12743TIP3   OH259719   1.904   3.984   3.072  0.1333 -0.4099 -0.1685
12743TIP3    H159720   1.887   3.952   2.983 -0.1818  0.7515 -0.5357
12743TIP3    H259721   1.992   3.951   3.093  0.5833  0.0597 -1.2629
12744TIP3   OH259722   5.227   4.015  12.333 -0.5303  0.1537  0.2775
12744TIP3    H159723   5.206   4.106  12.354  0.3933  0.5731 -0.5749
12744TIP3    H259724   5.323   4.013  12.330 -0.5545 -0.8210  0.1463
12745TIP3   OH259725   1.687   6.202   6.150  0.1130 -0.3651  0.2151
12745TIP3    H159726   1.753   6.193   6.218  0.6161  0.8518 -0.0991
12745TIP3    H259727   1.700   6.126   6.094  1.4612  0.0177 -0.0137
12746TIP3   OH259728   0.905   1.706   6.376  0.2461  0.5588 -0.7922
12746TIP3    H159729   0.833   1.740   6.323 -0.0250 -0.8841 -1.3635
12746TIP3    H259730   0.862   1.650   6.441  0.7685  0.5654 -0.4377
12747TIP3   OH259731   0.148   3.886  16.130 -0.1826  0.7309 -0.2837
12747TIP3    H159732   0.137   3.978  16.152 -0.2103  0.4625  0.8656
12747TIP3    H259733   0.205   3.851  16.198  0.6202  0.1100 -1.2528
12748TIP3   OH259734   0.930   1.191   1.593  0.8796  0.5464  0.0128
12748TIP3    H159735   0.943   1.242   1.512  1.4822 -1.3704 -1.1237
12748TIP3    H259736   1.000   1.125   1.591  0.0687 -0.3736  1.4335
12749TIP3   OH259737   3.114   1.779   5.081  0.0979 -0.0325 -0.1448
12749TIP3    H159738   3.128   1.721   5.155  0.9800 -0.5611 -0.7149
12749TIP3    H259739   3.116   1.721   5.004  1.6453  0.8089 -0.7760
12750TIP3   OH259740   4.033   5.633   2.996  0.3960  0.0430 -0.2131
12750TIP3    H159741   4.037   5.618   2.902 -0.6794 -1.2313 -0.0696
12750TIP3    H259742   4.119   5.605   3.028 -0.4059 -2.8293 -0.4001
12751TIP3   OH259743   1.939   1.001   3.569  0.4695 -0.1301  0.0568
12751TIP3    H159744   1.947   1.080   3.622  0.8117  0.7444 -1.2574
12751TIP3    H259745   2.027   0.964   3.566  0.4619 -0.1463  0.0343
12752TIP3   OH259746   3.386   5.260  11.975 -0.2085  0.1432  0.2671
12752TIP3    H159747   3.360   5.177  11.936  0.5884  0.2567 -0.5406
12752TIP3    H259748   3.368   5.325  11.907  0.5754  0.4322  0.3313
12753TIP3   OH259749   3.276   0.871   4.261 -0.1736  0.2940 -0.1817
12753TIP3    H159750   3.319   0.798   4.216 -0.9894  1.4445 -2.9324
12753TIP3    H259751   3.348   0.921   4.300  0.4012 -1.8763  1.6629
12754TIP3   OH259752   3.726   4.052   2.840  0.5825  0.6125  0.2333
12754TIP3    H159753   3.777   3.972   2.825  0.2808  0.6855 -1.3452
12754TIP3    H259754   3.715   4.057   2.935 -0.3566 -1.8174  0.2828
12755TIP3   OH259755   1.650   6.647   4.193 -0.3876 -0.1572 -0.0857
12755TIP3    H159756   1.628   6.716   4.256  2.2721  0.2992  0.4244
12755TIP3    H259757   1.677   6.695   4.114  2.2087 -0.5152  0.5182
12756TIP3   OH259758   5.204   1.972   3.943 -0.4299 -0.4268 -0.7426
12756TIP3    H159759   5.193   1.914   3.867 -0.0927  0.5801 -1.5783
12756TIP3    H259760   5.225   2.057   3.904  1.8408 -0.3790  0.5466
12757TIP3   OH259761   4.040   0.033   4.662 -0.4974 -0.0711 -0.5016
12757TIP3    H159762   4.019   0.025   4.570 -2.1227 -0.0158 -0.1415
12757TIP3    H259763   4.062  -0.056   4.690  0.4977 -0.0052 -1.0443
12758TIP3   OH259764   1.339   2.807  14.543  0.2035  0.4712 -0.7854
12758TIP3    H159765   1.397   2.783  14.616  1.1524 -0.7948 -1.9304
12758TIP3    H259766   1.251   2.795  14.578  0.6294  0.9332  0.4975
12759TIP3   OH259767   4.572   3.440   0.738 -0.1456  0.2359  0.4497
12759TIP3    H159768   4.656   3.402   0.762  0.4273  0.6777 -0.8006
12759TIP3    H259769   4.532   3.466   0.822  0.7863 -0.3287  1.0718
12760TIP3   OH259770   6.312   3.692   3.506  0.9739  0.8070 -0.5065
12760TIP3    H159771   6.287   3.772   3.460  0.8259  2.6181  2.5971
12760TIP3    H259772   6.408   3.696   3.509  0.8693  2.2480  1.9246
12761TIP3   OH259773   2.287   5.359  16.945 -0.1183 -0.4537 -0.2877
12761TIP3    H159774   2.381   5.340  16.937 -0.2580 -1.4288  0.3742
12761TIP3    H259775   2.255   5.295  17.008 -0.8695  1.1143  0.9512
12762TIP3   OH259776   2.552   2.308  13.225  0.0139 -0.0461  0.0047
12762TIP3    H159777   2.585   2.344  13.307 -0.7895  1.9762 -0.5379
12762TIP3    H259778   2.480   2.367  13.199  1.5984  0.6070 -3.2131
12763TIP3   OH259779   0.935   5.234  10.904 -0.4563  0.1936 -0.1580
12763TIP3    H159780   0.893   5.289  10.838  0.1944 -0.3469 -1.0277
12763TIP3    H259781   1.022   5.216  10.869  0.0050  0.1404  0.9882
12764TIP3   OH259782   2.270   0.571  16.925  0.3060 -0.0309 -0.0940
12764TIP3    H159783   2.258   0.664  16.903  2.1838  0.2858  0.1652
12764TIP3    H259784   2.280   0.571  17.020 -0.3004 -0.5730 -0.0299
12765TIP3   OH259785   6.372   1.421   0.649  0.2765 -0.2863  0.0371
12765TIP3    H159786   6.363   1.339   0.697  0.5435 -0.8836 -0.9380
12765TIP3    H259787   6.356   1.399   0.558 -0.1207  0.8321 -0.1770
12766TIP3   OH259788   3.518   2.961  15.236 -0.2151  0.2969 -0.0898
12766TIP3    H159789   3.575   2.897  15.194  0.4139  2.0432 -1.9690
12766TIP3    H259790   3.490   2.918  15.317 -0.0384 -2.4616 -1.4168
12767TIP3   OH259791   5.254   4.056   0.320  0.0251  0.3556  0.1552
12767TIP3    H159792   5.303   4.000   0.380 -0.1731  0.7509  0.6875
12767TIP3    H259793   5.163   4.049   0.349 -0.0591  0.6209 -0.0408
12768TIP3   OH259794   0.295   6.800  10.636  0.0400 -0.3134 -0.2241
12768TIP3    H159795   0.251   6.717  10.618  1.3404 -0.6590 -1.9275
12768TIP3    H259796   0.385   6.787  10.605  0.9736  0.8600  1.8551
12769TIP3   OH259797   5.788   4.578   1.381  0.1073  0.4096 -0.5757
12769TIP3    H159798   5.763   4.661   1.340  0.7537  0.7378 -0.3154
12769TIP3    H259799   5.823   4.604   1.467 -1.5729 -0.2784  0.3526
12770TIP3   OH259800   4.855   5.030  16.996 -0.2294  0.1757 -0.1864
12770TIP3    H159801   4.859   5.120  16.966 -0.1143  1.0545  2.3739
12770TIP3    H259802   4.761   5.010  17.000 -0.3448  1.0466  1.7073
12771TIP3   OH259803   3.050   4.713  15.607  0.1663  0.1566  0.3928
12771TIP3    H159804   3.037   4.766  15.685  1.1111  0.3401  0.4251
12771TIP3    H259805   3.119   4.757  15.559  0.0087 -0.2951 -0.2502
12772TIP3   OH259806   3.961   5.273   2.430  0.3398  0.1030  0.1089
12772TIP3    H159807   3.880   5.309   2.466  0.0823  0.3554 -0.7113
12772TIP3    H259808   3.940   5.181   2.410  1.0918 -0.6151  2.5006
12773TIP3   OH259809   6.433   4.092   2.867  0.0187  0.7516  0.2890
12773TIP3    H159810   6.504   4.098   2.803 -0.8444 -0.5513 -0.8281
12773TIP3    H259811   6.449   4.009   2.913 -0.2134  0.9458  0.7221
12774TIP3   OH259812   2.646   3.127   4.787 -0.0188 -0.3839  0.2928
12774TIP3    H159813   2.633   3.074   4.866 -0.2894  0.5897  0.9211
12774TIP3    H259814   2.725   3.178   4.806  0.4521 -0.8355 -0.4562
12775TIP3   OH259815   5.587   3.170   6.044  0.2992 -0.2040  0.5765
12775TIP3    H159816   5.579   3.250   5.991 -0.4035 -0.1346  0.7836
12775TIP3    H259817   5.679   3.144   6.034 -0.1702 -1.0898 -1.9545
12776TIP3   OH259818   4.283   4.378  12.322 -0.9835 -0.2900 -0.0872
12776TIP3    H159819   4.220   4.325  12.273  0.0171  0.7036 -2.5587
12776TIP3    H259820   4.364   4.326  12.321 -0.5459  0.3806 -0.8370
12777TIP3   OH259821   5.148   2.563  12.966 -0.0538  0.3764  0.3858
12777TIP3    H159822   5.122   2.474  12.987  1.0599 -0.0395  0.0260
12777TIP3    H259823   5.189   2.557  12.880  3.0676  0.6431  1.7835
12778TIP3   OH259824   5.722   3.856  13.455 -0.2134 -0.0889 -0.0428
12778TIP3    H159825   5.673   3.898  13.384 -0.8579  0.4908  0.7311
12778TIP3    H259826   5.778   3.792  13.411 -0.2219  0.6262 -1.1189
12779TIP3   OH259827   4.010   0.461  13.809 -0.0077  0.0241  0.2931
12779TIP3    H159828   4.048   0.548  13.825 -1.7738  0.6476  1.2784
12779TIP3    H259829   4.032   0.412  13.888 -1.9021  0.6356  1.2206
12780TIP3   OH259830   2.861   5.072   4.206  0.5805 -0.1936 -0.4773
12780TIP3    H159831   2.949   5.090   4.173  0.7083  0.1985  0.0728
12780TIP3    H259832   2.834   4.993   4.160  0.8058  0.2782 -1.4314
12781TIP3   OH259833   6.701   4.156  12.828 -0.1154  0.8635 -0.1503
12781TIP3    H159834   6.706   4.226  12.763 -0.6687 -0.4693 -1.6496
12781TIP3    H259835   6.784   4.109  12.821 -0.5389  0.1615 -0.5513
12782TIP3   OH259836   3.386   5.593  13.445  0.4527 -0.1946  0.7647
12782TIP3    H159837   3.329   5.633  13.379  2.5855  1.6100 -0.0465
12782TIP3    H259838   3.327   5.573  13.518 -1.1926  1.9345  0.0851
12783TIP3   OH259839   4.931   1.240  15.588  0.7638 -0.2540 -0.2937
12783TIP3    H159840   4.865   1.243  15.519  1.4926 -0.2599 -1.0002
12783TIP3    H259841   4.915   1.318  15.640 -1.0501 -1.2783  0.7211
12784TIP3   OH259842   6.166   0.413   4.517  0.3587 -0.1961 -0.1546
12784TIP3    H159843   6.245   0.359   4.526  0.3495 -0.0669  0.6943
12784TIP3    H259844   6.108   0.360   4.462 -1.0121 -2.6160  3.4193
12785TIP3   OH259845   0.494   5.987   5.623 -0.0203  0.1387  0.0093
12785TIP3    H159846   0.496   5.892   5.611  0.2551  0.1733 -0.2042
12785TIP3    H259847   0.530   6.001   5.710 -2.2676 -0.1350  1.0200
12786TIP3   OH259848   4.566   3.290  13.183  0.7212 -0.7614  0.6821
12786TIP3    H159849   4.637   3.330  13.232  1.7883  1.0254 -2.2026
12786TIP3    H259850   4.568   3.334  13.098 -3.6994 -0.7956  0.4494
12787TIP3   OH259851   6.644   4.124   1.184  0.4331 -0.7660  0.5674
12787TIP3    H159852   6.624   4.053   1.246  0.6206 -1.8452 -0.5801
12787TIP3    H259853   6.688   4.080   1.111 -2.2937  0.0144 -1.6337
12788TIP3   OH259854   4.575   2.352   5.411 -0.4075  0.1091  0.2263
12788TIP3    H159855   4.531   2.363   5.327 -0.6356  1.3241  0.4900
12788TIP3    H259856   4.668   2.359   5.390 -0.4371 -0.2568 -0.0237
12789TIP3   OH259857   4.184   3.541   2.743 -0.1008 -0.8589 -0.3919
12789TIP3    H159858   4.135   3.553   2.825 -1.1858 -2.2178 -0.8150
12789TIP3    H259859   4.183   3.627   2.702  0.6002 -0.1176  1.0975
12790TIP3   OH259860   6.268   3.950   3.080 -0.4933 -0.6634  0.0331
12790TIP3    H159861   6.299   3.957   3.170  0.4670  1.0573 -0.4041
12790TIP3    H259862   6.190   4.005   3.076  0.4282  0.6293 -0.5786
12791TIP3   OH259863   5.737   1.428  11.117  0.0456 -0.3735  0.2853
12791TIP3    H159864   5.828   1.452  11.100  0.1706 -1.5989 -0.8747
12791TIP3    H259865   5.739   1.333  11.133 -1.0928 -0.5245 -0.3544
12792TIP3   OH259866   1.487   2.313   5.688  0.3654 -0.1957  0.0402
12792TIP3    H159867   1.567   2.295   5.738  0.5023  0.5141  0.0776
12792TIP3    H259868   1.416   2.302   5.750  0.6494  2.6689  0.9406
12793TIP3   OH259869   4.468   2.251  16.469 -0.1973  0.3712 -0.0069
12793TIP3    H159870   4.383   2.207  16.464 -0.4136  0.7409  0.3756
12793TIP3    H259871   4.501   2.228  16.556  1.6884 -2.6515 -1.4274
12794TIP3   OH259872   2.739   6.714   4.705  0.0128 -0.0608  0.0359
12794TIP3    H159873   2.689   6.778   4.755 -1.0690 -2.3554  1.9802
12794TIP3    H259874   2.829   6.743   4.712 -0.5834  1.9414 -0.2088
12795TIP3   OH259875   5.130   0.606   0.294  0.2493 -0.6401  0.0976
12795TIP3    H159876   5.181   0.685   0.282 -1.4985  0.3162 -1.3210
12795TIP3    H259877   5.194   0.538   0.314  2.2050  0.2406 -2.8535
12796TIP3   OH259878   1.490   2.333   0.661 -0.2109  0.1149  0.0597
12796TIP3    H159879   1.461   2.256   0.710  1.4228 -1.0121 -0.6779
12796TIP3    H259880   1.525   2.297   0.580  1.6603  1.5269  0.2038
12797TIP3   OH259881   1.172   6.798   6.171  0.1561  0.1776  0.6403
12797TIP3    H159882   1.264   6.772   6.166 -0.0181 -0.1758 -1.0608
12797TIP3    H259883   1.151   6.827   6.082 -1.2632  0.6659  1.1230
12798TIP3   OH259884   6.787   4.814   1.696 -0.4656 -0.2021  0.0228
12798TIP3    H159885   6.759   4.879   1.632  1.5471  0.9964  0.3019
12798TIP3    H259886   6.782   4.730   1.650 -1.5386  0.3362 -0.8522
12799TIP3   OH259887   1.793   6.087  14.011 -0.3192  0.1628  0.2733
12799TIP3    H159888   1.771   6.008  13.962  3.3023 -1.3101  0.8900
12799TIP3    H259889   1.839   6.142  13.949  0.5736  0.0920  0.8613
12800TIP3   OH259890   6.111   3.442  13.177 -0.2554 -0.3545  0.3086
12800TIP3    H159891   6.196   3.404  13.152  0.0543 -0.0821  0.9268
12800TIP3    H259892   6.130   3.534  13.193 -0.3149 -0.6330  2.1156
12801TIP3   OH259893   4.901   6.092  13.487  0.1435  0.1573  0.5742
12801TIP3    H159894   4.823   6.053  13.525 -0.1385  0.8170  0.6814
12801TIP3    H259895   4.926   6.161  13.549 -0.1879  1.0839 -0.2945
12802TIP3   OH259896   3.114   1.329   3.139 -0.8600  0.1411 -0.7818
12802TIP3    H159897   3.081   1.354   3.226 -0.8261 -0.9486 -0.4433
12802TIP3    H259898   3.048   1.267   3.106 -0.8266  0.4850 -1.5000
12803TIP3   OH259899   0.877   1.605   0.060 -0.5580  0.1173  0.0162
12803TIP3    H159900   0.822   1.528   0.078 -1.4014  0.3102 -1.6100
12803TIP3    H259901   0.959   1.588   0.106 -0.2013 -2.4275 -1.4750
12804TIP3   OH259902   2.980   5.643   1.847 -0.4786  0.3946  0.2466
12804TIP3    H159903   2.924   5.718   1.866 -0.5940  1.1339 -2.6876
12804TIP3    H259904   2.965   5.625   1.754 -0.4990 -3.3233  0.8648
12805TIP3   OH259905   2.064   3.905   3.437  0.5142 -0.1710  0.3444
12805TIP3    H159906   2.159   3.891   3.446  0.5835  0.0690  0.0173
12805TIP3    H259907   2.055   3.999   3.421  0.4100 -0.5308 -1.9534
12806TIP3   OH259908   5.372   2.518   1.930 -0.2272 -0.1996 -0.1772
12806TIP3    H159909   5.410   2.450   1.986  0.5890  0.0320 -0.4426
12806TIP3    H259910   5.433   2.591   1.935 -1.7183  1.0021  1.0846
12807TIP3   OH259911   4.771   6.269  16.443  0.0799 -0.1600  0.3897
12807TIP3    H159912   4.820   6.351  16.447  0.4579 -0.4212  1.3942
12807TIP3    H259913   4.746   6.260  16.351 -0.7632  1.5545  0.4293
12808TIP3   OH259914   6.300   6.467  16.926  0.1732 -0.2059 -0.2444
12808TIP3    H159915   6.242   6.391  16.934  1.3215 -0.9684  0.9789
12808TIP3    H259916   6.343   6.455  16.841 -0.2791 -0.4772 -0.4361
12809TIP3   OH259917   3.362   1.845   1.766 -0.0543  0.3958 -0.0439
12809TIP3    H159918   3.398   1.756   1.766  2.3854  1.3354 -1.2321
12809TIP3    H259919   3.346   1.863   1.858  1.6204 -0.4541  0.4508
12810TIP3   OH259920   0.423   4.569   0.490  0.2934  0.0345  0.2840
12810TIP3    H159921   0.390   4.484   0.518  0.9768 -0.7523 -1.2795
12810TIP3    H259922   0.355   4.631   0.518 -0.2157 -1.0084  1.4093
12811TIP3   OH259923   6.516   6.252  14.847 -0.2055  0.0387 -0.3221
12811TIP3    H159924   6.605   6.234  14.818 -0.2533  0.4862 -0.7621
12811TIP3    H259925   6.515   6.228  14.940 -0.7602 -3.9238 -1.2732
12812TIP3   OH259926   1.804   6.279  16.380 -0.1724 -0.7539  0.3144
12812TIP3    H159927   1.765   6.199  16.414  0.7701 -1.6135 -0.5728
12812TIP3    H259928   1.827   6.258  16.290 -0.2586  0.6466 -0.0460
12813TIP3   OH259929   2.627   5.150  16.317  0.5473  0.5635 -0.1456
12813TIP3    H159930   2.548   5.148  16.262  1.0088 -0.5943 -0.7780
12813TIP3    H259931   2.696   5.180  16.257  1.0319 -0.6006 -0.1861
12814TIP3   OH259932   1.680   3.936   2.696 -0.1192 -0.0645  0.2224
12814TIP3    H159933   1.716   3.896   2.775  1.4816 -1.2892 -1.1079
12814TIP3    H259934   1.742   4.005   2.673  0.3875 -0.9260 -1.0090
12815TIP3   OH259935   2.314   5.326  12.842 -0.2300 -0.1510  0.1729
12815TIP3    H159936   2.325   5.248  12.897 -1.3188  0.1364  0.8043
12815TIP3    H259937   2.228   5.314  12.801 -0.4176  0.7421  0.3124
12816TIP3   OH259938   6.086   2.961   5.003  0.6164  0.5235  0.4773
12816TIP3    H159939   6.138   2.989   4.928  0.2073  1.0381  0.3863
12816TIP3    H259940   6.039   2.884   4.972 -0.9540  1.7933 -0.3751
12817TIP3   OH259941   4.224   1.515  15.077  0.1621 -0.1455 -0.1858
12817TIP3    H159942   4.216   1.582  15.145 -0.6789 -1.0691  0.6493
12817TIP3    H259943   4.248   1.563  14.998 -0.9067  1.2060  0.2993
12818TIP3   OH259944   1.515   3.325  14.447 -0.8049 -0.0627 -0.4059
12818TIP3    H159945   1.521   3.242  14.400  2.0253 -1.2593  1.8802
12818TIP3    H259946   1.453   3.309  14.518  0.7385 -0.7040  0.8370
12819TIP3   OH259947   5.194   6.100  13.507  0.1751  0.5543 -0.0268
12819TIP3    H159948   5.103   6.070  13.514  0.6652 -1.0492 -0.2829
12819TIP3    H259949   5.195   6.153  13.427 -0.2523 -0.5482 -0.7786
12820TIP3   OH259950   5.099   6.242   0.560 -0.6113  0.2332  0.0515
12820TIP3    H159951   5.063   6.247   0.649 -0.2818 -0.8237  0.2568
12820TIP3    H259952   5.040   6.295   0.507 -1.6701 -0.3518  0.6385
12821TIP3   OH259953   3.415   4.037   0.545 -0.4601 -0.4546  0.0054
12821TIP3    H159954   3.435   4.112   0.601 -0.0037  0.2464 -1.0683
12821TIP3    H259955   3.345   3.991   0.590  0.6969 -0.5709  1.7296
12822TIP3   OH259956   1.533   1.291   4.608 -0.5001 -0.1357  0.1621
12822TIP3    H159957   1.510   1.359   4.545  0.4611  0.8467  0.8483
12822TIP3    H259958   1.626   1.305   4.626 -0.0494 -2.2132 -0.3739
12823TIP3   OH259959   6.285   1.162   5.842 -0.1700 -0.0252  0.5608
12823TIP3    H159960   6.215   1.193   5.784 -0.6827 -0.8490  0.7280
12823TIP3    H259961   6.253   1.078   5.876  0.6706 -0.1551  1.0566
12824TIP3   OH259962   6.086   5.065   2.120 -0.3675 -0.0370 -0.3208
12824TIP3    H159963   6.140   5.144   2.122  1.9623 -1.5859  0.5416
12824TIP3    H259964   6.090   5.030   2.209 -0.2080 -1.8462 -1.0043
12825TIP3   OH259965   0.582   6.635  13.371  0.3385  0.3449  0.6118
12825TIP3    H159966   0.672   6.661  13.350  0.8681 -1.0784  1.0917
12825TIP3    H259967   0.587   6.541  13.388 -1.6228 -0.1823 -1.4732
12826TIP3   OH259968   0.008   3.396  13.469  0.5229 -0.2787 -0.0846
12826TIP3    H159969   0.077   3.386  13.404  0.8934 -2.7662  0.6079
12826TIP3    H259970   0.049   3.372  13.552  0.0225  2.7336  1.0675
12827TIP3   OH259971   1.440   0.659   6.067  0.0186 -0.1007  0.3064
12827TIP3    H159972   1.459   0.619   6.151 -0.0946  1.6241  1.1834
12827TIP3    H259973   1.346   0.681   6.071  0.0231  0.0399 -0.2344
12828TIP3   OH259974   3.855   6.459   4.798 -0.0277  0.6392  0.1864
12828TIP3    H159975   3.877   6.446   4.890  0.3297  0.0618  0.0171
12828TIP3    H259976   3.785   6.396   4.780 -0.9848  1.6254  0.3982
12829TIP3   OH259977   6.364   6.332   2.050 -0.0275  0.0621 -0.3111
12829TIP3    H159978   6.430   6.330   1.981  0.6391 -1.7124  0.3261
12829TIP3    H259979   6.287   6.370   2.009  0.4412 -0.7134 -1.9636
12830TIP3   OH259980   6.290   2.096   6.549 -0.2167  0.1985  0.1464
12830TIP3    H159981   6.275   2.056   6.463 -0.0232  1.9768 -0.7404
12830TIP3    H259982   6.268   2.027   6.612 -1.0338 -0.9047 -1.3154
12831TIP3   OH259983   4.103   6.575   4.710 -0.7849 -0.2521 -0.2338
12831TIP3    H159984   4.015   6.538   4.723 -1.4373  1.8455  1.5304
12831TIP3    H259985   4.160   6.519   4.763 -1.3338 -0.4868  0.1139
12832TIP3   OH259986   2.387   4.676   4.746  0.3200 -0.8380  0.1538
12832TIP3    H159987   2.427   4.627   4.817  2.3458 -0.5358 -0.7212
12832TIP3    H259988   2.460   4.695   4.687 -0.6902  1.8672 -0.2857
12833TIP3   OH259989   5.717   2.361   1.944  0.6236 -0.1255  0.2789
12833TIP3    H159990   5.691   2.315   1.864  2.5564  0.6130 -0.8133
12833TIP3    H259991   5.769   2.297   1.993 -1.5844 -0.9952  1.5986
12834TIP3   OH259992   4.950   6.509  14.088 -0.5227 -0.0958 -0.2856
12834TIP3    H159993   4.860   6.482  14.068 -0.4679  0.9226 -1.9371
12834TIP3    H259994   4.960   6.594  14.046  0.4135  0.9920  2.0262
12835TIP3   OH259995   0.892   0.295   1.631 -0.2025  0.5569 -0.4389
12835TIP3    H159996   0.918   0.353   1.559 -0.4508  2.4100  0.9322
12835TIP3    H259997   0.947   0.323   1.704 -1.0786 -0.2431  0.5251
12836TIP3   OH259998   5.519   5.366  17.176  0.0838 -0.1935 -0.1536
12836TIP3    H159999   5.563   5.336  17.097  0.1148  0.2210 -0.2957
12836TIP3    H260000   5.442   5.412  17.144  0.0610 -0.0850  0.0595
12837TIP3   OH260001   2.754   0.333   3.720  0.4671 -0.3336 -0.0311
12837TIP3    H160002   2.755   0.402   3.653 -1.9352 -1.6350 -1.4724
12837TIP3    H260003   2.682   0.275   3.693 -0.8370 -0.6603  3.9050
12838TIP3   OH260004   2.910   0.045  16.044 -0.2403 -0.0508 -0.5090
12838TIP3    H160005   2.922  -0.048  16.024 -0.6466 -0.0748 -0.6404
12838TIP3    H260006   2.999   0.079  16.052 -0.0750 -0.8928  1.6441
12839TIP3   OH260007   4.644   1.235   5.417  0.0663  0.4065  0.3370
12839TIP3    H160008   4.709   1.186   5.468  0.0456  0.9865  0.9417
12839TIP3    H260009   4.683   1.322   5.407 -0.3404  0.5660  0.1509
12840TIP3   OH260010   6.751   0.014  17.258  0.4193 -0.0943  0.6436
12840TIP3    H160011   6.730  -0.079  17.256 -0.9315  0.1881  1.3252
12840TIP3    H260012   6.675   0.056  17.217  1.6783  0.5952 -1.0412
12841TIP3   OH260013   3.629   6.788  12.052 -0.4637 -0.3515 -0.3317
12841TIP3    H160014   3.604   6.744  12.133 -1.1727 -1.0020 -0.8977
12841TIP3    H260015   3.546   6.808  12.008 -0.2505  2.7969  0.5444
12842TIP3   OH260016   5.688   0.419  12.188 -0.1589  0.5751  0.3139
12842TIP3    H160017   5.658   0.492  12.241 -1.2857  1.3442 -1.3240
12842TIP3    H260018   5.634   0.424  12.109  0.8545 -1.0726 -0.5016
12843TIP3   OH260019   3.093   4.632   0.980 -0.1117 -0.0664  0.4248
12843TIP3    H160020   3.063   4.542   0.994  2.1918 -0.9470 -0.0358
12843TIP3    H260021   3.113   4.636   0.886  0.1420  0.8198  0.5106
12844TIP3   OH260022   3.569   5.876  13.457 -0.1345 -0.6593 -0.1584
12844TIP3    H160023   3.599   5.788  13.434 -0.9362 -0.9604 -0.0634
12844TIP3    H260024   3.504   5.862  13.525 -0.1795  0.0202 -0.0599
12845TIP3   OH260025   3.976   4.234   4.019 -0.1459  0.2959  0.3478
12845TIP3    H160026   4.051   4.210   3.965 -0.7663  0.1692 -0.4570
12845TIP3    H260027   4.015   4.266   4.101  0.7462 -3.0525  1.3289
12846TIP3   OH260028   4.329   2.748  14.679  0.3508 -0.5281  0.1615
12846TIP3    H160029   4.345   2.663  14.720  2.8105  0.0267  0.4680
12846TIP3    H260030   4.356   2.737  14.588 -0.5127 -0.4233 -0.1067
12847TIP3   OH260031   1.974   2.002  14.165 -0.2225  0.9417 -0.0478
12847TIP3    H160032   1.940   2.036  14.248  0.4783  3.2333 -0.6541
12847TIP3    H260033   1.946   1.911  14.163 -1.9277  1.3859  1.8074
12848TIP3   OH260034   5.171   0.619   3.477  0.0102  0.5116 -0.4191
12848TIP3    H160035   5.124   0.567   3.411 -0.2997  0.1393  0.0926
12848TIP3    H260036   5.117   0.698   3.488 -0.1665  0.3728 -0.2902
12849TIP3   OH260037   1.565   2.056  16.044  0.0085  0.1564 -0.5745
12849TIP3    H160038   1.509   2.087  16.115  1.1271  0.7791  0.0500
12849TIP3    H260039   1.626   2.127  16.028 -0.8441  0.4181 -2.8676
12850TIP3   OH260040   3.420   5.525   2.144  0.2130 -0.0828  0.5969
12850TIP3    H160041   3.337   5.568   2.164 -0.8068 -1.3096 -0.8664
12850TIP3    H260042   3.400   5.469   2.069  2.3817 -0.3636  0.2079
12851TIP3   OH260043   0.626   6.517   1.225  0.4568 -0.0603  0.0847
12851TIP3    H160044   0.563   6.542   1.156 -2.2822 -0.8336  2.2203
12851TIP3    H260045   0.647   6.600   1.268  0.5666  0.1437 -0.3536
12852TIP3   OH260046   6.108   5.635  11.916  0.2418  0.3373  0.0599
12852TIP3    H160047   6.033   5.611  11.970  2.1613 -3.8639  1.1188
12852TIP3    H260048   6.168   5.679  11.977  0.2653  0.1973  0.1367
12853TIP3   OH260049   2.427   6.089   4.073 -0.5208 -0.1162  0.3237
12853TIP3    H160050   2.415   6.012   4.127 -1.9869 -0.4391 -0.4334
12853TIP3    H260051   2.456   6.157   4.133  2.3954 -1.6663  0.7298
12854TIP3   OH260052   5.576   0.276   5.381 -0.0898 -0.1957  0.1414
12854TIP3    H160053   5.595   0.198   5.432  0.6445 -0.4283 -0.4744
12854TIP3    H260054   5.617   0.260   5.296 -2.2960 -0.3248 -0.9250
12855TIP3   OH260055   1.027   4.363  15.404  0.4842 -0.0727  0.3607
12855TIP3    H160056   1.108   4.345  15.356  2.3870 -0.1065  3.4485
12855TIP3    H260057   0.998   4.277  15.435 -1.4624 -0.2328 -1.7081
12856TIP3   OH260058   6.384   3.488  11.518 -0.1723  0.0880  0.0772
12856TIP3    H160059   6.301   3.507  11.563 -0.6235 -0.5476 -0.4721
12856TIP3    H260060   6.424   3.574  11.504 -0.3630  0.3406  1.0556
12857TIP3   OH260061   0.479   5.694   5.652 -0.2720  0.1822 -0.4473
12857TIP3    H160062   0.411   5.662   5.593  0.2876  0.4765 -1.2432
12857TIP3    H260063   0.541   5.622   5.660  0.6038  0.7881 -1.6609
12858TIP3   OH260064   3.832   4.136  13.203 -0.0569  0.4879 -0.3626
12858TIP3    H160065   3.832   4.231  13.214  1.3446  0.3707  0.7659
12858TIP3    H260066   3.921   4.114  13.177  0.3407 -0.7759  1.9283
12859TIP3   OH260067   2.865   2.247  13.219 -0.2270  0.4670 -0.0145
12859TIP3    H160068   2.850   2.186  13.290 -0.8662 -2.1494 -2.2932
12859TIP3    H260069   2.777   2.275  13.192 -0.1522 -0.4761 -1.3187
12860TIP3   OH260070   3.876   1.079  12.908  0.5728  0.0505 -0.4183
12860TIP3    H160071   3.969   1.082  12.929  0.4090 -0.8828  0.4360
12860TIP3    H260072   3.848   0.991  12.933 -0.4292  0.1570 -1.1365
12861TIP3   OH260073   3.191   2.668   2.897 -0.6463  0.0702 -0.0403
12861TIP3    H160074   3.152   2.689   2.982 -1.3275  0.1402 -0.3652
12861TIP3    H260075   3.280   2.703   2.901 -0.5959 -0.1532  0.7350
12862TIP3   OH260076   2.204   1.371   5.816  0.0052 -0.1011 -0.4673
12862TIP3    H160077   2.297   1.351   5.830  0.4022  1.6418 -0.5170
12862TIP3    H260078   2.195   1.371   5.720 -0.1908 -0.8556 -0.4542
12863TIP3   OH260079   1.116   0.145   5.536 -0.1231 -0.5389 -0.3415
12863TIP3    H160080   1.089   0.066   5.582  1.7008 -1.7729 -1.3487
12863TIP3    H260081   1.140   0.115   5.449 -1.3078  1.4298 -1.3826
12864TIP3   OH260082   3.510   2.869  11.053 -0.1017 -0.7102 -0.1396
12864TIP3    H160083   3.542   2.852  10.964  2.1188 -1.5891  0.7955
12864TIP3    H260084   3.425   2.911  11.040 -0.4248 -2.0464 -2.6654
12865TIP3   OH260085   6.392   2.919   5.092 -1.3358  0.6500  0.1503
12865TIP3    H160086   6.467   2.868   5.122 -1.0737  1.0945  0.2404
12865TIP3    H260087   6.329   2.914   5.164 -1.4431  0.1873  0.0303
12866TIP3   OH260088   6.597   1.014  14.294 -0.2015  0.1539 -0.1734
12866TIP3    H160089   6.656   1.035  14.366 -0.3320  0.8584 -0.2721
12866TIP3    H260090   6.567   0.925  14.313 -1.0446  0.7204  1.1955
12867TIP3   OH260091   5.795   3.945  15.478  0.4882  0.6993  0.0075
12867TIP3    H160092   5.798   4.029  15.523  1.2387  0.0102  1.2796
12867TIP3    H260093   5.828   3.882  15.542 -0.6437 -0.6623 -0.7176
12868TIP3   OH260094   0.788   3.313   1.409 -0.6837  0.0516 -0.2880
12868TIP3    H160095   0.763   3.315   1.317  0.3299  0.3148 -0.5538
12868TIP3    H260096   0.745   3.390   1.447  0.1450  0.8120 -0.8631
12869TIP3   OH260097   2.457   4.296  13.207  0.1416  0.0933  0.7956
12869TIP3    H160098   2.535   4.350  13.221 -0.8372  1.5774  0.6604
12869TIP3    H260099   2.385   4.350  13.238 -1.0030 -0.6255 -0.5534
12870TIP3   OH260100   4.799   3.250  16.379 -1.2445  0.6130 -0.1019
12870TIP3    H160101   4.859   3.324  16.388  1.0995 -1.3062  0.4446
12870TIP3    H260102   4.724   3.286  16.333  0.5997  2.9304 -1.3896
12871TIP3   OH260103   5.502   1.987  13.559 -0.1705 -0.5233  0.7809
12871TIP3    H160104   5.454   1.958  13.481 -1.2678  0.5709  1.0333
12871TIP3    H260105   5.486   1.919  13.624  1.0488 -1.6282 -0.0507
12872TIP3   OH260106   0.382   4.990  13.404 -0.1357  0.1972 -0.3225
12872TIP3    H160107   0.415   5.075  13.435  0.2351 -0.7399  1.9967
12872TIP3    H260108   0.392   4.993  13.309 -0.6547  2.9652 -0.3369
12873TIP3   OH260109   1.108   4.655  13.038  0.3993  0.7316  0.4642
12873TIP3    H160110   1.069   4.737  13.008  0.7154  0.0994 -1.7685
12873TIP3    H260111   1.050   4.587  13.003  3.0431 -0.1940 -2.3533
12874TIP3   OH260112   0.830   1.045   2.522 -0.2241 -0.5015 -0.4765
12874TIP3    H160113   0.821   1.033   2.427  1.3593  0.2200 -0.7345
12874TIP3    H260114   0.844   1.139   2.532 -5.0372  0.1756  0.8871
12875TIP3   OH260115   5.297   5.637   0.462 -0.1957  0.4487  0.3408
12875TIP3    H160116   5.219   5.585   0.442  0.1621  0.3820 -0.9411
12875TIP3    H260117   5.275   5.683   0.542 -0.7719 -1.1621  1.1298
12876TIP3   OH260118   3.095   5.330   4.261 -0.4558 -0.2320 -0.1367
12876TIP3    H160119   3.131   5.293   4.341 -1.2754  1.5921  1.1142
12876TIP3    H260120   3.006   5.356   4.285 -0.6941  0.3515 -1.6245
12877TIP3   OH260121   1.700   5.473   3.585  0.5748  0.2286 -0.4091
12877TIP3    H160122   1.620   5.516   3.553 -0.1143 -0.8608 -0.1975
12877TIP3    H260123   1.728   5.418   3.512 -0.4612 -1.5274  0.4809
12878TIP3   OH260124   2.197   6.164  15.206 -0.4135  0.5497 -0.3212
12878TIP3    H160125   2.113   6.150  15.162 -1.1164  0.9894  0.8336
12878TIP3    H260126   2.211   6.084  15.257  0.0405  0.3330 -0.7886
12879TIP3   OH260127   4.675   2.264   3.387 -0.6232 -0.0577  0.0849
12879TIP3    H160128   4.591   2.283   3.346 -0.5245 -0.5489 -0.3539
12879TIP3    H260129   4.737   2.322   3.342 -0.3703 -1.1804 -1.0589
12880TIP3   OH260130   2.440   5.979   0.719  0.3012 -0.1087 -0.0480
12880TIP3    H160131   2.419   6.065   0.681  1.6640  0.0456 -0.4923
12880TIP3    H260132   2.359   5.929   0.711 -0.4169  1.0223 -0.0971
12881TIP3   OH260133   6.381   3.314   2.957 -0.2993  0.1527  0.3219
12881TIP3    H160134   6.365   3.244   2.894 -0.4268  1.3010 -0.9481
12881TIP3    H260135   6.321   3.296   3.029  1.2125 -2.2777  1.0330
12882TIP3   OH260136   2.407   1.380  11.555  0.7878 -0.0009 -0.2357
12882TIP3    H160137   2.435   1.463  11.517  0.6378  0.2462  0.1849
12882TIP3    H260138   2.438   1.384  11.646 -1.6183  0.8040  0.5933
12883TIP3   OH260139   2.610   5.118   4.305 -0.0456  0.0142  0.3707
12883TIP3    H160140   2.699   5.121   4.270  0.7669  0.2319  2.4185
12883TIP3    H260141   2.554   5.134   4.229  1.6850  0.4668 -0.8328
12884TIP3   OH260142   2.964   5.832   1.481  0.5294 -0.3037  0.4277
12884TIP3    H160143   2.980   5.767   1.413 -0.0911 -0.6447  0.6096
12884TIP3    H260144   2.934   5.910   1.434  0.0531 -0.5561  0.3148
12885TIP3   OH260145   0.638   0.302  15.991  0.0723  0.0372  0.7258
12885TIP3    H160146   0.639   0.368  16.060 -0.3625  0.9552 -0.1226
12885TIP3    H260147   0.596   0.347  15.917 -0.2350 -1.2003  0.1506
12886TIP3   OH260148   3.175   5.082   1.373  0.2801  0.3955 -0.7040
12886TIP3    H160149   3.093   5.087   1.324 -0.2913  0.3160  0.2305
12886TIP3    H260150   3.172   4.997   1.417  1.1479  0.1255 -1.1672
12887TIP3   OH260151   6.232   2.262  11.482  0.2108 -0.5322  0.4835
12887TIP3    H160152   6.244   2.283  11.574 -1.0758 -0.6222  0.6905
12887TIP3    H260153   6.141   2.233  11.476  0.8574 -2.5210 -0.4422
12888TIP3   OH260154   0.223   5.487   1.036  0.2507  0.1335  0.1301
12888TIP3    H160155   0.311   5.481   0.999  0.0866  3.9721 -1.0947
12888TIP3    H260156   0.230   5.555   1.103 -1.4181 -0.8046  1.2953
12889TIP3   OH260157   2.510   2.027  11.725  0.0264 -0.1508 -0.4461
12889TIP3    H160158   2.463   2.047  11.644  1.2163  0.0408 -1.1093
12889TIP3    H260159   2.450   2.053  11.795 -0.6408  0.5781 -1.2697
12890TIP3   OH260160   3.396   0.445   6.108 -0.3351 -0.4219  0.2823
12890TIP3    H160161   3.450   0.476   6.180 -0.7133 -1.2206  0.9133
12890TIP3    H260162   3.443   0.472   6.029  1.1362 -1.4012  0.8267
12891TIP3   OH260163   3.982   6.422   0.975  0.0708 -0.2628  1.0164
12891TIP3    H160164   4.011   6.483   1.043 -0.4670 -0.1937  1.1790
12891TIP3    H260165   3.900   6.386   1.007 -0.3762  0.0529  0.2332
12892TIP3   OH260166   3.707   1.078   4.909  0.1417  0.6230  0.1924
12892TIP3    H160167   3.792   1.064   4.949  0.5736  0.1164 -0.8791
12892TIP3    H260168   3.644   1.068   4.981  0.8215 -1.4052  0.5180
12893TIP3   OH260169   1.490   0.618  16.770 -0.1451 -0.1123  0.3106
12893TIP3    H160170   1.395   0.613  16.777 -0.0216 -1.3311  1.3843
12893TIP3    H260171   1.522   0.592  16.856  1.1963 -2.3712 -0.8044
12894TIP3   OH260172   5.613   2.881   4.786  0.3329 -0.4630 -0.5753
12894TIP3    H160173   5.655   2.894   4.871 -0.1360 -2.4700  0.0073
12894TIP3    H260174   5.631   2.789   4.764 -1.5947 -0.6604 -1.4856
12895TIP3   OH260175   3.264   3.292   2.301  0.1950  0.0148 -0.2987
12895TIP3    H160176   3.307   3.215   2.337  2.6407  0.4460 -2.1951
12895TIP3    H260177   3.327   3.329   2.240 -0.8584  3.6427  0.6972
12896TIP3   OH260178   5.141   0.637   4.071 -0.0637 -0.6202  0.4497
12896TIP3    H160179   5.089   0.598   4.141 -2.0023  0.9700 -0.0577
12896TIP3    H260180   5.101   0.604   3.991 -1.6632  2.2633  0.0180
12897TIP3   OH260181   6.221   0.730   0.622  0.6614  0.2808 -0.0379
12897TIP3    H160182   6.287   0.721   0.691  0.8980  1.2792 -0.1261
12897TIP3    H260183   6.239   0.815   0.582 -0.7626  0.6208  0.0163
12898TIP3   OH260184   0.408   5.169  15.472 -0.2149 -0.3069  0.1130
12898TIP3    H160185   0.409   5.250  15.522 -1.4405  1.3273 -2.4168
12898TIP3    H260186   0.344   5.184  15.402 -0.3211 -3.3746 -0.5457
12899TIP3   OH260187   2.775   3.019   3.325  0.1779  0.1301 -0.0595
12899TIP3    H160188   2.759   2.929   3.352 -1.5008  1.1742  2.6500
12899TIP3    H260189   2.837   3.053   3.389 -0.6522  1.4358  0.0779
12900TIP3   OH260190   5.248   2.529   1.440 -0.0275  0.1515 -0.5132
12900TIP3    H160191   5.293   2.518   1.524 -2.0198  0.8933  0.7024
12900TIP3    H260192   5.317   2.551   1.378  1.6597 -1.6463  0.6575
12901TIP3   OH260193   6.564   4.134  13.729 -0.1770 -0.4262  0.1483
12901TIP3    H160194   6.491   4.082  13.763 -0.2162  0.8012  2.0319
12901TIP3    H260195   6.615   4.072  13.676 -2.5732 -1.2928 -1.2236
12902TIP3   OH260196   6.497   5.621   1.677  0.4561 -0.4105  0.1082
12902TIP3    H160197   6.490   5.528   1.696 -0.5868 -0.3763 -0.1248
12902TIP3    H260198   6.471   5.630   1.585  0.2994  0.1419  0.2016
12903TIP3   OH260199   1.245   5.760  13.034  0.0460  0.1342  0.4047
12903TIP3    H160200   1.199   5.695  13.088 -0.9839 -0.4524 -1.1634
12903TIP3    H260201   1.239   5.726  12.945  0.9136  1.5811 -0.2132
12904TIP3   OH260202   6.200   1.650  13.739  0.3041 -0.1491 -0.2372
12904TIP3    H160203   6.171   1.559  13.746 -1.4718  0.3654 -0.4539
12904TIP3    H260204   6.136   1.699  13.792 -0.1182  1.2191 -1.9723
12905TIP3   OH260205   1.148   3.153   3.961 -0.0848  0.5084  0.2540
12905TIP3    H160206   1.069   3.153   4.014  1.2810 -1.6171  2.3912
12905TIP3    H260207   1.179   3.244   3.964 -2.2044  1.2933 -0.3466
12906TIP3   OH260208   5.599   5.724   4.937  0.4396 -0.3281  0.8883
12906TIP3    H160209   5.545   5.648   4.956 -1.2937  0.8154  0.6815
12906TIP3    H260210   5.582   5.744   4.845 -0.8229  1.6011  1.5148
12907TIP3   OH260211   5.244   2.532  15.227 -0.0107 -0.6918 -0.3055
12907TIP3    H160212   5.239   2.543  15.132  0.2184 -0.2233 -0.2686
12907TIP3    H260213   5.158   2.561  15.259  0.9506  2.0942 -0.1212
12908TIP3   OH260214   5.627   6.524  12.429 -0.2398  0.4130  0.3100
12908TIP3    H160215   5.590   6.612  12.429 -1.9715 -0.2664 -1.3128
12908TIP3    H260216   5.651   6.508  12.337 -2.4031 -1.7728  0.0734
12909TIP3   OH260217   3.262   0.496   5.459  0.1482 -0.3358 -0.0757
12909TIP3    H160218   3.180   0.542   5.444  0.5083  0.1903 -0.4336
12909TIP3    H260219   3.260   0.423   5.398  0.4629  0.3406 -0.9072
12910TIP3   OH260220   3.061   4.094   0.569 -0.0189  0.0282  0.4159
12910TIP3    H160221   3.028   4.179   0.600  0.1247 -0.2074  1.2144
12910TIP3    H260222   3.114   4.061   0.641 -1.4356 -1.5087  0.7727
12911TIP3   OH260223   0.075   4.120  17.060  0.2703  0.5344  0.1525
12911TIP3    H160224  -0.019   4.106  17.070  0.4574  0.0341  1.3987
12911TIP3    H260225   0.088   4.137  16.967 -0.8241 -1.3284 -0.3717
12912TIP3   OH260226   5.266   5.276  14.699  0.1254  0.0642 -0.4904
12912TIP3    H160227   5.206   5.260  14.626 -1.7409  1.4971  0.6800
12912TIP3    H260228   5.220   5.245  14.776  1.8634 -0.9394  0.1661
12913TIP3   OH260229   2.264   2.557   0.314 -0.3887 -0.0765 -0.4762
12913TIP3    H160230   2.227   2.469   0.325  1.1118 -0.6381  0.2875
12913TIP3    H260231   2.188   2.615   0.312 -1.4365 -1.4411 -1.5814
12914TIP3   OH260232   4.748   0.851  16.122 -0.0472 -0.0758 -0.1549
12914TIP3    H160233   4.738   0.946  16.126  0.9698  0.0664 -0.8386
12914TIP3    H260234   4.745   0.830  16.029  1.0443 -0.5635 -0.0890
12915TIP3   OH260235   1.940   5.422   6.388  0.0536  0.3991 -0.8878
12915TIP3    H160236   1.850   5.422   6.419  0.2749 -1.5807 -0.1298
12915TIP3    H260237   1.965   5.514   6.385 -1.1554  0.8460  1.4022
12916TIP3   OH260238   1.579   0.836   6.243 -0.0193 -0.1458  0.1145
12916TIP3    H160239   1.559   0.838   6.337  1.7384 -3.0647  0.5770
12916TIP3    H260240   1.497   0.809   6.202 -0.7771  1.0740  0.7861
12917TIP3   OH260241   2.993   3.273  14.016 -0.1773  0.0645  0.2445
12917TIP3    H160242   3.028   3.362  14.017  1.3794 -0.5394  1.6705
12917TIP3    H260243   3.003   3.242  14.106 -2.2002 -0.9956  0.1312
12918TIP3   OH260244   5.119   3.047  14.523 -0.8872 -0.1574  0.0188
12918TIP3    H160245   5.129   3.131  14.567  0.5410 -0.7398  0.8361
12918TIP3    H260246   5.207   3.025  14.493 -1.1497 -1.6388  0.3141
12919TIP3   OH260247   3.030   3.136  11.107 -0.3739  0.2411 -0.1036
12919TIP3    H160248   3.004   3.160  11.195 -0.1077 -0.9838  0.3242
12919TIP3    H260249   2.948   3.113  11.063 -0.5349  1.0986 -0.2670
12920TIP3   OH260250   6.472   0.082   3.351 -0.4342 -0.4745  0.0979
12920TIP3    H160251   6.443   0.118   3.434  1.5248 -1.2102  1.1414
12920TIP3    H260252   6.507   0.157   3.303  0.4235 -0.3824  0.8432
12921TIP3   OH260253   3.436   1.258  13.896  0.5606  0.3584 -0.0185
12921TIP3    H160254   3.516   1.268  13.844  0.2516 -1.6781 -0.9715
12921TIP3    H260255   3.371   1.228  13.832 -0.3852 -0.1152  1.1609
12922TIP3   OH260256   6.343   5.241   0.584 -0.0702  0.2956  0.0019
12922TIP3    H160257   6.415   5.272   0.639 -0.3534 -1.2360  1.2501
12922TIP3    H260258   6.385   5.199   0.510  0.3146 -0.2842  0.5530
12923TIP3   OH260259   3.961   1.430   5.064 -0.3828 -0.6084 -0.4126
12923TIP3    H160260   3.889   1.438   5.127  0.3758  0.5075  0.3399
12923TIP3    H260261   4.037   1.466   5.110  0.2142  0.1390 -1.9394
12924TIP3   OH260262   0.367   3.781  17.143  0.1203 -0.1555 -0.4031
12924TIP3    H160263   0.413   3.738  17.071  1.2466 -1.2814  0.9669
12924TIP3    H260264   0.423   3.856  17.166  0.4129 -0.5384  0.1380
12925TIP3   OH260265   4.514   3.347   5.462 -0.2213  0.5881 -0.1641
12925TIP3    H160266   4.609   3.343   5.454 -0.0334  0.4867  1.8439
12925TIP3    H260267   4.482   3.350   5.372  1.7079  1.2467 -0.8441
12926TIP3   OH260268   1.962   2.983   1.196  0.6647 -0.0757 -0.5428
12926TIP3    H160269   1.893   2.953   1.138  0.1799 -0.1852  0.0829
12926TIP3    H260270   1.921   3.051   1.249  1.0967  0.0152 -0.3213
12927TIP3   OH260271   6.487   6.251  11.599  0.1384 -0.0916  0.4297
12927TIP3    H160272   6.471   6.156  11.600  0.2233 -0.1442 -2.0475
12927TIP3    H260273   6.403   6.289  11.574  0.6949  0.3670 -0.7224
12928TIP3   OH260274   3.274   4.077  17.040  0.0193 -0.2504  1.1098
12928TIP3    H160275   3.275   3.983  17.027 -0.3578 -0.2830  1.2924
12928TIP3    H260276   3.189   4.094  17.083  0.5558  0.0249  2.0847
12929TIP3   OH260277   4.952   0.393  16.284  0.3777 -0.0199  0.4187
12929TIP3    H160278   5.005   0.427  16.357 -1.3275 -0.3085  1.8216
12929TIP3    H260279   4.926   0.470  16.235  1.6646  0.1664  0.0121
12930TIP3   OH260280   5.605   3.964  12.869  0.2849  0.2518  0.7265
12930TIP3    H160281   5.692   3.988  12.839  0.1434 -0.1356  0.0175
12930TIP3    H260282   5.551   4.040  12.848  0.4788  0.5582  1.3138
12931TIP3   OH260283   1.931   0.253   1.568  0.2735  0.3109 -0.3694
12931TIP3    H160284   1.974   0.281   1.488 -0.4393  0.7613 -0.6003
12931TIP3    H260285   1.950   0.322   1.631  0.0729  0.3993 -0.4066
12932TIP3   OH260286   5.952   1.402   3.631  0.8871 -0.5340 -0.5806
12932TIP3    H160287   5.924   1.382   3.541  3.3971 -0.9502 -1.3005
12932TIP3    H260288   5.899   1.344   3.686 -1.0612  0.1049 -1.7335
12933TIP3   OH260289   2.099   6.026  10.800 -0.6290  0.6454  0.7855
12933TIP3    H160290   2.189   6.005  10.775 -0.7289  1.3131 -0.1481
12933TIP3    H260291   2.104   6.115  10.834 -0.6569  0.0804  2.2965
12934TIP3   OH260292   2.418   1.684   5.669  0.4108 -0.6792 -0.3565
12934TIP3    H160293   2.410   1.658   5.760  1.5537 -2.1221 -0.6441
12934TIP3    H260294   2.329   1.676   5.633  0.3613 -2.1978  0.0925
12935TIP3   OH260295   1.154   2.579   1.751  0.2647 -0.3324 -0.9339
12935TIP3    H160296   1.078   2.631   1.777 -0.5997 -1.7189 -0.6319
12935TIP3    H260297   1.154   2.583   1.655 -0.2853 -0.4470 -0.9430
12936TIP3   OH260298   2.226   6.643  11.268 -0.4939  0.3895  0.3397
12936TIP3    H160299   2.232   6.724  11.218 -1.2070  0.3755  0.2249
12936TIP3    H260300   2.132   6.623  11.271 -0.3222 -0.4436  0.3434
12937TIP3   OH260301   6.227   5.942  13.787 -0.3061 -0.1100 -0.0939
12937TIP3    H160302   6.195   5.862  13.829  0.0540  0.2168  0.8306
12937TIP3    H260303   6.315   5.954  13.822  0.7051 -0.7772 -2.3130
12938TIP3   OH260304   2.537   3.608   1.047  0.0970  0.1345 -0.2293
12938TIP3    H160305   2.520   3.701   1.064 -0.8052  0.1983 -1.4137
12938TIP3    H260306   2.625   3.593   1.083 -0.0573  1.2516  0.6606
12939TIP3   OH260307   3.547   2.423  13.041 -0.7846  0.1108 -0.1251
12939TIP3    H160308   3.457   2.418  13.007 -0.6133  1.7967 -0.9297
12939TIP3    H260309   3.594   2.473  12.974  0.5674 -0.1129  0.6494
12940TIP3   OH260310   4.808   6.621   3.869  0.1498 -0.2503 -0.1432
12940TIP3    H160311   4.792   6.715   3.883  0.5124 -0.2989  0.5651
12940TIP3    H260312   4.883   6.600   3.924 -1.3570 -1.4731  1.5069
12941TIP3   OH260313   0.924   4.721  12.277 -0.0560 -0.3870 -0.4024
12941TIP3    H160314   0.934   4.760  12.190  0.1557  0.7043  0.1109
12941TIP3    H260315   0.947   4.629  12.264  1.4295  0.0696 -1.2110
12942TIP3   OH260316   4.026   5.934  13.665 -0.1727  0.0752  0.4229
12942TIP3    H160317   4.040   6.008  13.724 -1.1644 -0.6238  1.5799
12942TIP3    H260318   4.067   5.860  13.711  2.0617  0.1469 -1.3725
12943TIP3   OH260319   1.735   1.181  14.394  0.5488  0.2367  0.1030
12943TIP3    H160320   1.797   1.250  14.416  0.4843 -0.3969  2.4029
12943TIP3    H260321   1.788   1.113  14.352  0.8536  1.0281 -0.8113
12944TIP3   OH260322   5.576   0.322   1.179 -0.0913  0.3365 -0.3675
12944TIP3    H160323   5.652   0.367   1.216  0.4711 -0.1155 -0.9676
12944TIP3    H260324   5.601   0.230   1.176 -0.6220  0.2003 -0.6708
12945TIP3   OH260325   3.115   5.698  16.763 -1.0886 -0.0903  0.2175
12945TIP3    H160326   3.121   5.656  16.677  0.9010  1.3834 -0.4122
12945TIP3    H260327   3.181   5.654  16.816 -0.5068  0.7205  0.1874
12946TIP3   OH260328   1.444   1.643  12.872 -0.4412 -0.1643  0.2746
12946TIP3    H160329   1.474   1.718  12.922 -0.3692  0.4185 -0.6302
12946TIP3    H260330   1.414   1.580  12.938 -0.9914  0.8574  1.0147
12947TIP3   OH260331   0.842   0.928  16.417  0.8509  0.4417  0.7400
12947TIP3    H160332   0.784   0.924  16.342  0.1132  0.6666  1.2860
12947TIP3    H260333   0.890   1.011  16.407  1.2780  0.1213  0.1466
12948TIP3   OH260334   1.772   0.456  15.328 -0.0303 -0.2520  0.0192
12948TIP3    H160335   1.713   0.394  15.372  0.6695  0.6418  2.3149
12948TIP3    H260336   1.715   0.528  15.300 -0.5894 -1.1363 -1.1299
12949TIP3   OH260337   1.829   4.264  11.032  0.5456 -0.2453 -0.0582
12949TIP3    H160338   1.847   4.220  10.949  1.3808  0.3898 -0.2284
12949TIP3    H260339   1.914   4.268  11.076  0.0280 -0.9630  1.0278
12950TIP3   OH260340   6.710   3.139   3.929 -0.4546  0.2857  0.2801
12950TIP3    H160341   6.688   3.130   3.837  1.5431  1.2012 -0.3105
12950TIP3    H260342   6.733   3.231   3.940 -0.4965  0.1480  1.6443
12951TIP3   OH260343   0.143   4.055  15.830 -0.1529 -0.2362  0.0507
12951TIP3    H160344   0.237   4.044  15.845 -0.1340  0.0030  0.1195
12951TIP3    H260345   0.122   3.995  15.759  0.2181  0.3108 -0.5286
12952TIP3   OH260346   6.755   4.715   6.263  0.2186  0.0596 -0.1737
12952TIP3    H160347   6.788   4.727   6.352 -0.9587 -1.0504  0.4363
12952TIP3    H260348   6.793   4.632   6.233  0.0383  0.0674 -0.4321
12953TIP3   OH260349   4.850   6.717   1.445  0.6115 -0.1237 -0.4149
12953TIP3    H160350   4.819   6.627   1.444 -1.1262  0.4344  0.6455
12953TIP3    H260351   4.821   6.751   1.529  2.0205  1.1781 -0.4270
12954TIP3   OH260352   4.061   4.096   2.896 -0.7012 -0.0985  0.2038
12954TIP3    H160353   4.022   4.037   2.961 -1.8566 -0.6227 -0.9433
12954TIP3    H260354   3.991   4.156   2.872 -0.1440  0.3905 -0.2265
12955TIP3   OH260355   5.207   5.693  12.811 -0.3585  0.0950  0.4322
12955TIP3    H160356   5.277   5.753  12.832 -0.4452  0.2766  0.2065
12955TIP3    H260357   5.218   5.620  12.871  0.1005  0.0641  0.3086
12956TIP3   OH260358   6.451   1.881  14.836 -0.0367  0.0872  0.3697
12956TIP3    H160359   6.370   1.895  14.787  0.2447  1.4435  0.2693
12956TIP3    H260360   6.515   1.937  14.792  1.0329 -1.2307  0.2510
12957TIP3   OH260361   0.151   1.547  11.145  0.0822 -0.1533 -0.1778
12957TIP3    H160362   0.056   1.553  11.147  0.0154 -0.4281 -1.5718
12957TIP3    H260363   0.172   1.540  11.052  1.4955  0.3914  0.0876
12958TIP3   OH260364   4.854   5.400   5.439  0.9189  0.4577 -0.0021
12958TIP3    H160365   4.922   5.412   5.374  1.6844 -0.4191  0.6161
12958TIP3    H260366   4.889   5.334   5.499  0.0746  0.9656  1.0820
12959TIP3   OH260367   0.025   5.995  16.447  0.4056  0.2249  0.8265
12959TIP3    H160368  -0.063   5.993  16.411  0.3962 -0.7517  0.8989
12959TIP3    H260369   0.068   6.067  16.401  0.9410 -2.0620 -2.4321
12960TIP3   OH260370   0.952   5.480  15.671 -0.0597 -0.1185  0.2209
12960TIP3    H160371   1.026   5.529  15.635 -0.0216  0.4590  1.0726
12960TIP3    H260372   0.977   5.388  15.659  1.1336  0.0618  1.1386
12961TIP3   OH260373   3.073   5.371  12.069 -0.0850  0.3950  0.0394
12961TIP3    H160374   2.985   5.338  12.088  0.0973 -0.1861 -0.1198
12961TIP3    H260375   3.128   5.332  12.136  0.6838 -2.1929 -2.0306
12962TIP3   OH260376   2.393   1.100   0.292 -0.0023  0.4798  0.0942
12962TIP3    H160377   2.398   1.072   0.383  0.0109 -0.7560 -0.2819
12962TIP3    H260378   2.484   1.097   0.261  0.0529  1.3357  0.1705
12963TIP3   OH260379   0.197   1.333  13.589 -0.4230 -0.3138 -0.5825
12963TIP3    H160380   0.131   1.282  13.636  0.1632 -0.6642 -0.1253
12963TIP3    H260381   0.157   1.419  13.578 -1.1019 -0.6269 -0.6348
12964TIP3   OH260382   0.693   1.522   0.395  0.0529  0.0930  0.1563
12964TIP3    H160383   0.723   1.611   0.376 -0.7355  0.5922  1.1968
12964TIP3    H260384   0.654   1.492   0.313 -0.4344  1.0272  0.0360
12965TIP3   OH260385   1.831   0.166  16.185 -0.3043 -0.3243  0.4225
12965TIP3    H160386   1.751   0.127  16.220 -1.0597 -1.5752 -2.5121
12965TIP3    H260387   1.880   0.091  16.149 -0.2609  1.0019 -2.4132
12966TIP3   OH260388   2.789   1.621   4.335 -0.3454  0.7627 -0.8566
12966TIP3    H160389   2.817   1.530   4.343 -0.0823  0.9353  0.2281
12966TIP3    H260390   2.731   1.621   4.259  1.0804  0.0391 -1.9623
12967TIP3   OH260391   5.767   1.055  16.501 -0.0892 -0.4127 -0.5089
12967TIP3    H160392   5.750   1.141  16.539  2.9596  0.3639 -0.7973
12967TIP3    H260393   5.842   1.021  16.550  0.5055 -1.6796 -2.2523
12968TIP3   OH260394   2.979   3.147  11.389  0.2473 -0.7059 -0.6675
12968TIP3    H160395   2.895   3.174  11.426  0.7295 -1.4585  1.0033
12968TIP3    H260396   3.040   3.215  11.415  0.3337 -0.6000 -1.1483
12969TIP3   OH260397   4.498   0.055   2.022  0.1731 -0.3025 -0.4632
12969TIP3    H160398   4.571   0.098   2.066  0.4228  1.2964 -2.3745
12969TIP3    H260399   4.525  -0.036   2.013  0.9556 -0.2158  0.8448
12970TIP3   OH260400   6.337   3.424  10.656 -0.8800 -0.7016  0.2424
12970TIP3    H160401   6.265   3.410  10.718 -0.3041  0.7180  1.2690
12970TIP3    H260402   6.296   3.465  10.580 -1.2251 -0.3247  0.6310
12971TIP3   OH260403   0.131   2.434  14.133 -0.4385 -0.9682 -0.3918
12971TIP3    H160404   0.098   2.391  14.212  0.1951  0.2073  0.5384
12971TIP3    H260405   0.133   2.527  14.156  0.9047 -0.7419 -1.3692
12972TIP3   OH260406   0.966   0.560  14.227 -0.2734 -0.9759 -0.0168
12972TIP3    H160407   0.876   0.589  14.211  0.5240  1.4187 -0.3819
12972TIP3    H260408   0.974   0.558  14.322  0.2555  2.2011  0.0784
12973TIP3   OH260409   4.530   6.463   6.245 -0.7747  0.1102 -0.1423
12973TIP3    H160410   4.443   6.436   6.275 -0.4377 -1.5046 -0.5672
12973TIP3    H260411   4.587   6.451   6.321 -0.2966 -2.1060 -0.8028
12974TIP3   OH260412   6.544   2.426  15.635 -0.2117 -0.3228  0.0680
12974TIP3    H160413   6.449   2.417  15.645 -0.5366  2.6775 -0.0079
12974TIP3    H260414   6.564   2.377  15.555 -1.7489 -0.5874 -0.1694
12975TIP3   OH260415   4.446   2.672   0.046  0.9498  0.5661 -0.1812
12975TIP3    H160416   4.479   2.736  -0.017  0.7789  2.0310  1.1681
12975TIP3    H260417   4.356   2.701   0.065  1.1417  0.4125  1.0295
12976TIP3   OH260418   6.584   1.816   0.755 -0.5391  0.4166  0.4757
12976TIP3    H160419   6.493   1.806   0.725  0.1894 -1.1175 -1.2908
12976TIP3    H260420   6.607   1.905   0.730 -1.4824  0.7477  0.7453
12977TIP3   OH260421   2.582   2.854  16.357 -0.2463  0.3270  0.2593
12977TIP3    H160422   2.663   2.906  16.358  0.1277 -0.1746 -2.1172
12977TIP3    H260423   2.575   2.819  16.446  1.5603  1.2791  0.7939
12978TIP3   OH260424   3.340   5.586   2.809  0.1269 -0.4243 -0.3230
12978TIP3    H160425   3.320   5.544   2.726 -2.2987 -1.0316  0.5295
12978TIP3    H260426   3.304   5.675   2.800 -0.3886 -0.5818  0.1812
12979TIP3   OH260427   5.825   5.290  12.376 -1.1649 -0.6494  0.7390
12979TIP3    H160428   5.901   5.312  12.322 -1.8276  0.6361  0.3135
12979TIP3    H260429   5.851   5.314  12.465 -0.6739 -1.2320  0.7537
12980TIP3   OH260430   4.281   6.462  16.160 -0.0559 -0.8678  0.3506
12980TIP3    H160431   4.237   6.520  16.097 -0.5798 -1.3347  0.2844
12980TIP3    H260432   4.317   6.522  16.226  0.6197 -0.3620 -0.4624
12981TIP3   OH260433   6.632   6.586  13.918  0.8360 -0.3304  0.0304
12981TIP3    H160434   6.651   6.555  13.830 -0.2647  0.2368 -0.4135
12981TIP3    H260435   6.577   6.517  13.956 -0.2554  0.2887 -0.3918
12982TIP3   OH260436   1.486   5.323   1.530  0.3963 -0.0440 -0.5224
12982TIP3    H160437   1.442   5.238   1.524  1.2379 -0.6782  1.9353
12982TIP3    H260438   1.452   5.361   1.611  3.0616  0.1984  0.5074
12983TIP3   OH260439   2.789   2.650   2.763 -0.2713  0.8560 -0.1965
12983TIP3    H160440   2.833   2.734   2.756  1.0400  0.0704 -1.5408
12983TIP3    H260441   2.854   2.586   2.734 -1.2594 -0.6221  0.7734
12984TIP3   OH260442   2.483   3.497  14.042 -0.2407  0.5104  0.1045
12984TIP3    H160443   2.573   3.463  14.047 -0.1390  0.7125 -0.3823
12984TIP3    H260444   2.443   3.450  13.969 -1.5040 -1.8525  2.2433
12985TIP3   OH260445   4.116   6.220   1.070  0.1981  0.0038 -0.0760
12985TIP3    H160446   4.074   6.285   1.015 -2.0397 -0.5820  0.8871
12985TIP3    H260447   4.113   6.256   1.158  0.7786 -0.5081  0.1622
12986TIP3   OH260448   6.730   5.444   4.412  0.5500 -0.3480 -0.0121
12986TIP3    H160449   6.799   5.510   4.401  0.2870 -0.1302 -0.3639
12986TIP3    H260450   6.693   5.462   4.499 -0.4691  0.8693 -0.6858
12987TIP3   OH260451   1.147   0.660  15.116 -0.2681 -0.0768  0.3588
12987TIP3    H160452   1.107   0.574  15.106  0.8650 -1.1237  3.9816
12987TIP3    H260453   1.241   0.642  15.119  0.3149  1.8404 -3.2924
12988TIP3   OH260454   4.205   1.860  12.959  0.4346 -1.0428  0.2759
12988TIP3    H160455   4.268   1.926  12.929  0.0371 -1.0557 -0.6177
12988TIP3    H260456   4.125   1.910  12.975 -0.0798 -1.3902 -1.0911
12989TIP3   OH260457   4.088   3.141   0.945  0.6486 -0.2528  0.3733
12989TIP3    H160458   4.129   3.069   0.899 -3.6314 -1.7076 -1.4053
12989TIP3    H260459   4.056   3.102   1.027  2.3111  0.7696  1.5571
12990TIP3   OH260460   0.431   6.386  10.758  0.3628 -0.1528  0.1855
12990TIP3    H160461   0.348   6.360  10.798  0.8947 -0.7329  0.9284
12990TIP3    H260462   0.406   6.435  10.680 -0.7055  2.1402  1.9355
12991TIP3   OH260463   2.555   1.293   4.412  0.0382  0.5117  0.0301
12991TIP3    H160464   2.486   1.230   4.429  0.7493 -0.4757 -0.6721
12991TIP3    H260465   2.513   1.379   4.422 -2.1582 -0.0080 -3.5855
12992TIP3   OH260466   2.894   3.036  13.900  0.0728  0.2951  0.3490
12992TIP3    H160467   2.940   2.953  13.913  0.4702  0.3073 -0.8954
12992TIP3    H260468   2.947   3.099  13.949 -1.4220 -0.5079  3.1032
12993TIP3   OH260469   3.975   0.754   1.349 -0.4053 -0.1601  0.5561
12993TIP3    H160470   3.902   0.781   1.293 -0.3621  0.1282  0.6375
12993TIP3    H260471   4.047   0.814   1.326 -0.1307 -0.5780  0.3276
12994TIP3   OH260472   4.306   5.628  14.830  0.7666 -0.1340 -0.0998
12994TIP3    H160473   4.222   5.622  14.785  0.0556 -0.0381  1.1590
12994TIP3    H260474   4.371   5.624  14.761 -0.2814 -0.0909 -1.1138
12995TIP3   OH260475   4.698   0.879  13.845 -0.3942 -0.1534  0.2866
12995TIP3    H160476   4.709   0.926  13.763  0.3579 -0.6854  0.0783
12995TIP3    H260477   4.623   0.822  13.831 -1.0763  0.6919  0.4138
12996TIP3   OH260478   0.140   3.751  15.348 -0.1197  0.3344  0.1391
12996TIP3    H160479   0.149   3.659  15.370 -2.2058 -0.3718 -1.7717
12996TIP3    H260480   0.182   3.759  15.262  0.5632  1.3039  0.5500
12997TIP3   OH260481   4.727   3.087  13.710  0.8837  0.3214  0.3573
12997TIP3    H160482   4.765   3.079  13.797 -1.1789  0.1391  1.2938
12997TIP3    H260483   4.647   3.034  13.714 -0.9866  2.9622 -0.5836
12998TIP3   OH260484   3.194   2.393   1.456  0.6938 -0.4359 -0.2231
12998TIP3    H160485   3.257   2.448   1.502 -0.6231 -0.6075  1.8101
12998TIP3    H260486   3.223   2.303   1.473  0.4573 -0.4897 -0.1003
12999TIP3   OH260487   2.832   0.505   5.365 -0.2532 -1.0717 -0.9908
12999TIP3    H160488   2.857   0.422   5.325  0.6600 -1.4848  0.3916
12999TIP3    H260489   2.800   0.481   5.452  0.4418  0.0396 -0.4087
13000TIP3   OH260490   2.667   0.232   0.014  0.6869  0.2716  0.1410
13000TIP3    H160491   2.725   0.283  -0.042 -1.4096  0.6195 -1.8032
13000TIP3    H260492   2.619   0.298   0.064  1.7347 -0.0015  1.5212
13001TIP3   OH260493   2.048   4.182   3.435  0.0736  0.3190  0.2944
13001TIP3    H160494   1.998   4.198   3.515 -0.9776 -2.2082  0.1907
13001TIP3    H260495   2.065   4.269   3.399 -1.1408  1.3819  2.2255
13002TIP3   OH260496   3.893   0.808  13.040  0.3706 -0.2421 -0.1653
13002TIP3    H160497   3.977   0.782  13.002  0.7761  1.2676 -0.3325
13002TIP3    H260498   3.899   0.780  13.131  2.0901  2.0895  0.4771
13003TIP3   OH260499   0.076   4.957  11.489 -0.1151 -0.0054  0.0569
13003TIP3    H160500   0.100   4.901  11.563 -0.7744  0.7357  0.8459
13003TIP3    H260501  -0.014   4.930  11.469 -0.0807  0.0842 -0.2063
13004TIP3   OH260502   3.721   5.453  14.351 -0.4389  0.6572  0.4188
13004TIP3    H160503   3.649   5.511  14.375 -1.3882  0.2524 -1.3583
13004TIP3    H260504   3.701   5.370  14.394 -0.8288  0.6713  0.2677
13005TIP3   OH260505   0.526   2.954  13.334 -0.2026  0.5090  0.0310
13005TIP3    H160506   0.543   2.966  13.240  0.5458  1.0763  0.2300
13005TIP3    H260507   0.490   2.866  13.341 -0.0904  0.3955 -0.7752
13006TIP3   OH260508   5.744   5.108  15.615 -0.0417  0.2616 -0.0928
13006TIP3    H160509   5.694   5.050  15.558  1.3304  0.9038 -2.0058
13006TIP3    H260510   5.696   5.191  15.615 -0.9904 -0.2650  1.1408
13007TIP3   OH260511   5.563   2.564   2.546  0.1423 -0.1640  0.2001
13007TIP3    H160512   5.609   2.596   2.469 -0.3942  0.6741  0.2221
13007TIP3    H260513   5.627   2.570   2.617 -0.0551  1.1720  0.2703
13008TIP3   OH260514   3.561   3.511  10.826 -0.2093  0.0561  0.3109
13008TIP3    H160515   3.509   3.431  10.826  0.5133 -0.4250  1.6459
13008TIP3    H260516   3.613   3.506  10.746 -1.3728  0.0022 -0.4584
13009TIP3   OH260517   2.490   2.992  11.381  0.1842  0.1697  0.4555
13009TIP3    H160518   2.536   2.917  11.345 -0.3378  0.7369 -1.4444
13009TIP3    H260519   2.419   2.954  11.433 -0.9024 -0.6581 -1.5989
13010TIP3   OH260520   6.803   2.191   3.759 -0.4185  0.1722 -0.2775
13010TIP3    H160521   6.876   2.231   3.805  0.8774 -1.6123 -0.7151
13010TIP3    H260522   6.785   2.110   3.808 -1.2740 -0.0122 -0.8855
13011TIP3   OH260523   5.542   1.219   1.458 -0.2046  0.7005 -0.6743
13011TIP3    H160524   5.539   1.125   1.479  0.5995  0.6183 -0.9347
13011TIP3    H260525   5.583   1.223   1.372  0.4783  1.3411 -0.3218
13012TIP3   OH260526   0.560   5.645   6.278 -0.6398  0.2435 -0.2420
13012TIP3    H160527   0.613   5.629   6.355  0.0373 -0.1892 -0.7965
13012TIP3    H260528   0.564   5.740   6.265  0.4455  0.1544 -0.6020
13013TIP3   OH260529   3.907   0.536   4.196  0.0304 -0.4388  0.2547
13013TIP3    H160530   3.836   0.600   4.189  0.6888  0.0280 -2.4947
13013TIP3    H260531   3.985   0.589   4.211  0.1629 -0.8205  0.9765
13014TIP3   OH260532   6.039   5.019  13.169 -0.1966  0.6716 -0.5712
13014TIP3    H160533   6.047   5.092  13.107  2.8530 -0.2629 -1.3946
13014TIP3    H260534   6.112   4.961  13.146 -2.4180 -2.5348  0.2151
13015TIP3   OH260535   1.867   4.941  13.151  0.2656 -0.6190  0.1141
13015TIP3    H160536   1.814   4.900  13.219  0.0502  1.4027  1.2297
13015TIP3    H260537   1.943   4.976  13.199  0.2593  0.5701 -0.7283
13016TIP3   OH260538   5.467   6.160  11.911  0.5443 -0.3872 -0.3416
13016TIP3    H160539   5.492   6.252  11.927 -0.8725 -0.3102  1.6426
13016TIP3    H260540   5.532   6.110  11.960  0.2760 -0.3714  0.0354
13017TIP3   OH260541   2.308   0.968   6.581 -0.4228 -0.0259  0.8018
13017TIP3    H160542   2.349   0.892   6.623  0.0218 -0.5680 -0.6169
13017TIP3    H260543   2.224   0.977   6.627  0.0876 -0.5519  1.8744
13018TIP3   OH260544   6.403   2.037  15.050 -0.0396  0.1217  0.3850
13018TIP3    H160545   6.319   1.991  15.044 -0.1289  0.5996 -3.0665
13018TIP3    H260546   6.465   1.979  15.006  0.6650  1.4774 -0.4306
13019TIP3   OH260547   3.486   3.613  13.875 -0.4294  0.8372 -0.2352
13019TIP3    H160548   3.494   3.706  13.856  0.5692  1.0489  1.1322
13019TIP3    H260549   3.523   3.569  13.798 -1.1993  1.5423 -1.0211
13020TIP3   OH260550   6.383   6.285  13.766  0.3679  0.0696 -0.2477
13020TIP3    H160551   6.398   6.291  13.671 -2.3116 -0.5605 -0.7587
13020TIP3    H260552   6.346   6.370  13.789 -0.7902 -0.4349 -0.1666
13021TIP3   OH260553   3.083   3.094  12.945 -0.3248 -0.9673 -0.5438
13021TIP3    H160554   3.047   3.180  12.925  1.9939 -0.0246 -0.8430
13021TIP3    H260555   3.060   3.079  13.036  0.4586  0.6331 -0.0559
13022TIP3   OH260556   5.234   4.289  12.457  0.2050 -0.4914  0.3748
13022TIP3    H160557   5.181   4.297  12.537 -1.4648 -1.5048 -0.5883
13022TIP3    H260558   5.221   4.372  12.412  2.0508  0.5326  1.6510
13023TIP3   OH260559   1.659   0.457  16.588  0.3543 -0.0244  0.1383
13023TIP3    H160560   1.599   0.403  16.535  0.0067 -0.6436  1.1466
13023TIP3    H260561   1.601   0.505  16.648  0.8901 -0.9500  1.4098
13024TIP3   OH260562   3.707   0.137   2.029 -0.3500 -0.0879  0.0484
13024TIP3    H160563   3.702   0.182   2.113  1.6022 -1.0677  0.7261
13024TIP3    H260564   3.783   0.079   2.037 -0.1642 -0.2406 -2.3645
13025TIP3   OH260565   5.623   2.168  16.467  0.0421  0.1860 -0.3936
13025TIP3    H160566   5.606   2.083  16.428  0.0973  0.1215 -0.2771
13025TIP3    H260567   5.550   2.182  16.527  0.1829  0.0893 -0.1971
13026TIP3   OH260568   0.403   2.601   4.640  0.3436 -0.1150  0.1762
13026TIP3    H160569   0.473   2.621   4.702 -0.0764  1.3376  0.1876
13026TIP3    H260570   0.330   2.574   4.696  0.5028 -0.4487  0.2245
13027TIP3   OH260571   5.244   4.159  13.206 -0.5120  0.1208  0.0321
13027TIP3    H160572   5.325   4.195  13.239 -0.5003  0.4120 -0.3129
13027TIP3    H260573   5.265   4.068  13.184 -0.3088  0.1678  0.0369
13028TIP3   OH260574   4.096   0.687  17.080  0.9452 -0.1331  0.5543
13028TIP3    H160575   4.103   0.684  17.175  1.5497  0.7467  0.5431
13028TIP3    H260576   4.023   0.745  17.062  0.3666 -0.8778  0.4911
13029TIP3   OH260577   2.175   5.537  12.532 -0.0499  0.0535 -0.1755
13029TIP3    H160578   2.165   5.562  12.623 -0.8196  0.6153 -0.4113
13029TIP3    H260579   2.145   5.447  12.528 -0.9052  0.3339 -0.0539
13030TIP3   OH260580   5.752   0.449  15.702 -0.2059 -0.2411 -0.0771
13030TIP3    H160581   5.693   0.470  15.629 -0.5818  3.0300  1.0955
13030TIP3    H260582   5.839   0.471  15.670  0.0593 -2.0575 -0.6864
13031TIP3   OH260583   5.928   5.113  14.030  0.0850  0.6569 -0.6852
13031TIP3    H160584   6.013   5.130  13.990  0.5820  2.7749  1.1860
13031TIP3    H260585   5.890   5.044  13.976  2.1204  1.1029 -2.7780
13032TIP3   OH260586   5.307   4.213  13.536  0.2493  0.3981 -0.4354
13032TIP3    H160587   5.272   4.297  13.566  0.0048  0.0803  0.1883
13032TIP3    H260588   5.391   4.235  13.495  1.2225  0.7164  1.6606
13033TIP3   OH260589   1.586   0.702   0.641 -0.1975  0.0591 -0.0991
13033TIP3    H160590   1.629   0.713   0.557  1.9408  1.4800  1.1418
13033TIP3    H260591   1.517   0.768   0.642 -0.2687 -0.0098 -0.7602
13034TIP3   OH260592   5.081   5.500   0.390 -0.2324 -0.3322  0.0596
13034TIP3    H160593   5.020   5.563   0.352 -1.2131 -1.6910 -0.6462
13034TIP3    H260594   5.040   5.474   0.473 -0.4877 -1.0257 -0.2762
13035TIP3   OH260595   3.018   4.787  10.686  0.4624  0.1831  0.6498
13035TIP3    H160596   2.953   4.843  10.727  0.4645  0.8397 -0.2193
13035TIP3    H260597   2.973   4.749  10.610  0.5687 -0.7223  1.0297
13036TIP3   OH260598   2.470   1.950  15.242 -0.1638 -0.2788  0.3677
13036TIP3    H160599   2.562   1.977  15.244  0.0417 -1.0560  2.6531
13036TIP3    H260600   2.472   1.856  15.258 -1.1951 -0.8132 -2.5155
13037TIP3   OH260601   0.276   5.745  14.203 -0.2317 -0.0819  0.3936
13037TIP3    H160602   0.200   5.764  14.258 -1.2652  0.3600 -1.1805
13037TIP3    H260603   0.287   5.823  14.148 -0.4317 -1.3190 -1.4407
13038TIP3   OH260604   2.985   2.964  13.442  0.6231 -0.3030 -0.3674
13038TIP3    H160605   3.050   3.017  13.489  0.9545 -1.9085  1.0222
13038TIP3    H260606   2.920   2.941  13.508 -0.5874  0.0766 -1.4288
13039TIP3   OH260607   1.977   0.882  10.446 -0.2454  0.1036 -0.0201
13039TIP3    H160608   1.922   0.957  10.426 -1.8274 -0.5835  1.6631
13039TIP3    H260609   1.921   0.806  10.430  1.1448 -0.7211 -1.1074
13040TIP3   OH260610   1.441   0.821  14.859  0.2787 -0.5385 -0.0596
13040TIP3    H160611   1.423   0.748  14.918 -1.1309 -0.6770 -0.6463
13040TIP3    H260612   1.382   0.891  14.888  1.2809  0.2099  0.1994
13041TIP3   OH260613   2.271   0.228   3.053  0.2377 -0.3274 -0.1490
13041TIP3    H160614   2.192   0.263   3.094  0.0556  1.2082 -1.7297
13041TIP3    H260615   2.336   0.227   3.123 -0.8943 -0.6111  0.9039
13042TIP3   OH260616   1.603   4.379   1.557 -0.1366 -0.1096  0.0216
13042TIP3    H160617   1.566   4.335   1.480 -2.0237  1.7919 -0.2162
13042TIP3    H260618   1.624   4.308   1.617 -0.0747 -1.5251 -1.6293
13043TIP3   OH260619   5.438   6.781   0.708  0.3014 -0.3299  0.0636
13043TIP3    H160620   5.430   6.857   0.765 -0.4814  0.4141 -1.0217
13043TIP3    H260621   5.530   6.756   0.715  0.3211  0.0381  1.2786
13044TIP3   OH260622   5.269   6.572  15.640 -0.2577 -0.0399 -0.3096
13044TIP3    H160623   5.233   6.551  15.554  0.3950 -1.0906 -0.3296
13044TIP3    H260624   5.232   6.506  15.698 -2.0131  1.6563  0.5423
13045TIP3   OH260625   5.794   0.342  14.603  0.1888  0.0712 -0.1461
13045TIP3    H160626   5.773   0.422  14.653 -0.1239 -0.4223  0.5218
13045TIP3    H260627   5.751   0.356  14.518  0.8788  0.9987 -0.3504
13046TIP3   OH260628   3.919   6.640  15.387  0.4440 -0.2941 -0.4451
13046TIP3    H160629   3.935   6.566  15.329 -1.9636  0.5508 -2.2172
13046TIP3    H260630   3.824   6.648  15.391  0.6522  2.1150  0.4802
13047TIP3   OH260631   0.100   5.755  16.556  0.6006 -0.0502  0.0967
13047TIP3    H160632   0.062   5.835  16.520  0.5640  1.1752  2.7835
13047TIP3    H260633   0.181   5.743  16.507 -0.3118  0.5404 -1.6310
13048TIP3   OH260634   0.776   2.939  15.573  0.0078 -0.3689  0.5380
13048TIP3    H160635   0.719   2.947  15.497  0.5919  0.9831  0.2230
13048TIP3    H260636   0.751   3.012  15.629 -0.9808 -1.8293  2.0388
13049TIP3   OH260637   4.223   6.437  11.414 -0.1251 -0.5129 -0.3217
13049TIP3    H160638   4.277   6.359  11.399 -1.7171 -1.9606  1.0810
13049TIP3    H260639   4.189   6.460  11.328  1.3582 -0.5939 -0.9498
13050TIP3   OH260640   1.730   0.741  13.275  0.0003 -0.2363  0.0817
13050TIP3    H160641   1.809   0.776  13.317 -2.0008  2.5883  1.6299
13050TIP3    H260642   1.723   0.652  13.308  2.1786 -0.2966  0.4450
13051TIP3   OH260643   0.367   1.020   5.037 -0.3071  0.0082  0.3785
13051TIP3    H160644   0.304   1.016   5.110 -1.3861  1.2583 -0.4643
13051TIP3    H260645   0.416   1.101   5.052  0.0638 -0.1764  0.1816
13052TIP3   OH260646   4.378   4.879   4.074 -0.3582  0.7532 -0.3575
13052TIP3    H160647   4.441   4.918   4.013  0.9542 -0.2052  0.3651
13052TIP3    H260648   4.360   4.949   4.137  0.6569  0.7479 -0.0549
13053TIP3   OH260649   2.528   3.765  16.466 -0.3574 -0.2263 -0.1797
13053TIP3    H160650   2.509   3.729  16.379 -0.6381 -1.2073  0.2852
13053TIP3    H260651   2.443   3.798  16.497  0.0401  1.5609 -0.9183
13054TIP3   OH260652   2.219   0.923   3.318  0.2180  0.3583  0.0475
13054TIP3    H160653   2.161   0.846   3.318 -0.2201  0.6458 -2.1640
13054TIP3    H260654   2.226   0.948   3.410  1.2089 -2.9487  0.9577
13055TIP3   OH260655   1.700   1.421  16.418  0.1225 -0.4548 -0.0813
13055TIP3    H160656   1.637   1.360  16.457 -0.8772  0.2360 -0.5931
13055TIP3    H260657   1.661   1.507  16.431  1.0965  0.0057 -0.1770
13056TIP3   OH260658   4.994   0.406  13.628 -0.5637  0.3960 -0.0373
13056TIP3    H160659   4.976   0.314  13.648 -0.1429  0.4587  0.6392
13056TIP3    H260660   4.909   0.449  13.637 -0.5365  0.2783  0.8088
13057TIP3   OH260661   6.188   6.622  16.435 -0.7264  0.3171  0.3055
13057TIP3    H160662   6.133   6.667  16.498 -1.0917 -0.5803  0.6407
13057TIP3    H260663   6.129   6.600  16.363 -0.8709 -0.8962  0.7912
13058TIP3   OH260664   0.520   3.520   0.384  0.3949  0.0578 -0.1540
13058TIP3    H160665   0.568   3.459   0.328  1.1260  0.2014  0.3128
13058TIP3    H260666   0.574   3.599   0.387  1.4513 -0.7051  2.4833
13059TIP3   OH260667   5.647   5.401   5.258 -0.2443 -0.1652  0.0410
13059TIP3    H160668   5.702   5.391   5.180 -0.5259  1.2041 -0.3609
13059TIP3    H260669   5.560   5.374   5.229 -0.2430 -0.1453  0.0192
13060TIP3   OH260670   1.767   3.802  15.469  0.5069  0.0709  0.1032
13060TIP3    H160671   1.799   3.891  15.455  1.2784 -0.1228  0.5882
13060TIP3    H260672   1.762   3.794  15.564  0.3550 -0.3750  0.0550
13061TIP3   OH260673   0.773   0.983  11.338 -0.1409  0.6320 -0.3045
13061TIP3    H160674   0.862   0.958  11.311 -0.7636  0.1496 -1.9733
13061TIP3    H260675   0.720   0.970  11.260 -2.2543 -1.8590  1.4683
13062TIP3   OH260676   1.357   5.944   1.392  0.2495 -0.3825 -0.4340
13062TIP3    H160677   1.448   5.972   1.389  0.9788 -2.3139  1.6700
13062TIP3    H260678   1.308   6.022   1.417  1.3514  0.5856 -1.2545
13063TIP3   OH260679   2.981   3.737  13.638 -0.8879  0.4422  0.0676
13063TIP3    H160680   3.014   3.729  13.548 -0.6804 -1.3190  0.2804
13063TIP3    H260681   2.908   3.676  13.642 -0.6748  0.2616  1.1990
13064TIP3   OH260682   3.081   2.152   1.793 -0.4655 -0.0713 -0.0793
13064TIP3    H160683   3.119   2.082   1.846 -2.5340 -0.8172  0.4918
13064TIP3    H260684   3.062   2.110   1.709 -1.6909 -0.2353  0.2592
13065TIP3   OH260685   1.895   1.040  15.957  0.1011  0.2022 -0.0011
13065TIP3    H160686   1.856   1.000  16.034  0.8118  1.7921  1.2157
13065TIP3    H260687   1.981   1.000  15.950  0.9511  1.7043  1.4215
13066TIP3   OH260688   6.067   1.295  15.746  0.4861 -0.3426  0.8182
13066TIP3    H160689   6.005   1.330  15.682 -0.1014 -1.4033  0.7856
13066TIP3    H260690   6.129   1.244  15.693  0.1907 -0.9527  1.0514
13067TIP3   OH260691   1.274   4.478  15.752 -0.1677 -0.3882 -0.0737
13067TIP3    H160692   1.321   4.405  15.791  0.9936 -1.2408 -2.9240
13067TIP3    H260693   1.203   4.437  15.702  1.8670  0.1562 -3.5915
13068TIP3   OH260694   6.069   1.466   5.959  0.4069  0.1468  0.4712
13068TIP3    H160695   6.064   1.427   5.872  0.4714  0.9772  0.0880
13068TIP3    H260696   6.019   1.407   6.015 -0.7784  0.3306 -0.3843
13069TIP3   OH260697   6.270   6.476   1.596 -0.5910 -0.1347 -0.1088
13069TIP3    H160698   6.240   6.395   1.635  0.5044 -0.7342 -0.4850
13069TIP3    H260699   6.202   6.540   1.617 -1.2941 -1.0676  0.4690
13070TIP3   OH260700   4.058   4.736  14.882  0.3649  0.1602 -0.3692
13070TIP3    H160701   4.067   4.659  14.826 -1.3875  1.1913 -2.1425
13070TIP3    H260702   3.999   4.708  14.952  1.3157 -0.6782  0.1083
13071TIP3   OH260703   1.506   5.764   1.603 -0.1249 -0.0072  0.2781
13071TIP3    H160704   1.437   5.705   1.572  0.1608 -0.5258  0.6226
13071TIP3    H260705   1.565   5.772   1.528 -2.0474  2.7508 -1.0306
13072TIP3   OH260706   0.819   1.143   2.852 -0.1462 -0.2009  0.0190
13072TIP3    H160707   0.868   1.203   2.796  0.3013 -2.5297 -2.1478
13072TIP3    H260708   0.866   1.143   2.935  0.2138  1.9300 -0.1612
13073TIP3   OH260709   0.236   2.859  13.531  0.9464 -0.1619 -0.1257
13073TIP3    H160710   0.272   2.773  13.552 -0.3074 -1.0385 -1.4566
13073TIP3    H260711   0.299   2.897  13.469  1.5294 -0.0892  0.5090
13074TIP3   OH260712   5.939   4.754   5.305  0.2618 -0.1214  0.2147
13074TIP3    H160713   5.850   4.788   5.296  0.2649  0.3464  1.8185
13074TIP3    H260714   5.995   4.831   5.300  0.3216  0.0882  2.9360
13075TIP3   OH260715   4.093   1.060   0.435 -0.3243 -0.2132 -0.4059
13075TIP3    H160716   4.057   1.024   0.516  1.3834 -0.1791  0.3800
13075TIP3    H260717   4.041   1.019   0.366 -1.2957 -0.8269  0.6589
13076TIP3   OH260718   3.371   6.683  12.808  0.1191  0.1272  0.1535
13076TIP3    H160719   3.329   6.608  12.851 -1.5341  1.2500  0.5387
13076TIP3    H260720   3.423   6.724  12.878 -0.1471  0.1939  0.3132
13077TIP3   OH260721   5.523   6.272  12.504 -0.4018 -0.3620  0.1877
13077TIP3    H160722   5.450   6.282  12.564  0.3340  1.8141  0.7810
13077TIP3    H260723   5.558   6.361  12.494  0.9717 -1.0638 -1.5720
13078TIP3   OH260724   6.720   6.303  10.896  0.0489  0.3890 -0.0210
13078TIP3    H160725   6.687   6.392  10.914 -1.9416  0.4279 -3.4567
13078TIP3    H260726   6.651   6.245  10.928  1.4409 -0.0072  2.4132
13079TIP3   OH260727   5.645   5.445   2.879  0.5764  0.4393  0.9347
13079TIP3    H160728   5.690   5.528   2.869  0.3873  0.6502  1.7796
13079TIP3    H260729   5.707   5.380   2.846  0.4182  0.9791 -0.4643
13080TIP3   OH260730   4.349   0.190  15.045 -0.1882  0.0016  0.3450
13080TIP3    H160731   4.431   0.146  15.021  0.0740 -0.1475  1.5001
13080TIP3    H260732   4.373   0.282  15.056 -0.8128  0.5448 -2.4542
13081TIP3   OH260733   3.780   2.472   4.140 -0.0877 -0.0450  0.3963
13081TIP3    H160734   3.850   2.417   4.104 -0.0129  1.0287 -1.1807
13081TIP3    H260735   3.700   2.434   4.103  0.0402  1.4800 -1.5544
13082TIP3   OH260736   2.486   6.238   5.298 -0.1413 -0.3643 -0.5454
13082TIP3    H160737   2.513   6.163   5.351  0.0570 -0.3431 -0.6155
13082TIP3    H260738   2.467   6.200   5.212  2.3720  0.0059 -1.3108
13083TIP3   OH260739   4.254   5.655   3.937  0.0977  0.5053 -0.5766
13083TIP3    H160740   4.240   5.716   4.010  0.1409  0.5328 -0.5911
13083TIP3    H260741   4.200   5.579   3.959  2.5813 -0.8351  1.0683
13084TIP3   OH260742   6.010   4.407   4.666  0.3054  0.1026  0.2349
13084TIP3    H160743   6.048   4.449   4.589  0.4027  1.4517  0.9930
13084TIP3    H260744   5.915   4.420   4.656  0.0539 -2.4445 -1.1876
13085TIP3   OH260745   0.473   2.644  16.248 -0.1889  0.3041  0.1826
13085TIP3    H160746   0.565   2.637  16.223 -0.0581 -0.4411  0.8522
13085TIP3    H260747   0.429   2.579  16.193  0.2759 -2.2435  2.6846
13086TIP3   OH260748   6.469   5.407  16.993 -0.6124 -0.2275  0.3119
13086TIP3    H160749   6.442   5.431  16.904 -1.6731  0.0591  0.7026
13086TIP3    H260750   6.437   5.318  17.004  2.5667 -1.5982 -0.8349
13087TIP3   OH260751   3.003   2.089  16.887  0.9724 -0.0039  0.1947
13087TIP3    H160752   3.004   1.994  16.876 -0.9252 -0.2003  1.5056
13087TIP3    H260753   3.076   2.107  16.946  1.6972 -0.5710 -0.5125
13088TIP3   OH260754   3.662   6.038   1.162 -0.1295 -0.2790  0.0089
13088TIP3    H160755   3.755   6.034   1.141 -0.1777 -0.5104 -0.1597
13088TIP3    H260756   3.626   5.956   1.128 -0.7644  0.6990 -1.7480
13089TIP3   OH260757   1.933   2.683  14.035  0.0444  0.3202 -0.6025
13089TIP3    H160758   1.870   2.755  14.035 -0.5687 -0.1994 -1.0442
13089TIP3    H260759   1.966   2.680  13.945 -2.3215 -1.9604 -1.4486
13090TIP3   OH260760   4.698   2.268   4.194 -0.1663  0.0110  0.1136
13090TIP3    H160761   4.769   2.321   4.231 -0.1707  0.1105 -0.0191
13090TIP3    H260762   4.709   2.182   4.234  0.3941 -0.1470 -0.3581
13091TIP3   OH260763   1.130   6.069  13.944  0.3101 -0.4667  0.5402
13091TIP3    H160764   1.184   6.123  13.886 -3.2590  0.6110 -1.9697
13091TIP3    H260765   1.108   6.127  14.017 -1.4102  0.7774 -0.8954
13092TIP3   OH260766   1.226   3.335  16.178 -0.3188 -0.0376 -0.3875
13092TIP3    H160767   1.264   3.338  16.091  0.4047  0.4699 -0.0553
13092TIP3    H260768   1.301   3.328  16.237 -0.8587 -2.1990  0.1028
13093TIP3   OH260769   3.289   0.841  10.934 -0.3278 -0.0772 -0.1295
13093TIP3    H160770   3.196   0.854  10.915 -0.3027 -1.4742 -1.3302
13093TIP3    H260771   3.329   0.828  10.848  1.2804  2.1905  0.2140
13094TIP3   OH260772   4.192   5.799   1.895  0.7854 -0.0404  0.8739
13094TIP3    H160773   4.167   5.878   1.849  0.7336 -0.1836  0.6543
13094TIP3    H260774   4.132   5.794   1.970  0.0474 -0.4781  0.2517
13095TIP3   OH260775   1.444   1.913  16.541 -0.0325 -0.4981 -1.4845
13095TIP3    H160776   1.356   1.929  16.575  0.4253 -0.3289 -0.3804
13095TIP3    H260777   1.432   1.845  16.474 -1.0599 -0.1584 -1.6489
13096TIP3   OH260778   5.032   5.879  14.521 -0.2049  0.2189 -0.2318
13096TIP3    H160779   5.057   5.949  14.582  0.6530 -0.6077  0.3837
13096TIP3    H260780   5.078   5.900  14.440  0.3793  0.1526  0.0810
13097TIP3   OH260781   5.026   2.434   2.879 -0.4620  0.2647 -0.7284
13097TIP3    H160782   4.964   2.383   2.930 -0.7387 -0.7274 -2.0183
13097TIP3    H260783   5.110   2.389   2.891 -0.2847  0.7480 -0.1599
13098TIP3   OH260784   3.984   6.363  14.925 -0.7008 -0.1509  0.6533
13098TIP3    H160785   3.978   6.427  14.996 -0.5407  0.6459 -0.0529
13098TIP3    H260786   4.027   6.410  14.853  1.9613 -1.8619  1.0667
13099TIP3   OH260787   2.178   6.222   3.350 -0.3668  0.0354 -0.2363
13099TIP3    H160788   2.268   6.228   3.320 -0.4954 -1.4173 -0.9577
13099TIP3    H260789   2.170   6.133   3.383 -1.0821  0.6645  1.3493
13100TIP3   OH260790   0.930   6.373  16.795 -0.4048  0.1314  0.0358
13100TIP3    H160791   0.842   6.344  16.821 -0.5805 -1.5975 -2.3191
13100TIP3    H260792   0.965   6.300  16.744  0.8450  2.4335 -2.4812
13101TIP3   OH260793   6.081   5.361  15.102  0.4804  0.9172  0.4070
13101TIP3    H160794   6.050   5.451  15.091  0.0028  0.5888 -1.0682
13101TIP3    H260795   6.006   5.315  15.140  0.0880  0.7454 -0.5538
13102TIP3   OH260796   3.846   0.432   6.644  0.4757 -0.3972  0.6272
13102TIP3    H160797   3.833   0.403   6.734  1.4595 -0.0702  0.8790
13102TIP3    H260798   3.930   0.395   6.618 -0.4867 -1.7244 -0.6684
13103TIP3   OH260799   3.239   3.456  10.627  0.0656 -0.3562 -0.0561
13103TIP3    H160800   3.207   3.421  10.544  0.8701  2.1535 -1.4842
13103TIP3    H260801   3.203   3.398  10.694 -1.4926 -1.7695 -2.0873
13104TIP3   OH260802   2.603   4.601  17.132 -0.4560 -0.2241 -0.5289
13104TIP3    H160803   2.566   4.654  17.062 -0.6748  0.8827  0.4002
13104TIP3    H260804   2.684   4.566  17.095  0.9334  2.6963 -0.4129
13105TIP3   OH260805   2.423   6.078  12.003 -0.0133 -0.1266  0.4993
13105TIP3    H160806   2.435   5.997  12.052  4.2826 -1.3736 -2.2760
13105TIP3    H260807   2.493   6.136  12.033 -0.4669  0.9924 -0.5105
13106TIP3   OH260808   0.602   3.717   1.049  0.2201  0.2357  0.0439
13106TIP3    H160809   0.564   3.653   0.989  0.0070  0.0499  0.3751
13106TIP3    H260810   0.529   3.772   1.077  0.5581  1.1927 -0.9349
13107TIP3   OH260811   2.349   2.021   5.173  0.4502  0.4110  0.5492
13107TIP3    H160812   2.367   1.927   5.177  0.1798  0.3459  0.2946
13107TIP3    H260813   2.304   2.041   5.255  0.2457  0.2607  0.4737
13108TIP3   OH260814   3.548   6.012   5.719 -0.1474  0.5138 -0.0038
13108TIP3    H160815   3.529   6.097   5.759 -1.1712 -1.1225  3.2332
13108TIP3    H260816   3.461   5.978   5.695  0.1342 -0.0900 -0.1686
13109TIP3   OH260817   5.900   2.356   4.926  0.1546  0.2662 -0.0173
13109TIP3    H160818   5.879   2.329   5.015  1.1686 -0.5390 -0.0153
13109TIP3    H260819   5.868   2.284   4.871  0.9507  0.0339 -0.1794
13110TIP3   OH260820   1.053   6.803  10.601  0.1300  0.2222  0.0737
13110TIP3    H160821   1.125   6.865  10.606 -1.0028  1.5459  0.4922
13110TIP3    H260822   0.976   6.857  10.580 -0.7280 -1.1547 -0.4677
13111TIP3   OH260823   0.356   3.655   3.958 -0.0532 -0.1033  0.1692
13111TIP3    H160824   0.268   3.650   3.921  0.0006  1.0674 -0.1297
13111TIP3    H260825   0.346   3.705   4.039  0.2324 -0.5635  0.4967
13112TIP3   OH260826   2.842   5.021   2.497 -0.2877 -0.1233  0.6066
13112TIP3    H160827   2.845   5.104   2.450 -1.1058  0.0327  0.8274
13112TIP3    H260828   2.751   5.013   2.526 -0.6968 -2.0671 -1.1440
13113TIP3   OH260829   2.137   0.495   4.708 -0.7987 -0.1470 -0.4154
13113TIP3    H160830   2.221   0.537   4.688  1.2523 -3.4148  0.7982
13113TIP3    H260831   2.077   0.567   4.722  2.6726  2.4438  2.1297
13114TIP3   OH260832   6.639   2.101   0.036 -0.0189 -0.0579 -0.2580
13114TIP3    H160833   6.660   2.008   0.052  1.8423  0.0387 -1.9449
13114TIP3    H260834   6.703   2.149   0.088 -0.0907  0.2775 -0.4763
13115TIP3   OH260835   3.575   5.985   2.989 -0.0794  0.2847 -0.2554
13115TIP3    H160836   3.508   6.035   3.035  2.0032  0.4554  2.6954
13115TIP3    H260837   3.658   6.023   3.018  1.4070 -2.0767 -1.2498
13116TIP3   OH260838   6.580   0.835  17.025 -0.1991  0.2803 -0.5968
13116TIP3    H160839   6.675   0.833  17.034 -0.1974 -0.6932 -0.7415
13116TIP3    H260840   6.565   0.828  16.931 -0.4232 -0.4719 -0.5107
13117TIP3   OH260841   0.337   0.054   4.067  0.0413 -0.4872 -0.0144
13117TIP3    H160842   0.361   0.066   3.975 -0.2991  1.7115  0.1555
13117TIP3    H260843   0.257   0.001   4.065  0.4851 -1.1333 -0.9312
13118TIP3   OH260844   2.846   1.891   5.509  0.0994 -0.4492 -0.3207
13118TIP3    H160845   2.912   1.905   5.442 -0.3324  0.9330 -0.4692
13118TIP3    H260846   2.896   1.871   5.589  0.8068  2.6764  0.0747
13119TIP3   OH260847   3.630   3.201  12.419 -0.5535  0.0323  0.6247
13119TIP3    H160848   3.571   3.133  12.384 -0.2151  0.0736 -0.0204
13119TIP3    H260849   3.573   3.277  12.431 -0.1487  0.8621 -2.3598
13120TIP3   OH260850   4.879   3.801  15.369 -0.4608  0.1095 -0.0548
13120TIP3    H160851   4.893   3.893  15.347  1.1940 -0.1997 -0.3501
13120TIP3    H260852   4.815   3.803  15.440 -1.8446  1.3894 -1.3063
13121TIP3   OH260853   6.515   5.769  15.131  0.2928  0.0463  0.4058
13121TIP3    H160854   6.609   5.784  15.142  0.1753  1.9093 -0.8505
13121TIP3    H260855   6.476   5.803  15.212  0.8616 -2.9220  1.9798
13122TIP3   OH260856   5.015   3.707   3.469 -0.1362 -0.5239 -0.8473
13122TIP3    H160857   4.958   3.735   3.398  1.4681  0.3551 -1.8121
13122TIP3    H260858   4.960   3.650   3.523 -2.8267  2.5672 -0.1476
13123TIP3   OH260859   2.588   0.487  12.102  0.1516  0.1352 -0.4180
13123TIP3    H160860   2.682   0.489  12.119 -0.2320 -0.7014  1.9791
13123TIP3    H260861   2.549   0.532  12.177 -1.4008  0.0958 -1.1770
13124TIP3   OH260862   1.410   1.115  12.760 -0.3443 -0.1919  0.4157
13124TIP3    H160863   1.435   1.026  12.784  2.2517  0.4203  0.0688
13124TIP3    H260864   1.354   1.144  12.833  1.2085 -1.0603  1.9879
13125TIP3   OH260865   3.285   3.045  10.673  0.5157  0.2800  0.1296
13125TIP3    H160866   3.362   3.006  10.631  0.8139  0.6465  0.3348
13125TIP3    H260867   3.210   3.002  10.631  0.8583 -1.2295  1.0627
13126TIP3   OH260868   0.323   6.804   5.776  0.1305  0.2282 -0.1684
13126TIP3    H160869   0.295   6.759   5.696 -0.0297  1.7876 -1.0059
13126TIP3    H260870   0.405   6.846   5.752  0.4348  0.1284  0.7033
13127TIP3   OH260871   0.842   6.746  13.325 -0.4192  0.4263  0.3267
13127TIP3    H160872   0.853   6.717  13.235 -0.7388 -0.0153  0.4235
13127TIP3    H260873   0.911   6.702  13.374  0.9958  2.1993 -0.0124
13128TIP3   OH260874   0.087   0.015   2.958 -0.6755 -0.4065 -0.3966
13128TIP3    H160875   0.075   0.102   2.920 -2.0719 -1.0183 -1.3666
13128TIP3    H260876  -0.001  -0.017   2.973 -0.1854 -2.0103 -0.8559
13129TIP3   OH260877   6.001   3.250   0.080  0.2028  0.7500 -0.2869
13129TIP3    H160878   5.984   3.224   0.170  1.0732 -0.5735 -0.4936
13129TIP3    H260879   6.060   3.325   0.088  0.0369  0.8251  0.2567
13130TIP3   OH260880   3.941   2.759  13.254 -0.9909  0.1791  0.0117
13130TIP3    H160881   3.931   2.672  13.216  1.7012 -0.0807 -0.2212
13130TIP3    H260882   3.962   2.743  13.346 -1.1986  0.5876  0.1308
13131TIP3   OH260883   3.315   3.042   2.386 -0.1865  0.3570 -0.1732
13131TIP3    H160884   3.351   2.961   2.422 -0.5614  0.3931  0.2942
13131TIP3    H260885   3.334   3.038   2.292  0.2338 -0.0385 -0.0689
13132TIP3   OH260886   1.190   1.508   2.088  0.1839 -0.4599 -0.1053
13132TIP3    H160887   1.140   1.526   2.008 -0.7863 -1.0524  0.3645
13132TIP3    H260888   1.168   1.418   2.110  0.8131 -0.4460  0.5815
13133TIP3   OH260889   2.957   2.858   2.746  0.0549 -0.1732 -0.0520
13133TIP3    H160890   2.999   2.909   2.816  0.3773  0.4333 -0.6894
13133TIP3    H260891   3.022   2.854   2.676 -0.0979 -1.1750 -0.1503
13134TIP3   OH260892   4.847   2.152  11.183  0.3864  0.4341  0.3518
13134TIP3    H160893   4.826   2.141  11.275  1.8867  3.6436  1.1608
13134TIP3    H260894   4.762   2.156  11.139 -0.3523 -0.5981  1.6684
13135TIP3   OH260895   3.071   5.287   1.774 -0.0044 -0.1448 -0.0902
13135TIP3    H160896   3.093   5.364   1.826 -0.6138  0.5938 -0.9093
13135TIP3    H260897   3.134   5.287   1.702 -0.3209 -0.1112 -0.3735
13136TIP3   OH260898   2.425   5.423   1.992  0.0729 -0.3404  0.8998
13136TIP3    H160899   2.476   5.487   2.042 -2.1860  1.9357  0.3809
13136TIP3    H260900   2.360   5.390   2.054 -0.5821 -0.0133  0.3918
13137TIP3   OH260901   6.653   3.453   0.217 -0.2516 -0.1642 -0.0267
13137TIP3    H160902   6.625   3.393   0.148 -1.2135 -0.1554  0.3448
13137TIP3    H260903   6.692   3.527   0.171  0.8768 -1.0430 -0.4891
13138TIP3   OH260904   3.291   3.934   0.799 -0.3975  0.4270 -0.1105
13138TIP3    H160905   3.343   3.977   0.867 -1.0632  1.4052 -0.2138
13138TIP3    H260906   3.202   3.931   0.835 -0.5496  0.0375 -0.5133
13139TIP3   OH260907   0.601   4.878   3.981  0.3968 -0.4971 -0.2928
13139TIP3    H160908   0.532   4.945   3.978  0.6023 -0.2109  1.0460
13139TIP3    H260909   0.554   4.795   3.987  0.1523 -0.3943 -0.7957
13140TIP3   OH260910   1.700   0.131  14.795 -0.1388 -0.7493 -0.0155
13140TIP3    H160911   1.674   0.165  14.709 -3.2408 -0.2508  1.0476
13140TIP3    H260912   1.668   0.040  14.794 -0.5899 -0.5984  0.7703
13141TIP3   OH260913   2.844   0.756   4.871 -0.2390  0.4517 -0.3531
13141TIP3    H160914   2.801   0.819   4.928  1.2404  0.7358  0.4969
13141TIP3    H260915   2.917   0.723   4.924 -0.9187 -1.8920 -0.8164
13142TIP3   OH260916   2.154   3.621  10.350 -0.1862  0.1718 -0.2924
13142TIP3    H160917   2.140   3.527  10.346  0.0172  0.0516  1.5246
13142TIP3    H260918   2.249   3.631  10.361 -0.4561  0.4912  1.9126
13143TIP3   OH260919   4.715   4.097  14.067  0.1420  0.0502  0.1234
13143TIP3    H160920   4.788   4.082  14.007  0.1353 -0.0535  0.1415
13143TIP3    H260921   4.750   4.073  14.153 -0.3053 -1.2064 -0.0366
13144TIP3   OH260922   3.418   4.004   1.930  0.0330 -0.2007 -0.2208
13144TIP3    H160923   3.325   4.009   1.909  0.4412  4.2723 -1.6687
13144TIP3    H260924   3.461   4.000   1.844  1.2693  3.8112  0.0901
13145TIP3   OH260925   4.051   3.861  13.745 -0.0237 -0.3285  0.0094
13145TIP3    H160926   4.000   3.782  13.728 -0.8177  0.4140 -1.0942
13145TIP3    H260927   4.018   3.926  13.683  2.1762  0.2127 -0.6552
13146TIP3   OH260928   0.788   1.870  13.223  0.6396 -0.1650 -0.1654
13146TIP3    H160929   0.723   1.889  13.155 -0.6476 -0.3856  0.9714
13146TIP3    H260930   0.780   1.942  13.285 -0.0435 -1.2670  1.0688
13147TIP3   OH260931   4.354   4.241   1.304  0.9601 -0.3561  0.4540
13147TIP3    H160932   4.358   4.278   1.216  0.3908  0.0845  0.6041
13147TIP3    H260933   4.260   4.241   1.325  1.2082  1.0554  1.6902
13148TIP3   OH260934   2.960   5.651   3.093 -0.4315  0.4229 -0.1547
13148TIP3    H160935   2.966   5.742   3.064  1.8035 -0.1658 -1.6331
13148TIP3    H260936   2.885   5.650   3.153 -0.2756  3.2997  0.1506
13149TIP3   OH260937   3.719   4.244   0.488  0.0860 -0.2460 -0.2185
13149TIP3    H160938   3.714   4.339   0.502 -0.2866 -0.2541 -0.2970
13149TIP3    H260939   3.685   4.231   0.400 -1.3433 -0.6126  0.3788
13150TIP3   OH260940   4.352   4.251  13.496 -0.2845 -0.0101  0.4209
13150TIP3    H160941   4.378   4.213  13.580  0.5981  3.3261  1.7592
13150TIP3    H260942   4.421   4.315  13.477 -2.3485  1.8525 -1.0351
13151TIP3   OH260943   4.212   1.160  15.830 -0.7564 -0.2328  0.1325
13151TIP3    H160944   4.135   1.111  15.859 -0.2982 -0.4002  1.0790
13151TIP3    H260945   4.214   1.147  15.735 -2.2746  0.3237 -0.0008
13152TIP3   OH260946   0.092   5.941   2.106 -1.0287 -0.4116  0.0474
13152TIP3    H160947   0.107   6.011   2.043  0.6371  2.3593  3.3712
13152TIP3    H260948   0.179   5.906   2.124 -1.6258 -2.0264 -0.0632
13153TIP3   OH260949   3.886   1.139  15.450  0.3131 -0.3089 -0.0001
13153TIP3    H160950   3.868   1.059  15.401 -1.1529 -0.4206  0.7031
13153TIP3    H260951   3.981   1.138  15.464  0.6452 -0.6587 -2.1538
13154TIP3   OH260952   4.785   2.170  16.503 -0.4955 -0.3047  0.2182
13154TIP3    H160953   4.735   2.122  16.569 -0.3183 -1.7511 -0.6762
13154TIP3    H260954   4.738   2.153  16.421  0.6583 -0.5376 -0.4080
13155TIP3   OH260955   3.916   1.747  15.354  0.0576 -0.6990 -0.0137
13155TIP3    H160956   3.897   1.823  15.299  0.8898 -0.7499 -0.3748
13155TIP3    H260957   3.837   1.735  15.407 -0.7716 -0.6862 -1.2353
13156TIP3   OH260958   6.800   3.557   2.202 -0.1527 -0.2694  0.1597
13156TIP3    H160959   6.781   3.498   2.130 -1.0076  2.2751 -1.7474
13156TIP3    H260960   6.764   3.641   2.175  1.5056  1.2844  2.5680
13157TIP3   OH260961   2.380   4.257   1.708  0.3810  0.1638  0.4434
13157TIP3    H160962   2.311   4.277   1.645 -0.4807 -2.2614  0.5531
13157TIP3    H260963   2.409   4.342   1.740 -1.8917  1.2649 -0.3291
13158TIP3   OH260964   3.293   0.116  10.818  0.2024  0.0307  0.3854
13158TIP3    H160965   3.335   0.113  10.732  0.5116 -0.8853  0.5660
13158TIP3    H260966   3.209   0.072  10.805  0.7585 -1.1857  0.8274
13159TIP3   OH260967   1.553   3.498  11.339 -0.0732  0.5790  0.1618
13159TIP3    H160968   1.467   3.523  11.306  0.1929 -0.4808 -1.4293
13159TIP3    H260969   1.536   3.447  11.417 -0.9412 -0.4039 -0.6625
13160TIP3   OH260970   4.440   5.107   1.592 -0.0753 -0.3946  0.4445
13160TIP3    H160971   4.515   5.161   1.569 -1.2763  0.4709 -1.6315
13160TIP3    H260972   4.397   5.155   1.664 -0.7216  1.0822 -0.8939
13161TIP3   OH260973   5.449   5.089   6.183  0.2351  0.0638 -0.4035
13161TIP3    H160974   5.360   5.059   6.165  0.1155  0.4705 -0.4966
13161TIP3    H260975   5.438   5.169   6.234  0.5087  1.2330 -2.1169
13162TIP3   OH260976   2.616   5.761   4.474  0.2205  1.1396 -0.0314
13162TIP3    H160977   2.613   5.682   4.419 -0.4512  1.4115 -0.3893
13162TIP3    H260978   2.599   5.730   4.562  0.1737  0.8554 -0.1400
13163TIP3   OH260979   6.767   4.917  15.310  0.1250 -0.4580  0.5188
13163TIP3    H160980   6.806   4.992  15.265  0.7287 -1.8904 -1.4057
13163TIP3    H260981   6.678   4.912  15.274 -0.5781  0.4950  2.0888
13164TIP3   OH260982   1.298   6.466   4.034  0.1432  0.3233  0.2192
13164TIP3    H160983   1.256   6.398   3.981  1.0936  1.4189 -1.9705
13164TIP3    H260984   1.392   6.453   4.020  0.3275  2.1707 -0.3286
13165TIP3   OH260985   0.868   6.371  10.803  0.0661 -0.3925  0.4377
13165TIP3    H160986   0.931   6.441  10.786  0.3064  0.0422  2.9733
13165TIP3    H260987   0.921   6.293  10.818  0.0244 -0.0546  2.4423
13166TIP3   OH260988   2.785   2.953  13.626 -0.0392  0.6763 -0.0611
13166TIP3    H160989   2.779   2.956  13.722 -0.8104 -1.6421 -0.0016
13166TIP3    H260990   2.695   2.971  13.597 -0.3725 -1.1533 -0.2385
13167TIP3   OH260991   2.346   1.396   2.290 -0.0556 -0.1219 -0.0760
13167TIP3    H160992   2.366   1.470   2.232 -0.8728 -0.3443 -0.6477
13167TIP3    H260993   2.429   1.379   2.335  0.0658  1.3592  0.3147
13168TIP3   OH260994   1.142   6.189  14.211  0.2222  0.0188 -1.0153
13168TIP3    H160995   1.150   6.183  14.307 -1.7912  0.4690 -0.7893
13168TIP3    H260996   1.133   6.282  14.194  0.5742 -0.0644 -1.6370
13169TIP3   OH260997   3.341   6.737  15.037  0.2589  0.2484  0.3831
13169TIP3    H160998   3.307   6.695  14.958  1.0561  3.0295 -1.5280
13169TIP3    H260999   3.347   6.830  15.013  1.4590  0.9819  3.4001
13170TIP3   OH261000   0.370   4.745  11.027 -0.2483  0.0519 -0.0510
13170TIP3    H161001   0.370   4.680  11.097 -1.2788  0.3328  0.2230
13170TIP3    H261002   0.405   4.700  10.951 -1.1155 -0.8772  0.0938
13171TIP3   OH261003   0.055   0.250  10.805  0.8050  0.5723  0.4282
13171TIP3    H161004   0.025   0.161  10.826 -2.6335  1.4317 -0.5012
13171TIP3    H261005   0.034   0.301  10.883  0.1846  1.1318 -0.1086
13172TIP3   OH261006   1.215   1.519  13.192  0.8814  0.1863  0.4151
13172TIP3    H161007   1.174   1.605  13.183  0.0560 -0.1586  0.8402
13172TIP3    H261008   1.203   1.477  13.107  1.0656  0.3926  0.2877
13173TIP3   OH261009   1.560   3.009  15.805 -0.0216 -0.5944  0.1631
13173TIP3    H161010   1.556   3.043  15.894  1.6524  1.1216 -0.3906
13173TIP3    H261011   1.648   3.031  15.774 -0.3012 -1.8554 -1.6450
13174TIP3   OH261012   5.912   1.154  13.912  0.2451 -0.2156 -0.2317
13174TIP3    H161013   5.929   1.233  13.963  3.0951 -1.2976  0.6102
13174TIP3    H261014   5.908   1.084  13.978  0.7411 -1.1832 -1.2166
13175TIP3   OH261015   4.849   4.419   5.070  0.1887 -0.1022 -0.2646
13175TIP3    H161016   4.807   4.338   5.040  1.2858 -0.9290  0.3544
13175TIP3    H261017   4.807   4.439   5.154 -0.2906  0.1404 -0.5601
13176TIP3   OH261018   1.667   3.067  11.311 -0.7096  0.5615  0.1677
13176TIP3    H161019   1.678   3.153  11.271 -0.0363  0.0812 -0.6882
13176TIP3    H261020   1.749   3.053  11.359 -0.4561  0.0226 -0.4161
13177TIP3   OH261021   5.544   0.599  16.875  0.2475  0.1593 -0.3078
13177TIP3    H161022   5.449   0.595  16.875  0.2733 -0.4268 -1.4223
13177TIP3    H261023   5.572   0.539  16.806  1.3294  2.4585 -1.9594
13178TIP3   OH261024   0.028   5.593  15.771 -0.2753  0.8745  0.4693
13178TIP3    H161025  -0.037   5.533  15.734 -0.2456  1.9716 -1.4039
13178TIP3    H261026  -0.024   5.655  15.822 -0.5913  1.0435 -0.0551
13179TIP3   OH261027   0.019   2.084   7.014 -0.1070 -0.5883  0.1991
13179TIP3    H161028   0.057   2.043   6.936  0.4973 -0.2932  0.3375
13179TIP3    H261029  -0.065   2.119   6.984 -0.1923 -1.0868 -0.1489
13180TIP3   OH261030   3.639   6.114  13.321 -0.1272 -0.2505 -0.0977
13180TIP3    H161031   3.730   6.140  13.305  0.1088 -1.2902 -0.4598
13180TIP3    H261032   3.638   6.020  13.307 -1.5493 -0.0493 -1.3930
13181TIP3   OH261033   5.591   1.281   3.613  0.2634  0.5756 -0.7854
13181TIP3    H161034   5.530   1.355   3.608 -2.1342 -1.3928 -1.3496
13181TIP3    H261035   5.622   1.270   3.523  0.7306  0.9803 -0.6746
13182TIP3   OH261036   2.773   5.712  12.561  0.3391 -0.7418  0.0767
13182TIP3    H161037   2.778   5.735  12.654 -0.7477  2.3665 -0.5875
13182TIP3    H261038   2.824   5.780  12.517 -1.4459 -0.6144 -1.8473
13183TIP3   OH261039   0.191   5.029  12.349 -0.0049 -0.9623 -0.5837
13183TIP3    H161040   0.259   4.971  12.382  1.0118  1.6295  2.1099
13183TIP3    H261041   0.210   5.039  12.256  0.5716 -3.7987 -0.8127
13184TIP3   OH261042   6.453   5.973   5.191  0.5945 -0.0906 -0.3416
13184TIP3    H161043   6.518   5.983   5.121  0.6026  0.4989 -0.2541
13184TIP3    H261044   6.436   6.062   5.220 -1.0175 -0.1535 -1.0518
13185TIP3   OH261045   3.619   2.548  12.776  0.6500  0.5778 -0.2067
13185TIP3    H161046   3.691   2.607  12.754  0.6419  0.0260 -1.8067
13185TIP3    H261047   3.641   2.466  12.733  0.6017 -0.5765  1.9011
13186TIP3   OH261048   4.880   5.005   1.934  0.6111 -0.7233 -0.0853
13186TIP3    H161049   4.913   5.061   2.004  2.1464 -1.2232 -0.3709
13186TIP3    H261050   4.823   5.061   1.882  2.1094  0.5816 -0.3663
13187TIP3   OH261051   5.230   5.570  16.108  0.1232 -0.0705  0.1130
13187TIP3    H161052   5.175   5.508  16.156 -0.7525 -0.2658 -1.1253
13187TIP3    H261053   5.260   5.632  16.175 -2.7701  0.8907  0.5836
13188TIP3   OH261054   4.909   1.063  15.278 -0.0144  0.3792  0.1287
13188TIP3    H161055   4.892   1.150  15.315 -2.0157  0.2050 -0.3339
13188TIP3    H261056   4.822   1.025  15.266  0.8311 -1.4590 -0.2324
13189TIP3   OH261057   0.904   0.694   1.224 -0.6247 -0.0866  0.3487
13189TIP3    H161058   0.945   0.676   1.139 -0.3633  0.7963  0.2749
13189TIP3    H261059   0.812   0.710   1.203 -0.8088 -1.0591  0.3866
13190TIP3   OH261060   0.813   6.532   2.014 -0.1246 -0.0773  0.1528
13190TIP3    H161061   0.727   6.541   2.057 -0.1470  0.5371 -0.0224
13190TIP3    H261062   0.849   6.620   2.014 -0.4128  0.0447 -1.7200
13191TIP3   OH261063   4.017   3.207   2.807  0.9554  0.3031  0.6437
13191TIP3    H161064   4.059   3.158   2.736 -1.3901  2.0548 -2.0743
13191TIP3    H261065   3.985   3.139   2.866 -0.6003 -1.4396 -2.0891
13192TIP3   OH261066   1.692   1.101  16.610 -0.0999 -0.2638 -0.4520
13192TIP3    H161067   1.611   1.136  16.572 -0.7873 -2.1345 -0.7933
13192TIP3    H261068   1.713   1.160  16.681 -1.9783  0.0704 -0.1539
13193TIP3   OH261069   3.471   6.607   4.062  0.1973 -0.3572 -0.0708
13193TIP3    H161070   3.380   6.585   4.044 -0.0161  0.5633 -0.1497
13193TIP3    H261071   3.509   6.526   4.097 -0.6691 -0.7174  0.0553
13194TIP3   OH261072   6.611   4.138   5.333 -0.3386 -0.3263  0.1807
13194TIP3    H161073   6.527   4.097   5.356 -0.8045  0.9118  0.7403
13194TIP3    H261074   6.613   4.137   5.238 -1.1415 -0.0845  0.1540
13195TIP3   OH261075   4.434   4.838   0.995  0.2488  0.0246 -0.1494
13195TIP3    H161076   4.408   4.832   1.087  0.2662  0.5867 -0.1034
13195TIP3    H261077   4.352   4.834   0.946  0.1566  0.6322 -0.0597
13196TIP3   OH261078   4.319   6.720  15.974 -0.2849  0.4454 -0.3676
13196TIP3    H161079   4.407   6.748  15.998  0.1253 -0.7903 -0.3867
13196TIP3    H261080   4.333   6.650  15.910 -1.3027  1.1054 -1.3492
13197TIP3   OH261081   3.564   6.434  13.845  0.0639 -0.2577  0.1401
13197TIP3    H161082   3.533   6.438  13.754 -0.7455 -0.0815  0.4196
13197TIP3    H261083   3.575   6.341  13.862 -0.4214 -0.3285  0.0719
13198TIP3   OH261084   6.193   2.458   6.150  0.1665  0.2451 -0.1067
13198TIP3    H161085   6.154   2.544   6.137  0.5458  0.2432 -1.2620
13198TIP3    H261086   6.263   2.473   6.214 -0.0534  0.7040  0.0254
13199TIP3   OH261087   3.443   5.122   4.777  0.8581 -0.6131 -0.5008
13199TIP3    H161088   3.348   5.116   4.789  0.8648 -0.8997 -0.5905
13199TIP3    H261089   3.455   5.180   4.702  0.7490 -0.8219 -0.6753
13200TIP3   OH261090   0.594   0.233   4.450  0.3224 -0.4457 -0.6655
13200TIP3    H161091   0.574   0.231   4.357  2.2988 -2.6097 -1.1013
13200TIP3    H261092   0.566   0.147   4.483 -1.8869  0.9026  1.1075
13201TIP3   OH261093   3.329   0.494  13.028  0.5156 -0.3518  0.0591
13201TIP3    H161094   3.238   0.504  13.056  0.5558 -0.3487  0.1870
13201TIP3    H261095   3.374   0.462  13.106  0.7839  0.4295  0.2259
13202TIP3   OH261096   6.666   1.886  15.170  0.2018 -0.0219  0.6179
13202TIP3    H161097   6.707   1.972  15.180 -1.6839  1.0589 -0.6504
13202TIP3    H261098   6.720   1.840  15.107  1.5129  0.0256  1.6829
13203TIP3   OH261099   3.818   5.184   3.915 -0.0463  0.6639  0.1568
13203TIP3    H161100   3.783   5.251   3.856  1.8733  0.2931 -1.4620
13203TIP3    H261101   3.873   5.129   3.859 -1.9457 -2.5824  1.3429
13204TIP3   OH261102   2.295   3.467   2.365  0.6087  0.0893 -0.4528
13204TIP3    H161103   2.344   3.394   2.403 -0.8720 -1.2694 -1.0737
13204TIP3    H261104   2.211   3.428   2.339 -1.0693  2.4832  1.1777
13205TIP3   OH261105   6.586   1.813   1.804  0.0405 -0.1704 -0.2800
13205TIP3    H161106   6.525   1.788   1.734 -1.0846  0.4533  0.4586
13205TIP3    H261107   6.551   1.772   1.883  0.8322 -0.1665  0.0832
13206TIP3   OH261108   5.477   4.126  15.041 -0.3250 -0.3344  0.1005
13206TIP3    H161109   5.436   4.165  14.963  0.1544  1.5048  0.7451
13206TIP3    H261110   5.546   4.069  15.006  0.8547  1.6095 -0.8092
13207TIP3   OH261111   1.830   3.522  14.214  0.4947 -0.4162  0.1855
13207TIP3    H161112   1.764   3.502  14.148  1.7467 -0.4110 -1.0870
13207TIP3    H261113   1.785   3.509  14.298 -0.8417 -1.3010 -0.6533
13208TIP3   OH261114   0.444   0.955   1.903 -0.0545  0.1849  0.2369
13208TIP3    H161115   0.468   1.048   1.908 -0.1508  0.1920  0.5463
13208TIP3    H261116   0.387   0.941   1.978 -1.9339  0.4353 -1.0843
13209TIP3   OH261117   3.736   5.258   5.423  0.1244  0.3590  0.5481
13209TIP3    H161118   3.654   5.306   5.430  0.9605  1.9029  0.0256
13209TIP3    H261119   3.757   5.234   5.514 -0.4898  0.6406  0.7667
13210TIP3   OH261120   1.624   3.055   5.216  0.6660 -0.3836 -0.5795
13210TIP3    H161121   1.604   3.145   5.190 -0.8325 -1.0870 -1.9843
13210TIP3    H261122   1.702   3.032   5.166  0.8828  0.0440 -0.4378
13211TIP3   OH261123   2.304   6.127   3.816  0.3623  0.2781 -0.4397
13211TIP3    H161124   2.373   6.162   3.760 -0.3080  0.1566 -1.3474
13211TIP3    H261125   2.347   6.113   3.901  1.2082  1.1066 -0.7194
13212TIP3   OH261126   1.947   2.918   1.723  0.3107  0.7232  0.2769
13212TIP3    H161127   1.929   2.995   1.776  0.9956  1.0939 -0.0201
13212TIP3    H261128   2.032   2.936   1.682 -0.4534  0.6933 -1.3784
13213TIP3   OH261129   1.131   3.185  16.780  0.1541 -0.0129 -0.1661
13213TIP3    H161130   1.154   3.243  16.708 -1.1597 -2.7678 -2.9867
13213TIP3    H261131   1.035   3.180  16.777  0.0540  0.1193  2.0354
13214TIP3   OH261132   3.499   0.603   6.294  0.4488  0.0088  0.3734
13214TIP3    H161133   3.576   0.628   6.345 -0.0739 -0.7100  1.5360
13214TIP3    H261134   3.444   0.682   6.294 -0.0042 -0.2818  1.8052
13215TIP3   OH261135   2.200   1.194  13.271  0.2026  0.4835  0.1541
13215TIP3    H161136   2.186   1.143  13.191 -0.4659  0.3040  0.3772
13215TIP3    H261137   2.142   1.269  13.262  0.0715  0.4245  0.5017
13216TIP3   OH261138   4.806   1.873  14.301 -0.1121 -0.0581 -0.2441
13216TIP3    H161139   4.787   1.795  14.248 -0.4813  2.0584 -3.3029
13216TIP3    H261140   4.730   1.929  14.290  0.7702  1.3728  0.7511
13217TIP3   OH261141   1.364   0.960   1.833  0.7405 -0.3547  0.0024
13217TIP3    H161142   1.281   0.974   1.788  0.9973  2.7645  0.4513
13217TIP3    H261143   1.339   0.945   1.924  0.7258  2.3416  0.4760
13218TIP3   OH261144   4.046   2.573   3.850 -0.8745 -0.3871  0.2495
13218TIP3    H161145   4.004   2.654   3.881 -1.0032 -0.4264  0.1796
13218TIP3    H261146   4.133   2.600   3.822 -0.5998 -0.4237  1.0499
13219TIP3   OH261147   1.919   0.787   2.375  0.1173  0.3115 -0.8906
13219TIP3    H161148   1.973   0.812   2.300 -0.0108  2.0764 -0.4120
13219TIP3    H261149   1.882   0.869   2.406 -0.8740 -0.5806  0.3090
13220TIP3   OH261150   3.422   3.325   3.977  0.0331 -0.1793  0.2217
13220TIP3    H161151   3.436   3.242   3.933  2.4460 -2.2894  4.5630
13220TIP3    H261152   3.354   3.307   4.042  1.5419  0.8081  2.1378
13221TIP3   OH261153   1.489   1.899  10.444  0.1756 -0.4128 -0.1577
13221TIP3    H161154   1.494   1.988  10.409  1.1208 -1.2097 -2.1517
13221TIP3    H261155   1.555   1.897  10.513  0.3823  0.3396 -0.3256
13222TIP3   OH261156   1.387   4.388  12.208 -0.6440  0.4764 -0.1125
13222TIP3    H161157   1.359   4.362  12.296 -0.3475  1.0814  0.1627
13222TIP3    H261158   1.308   4.379  12.155 -0.6640 -0.5188  0.0710
13223TIP3   OH261159   4.548   2.381   2.459  0.4382  0.1497  0.0928
13223TIP3    H161160   4.495   2.377   2.379 -0.5309  2.5175  0.5844
13223TIP3    H261161   4.630   2.422   2.432  0.7521 -0.5527 -0.0181
13224TIP3   OH261162   4.361   1.233  14.161  0.4292 -0.5498 -0.0844
13224TIP3    H161163   4.389   1.162  14.102  3.3129  0.5266 -0.0899
13224TIP3    H261164   4.320   1.297  14.103 -0.7674 -1.4858 -0.2943
13225TIP3   OH261165   0.379   3.213  15.989 -0.0170  0.2956  0.3326
13225TIP3    H161166   0.300   3.255  15.955 -0.0761 -0.3342 -0.3329
13225TIP3    H261167   0.413   3.163  15.914  1.4192  1.1535  0.3975
13226TIP3   OH261168   3.116   0.338   3.569  0.5525 -0.0856  0.0285
13226TIP3    H161169   3.181   0.323   3.500 -0.4530 -0.6476 -0.8122
13226TIP3    H261170   3.037   0.294   3.537 -0.6838  1.8555  0.3273
13227TIP3   OH261171   2.445   0.799   5.450  0.1277 -0.2784 -0.1061
13227TIP3    H161172   2.358   0.836   5.464  0.9483  1.8518 -0.4161
13227TIP3    H261173   2.490   0.812   5.534 -0.0407 -1.9862  0.2724
13228TIP3   OH261174   4.682   4.376   5.590 -0.2854 -0.0291 -0.7992
13228TIP3    H161175   4.747   4.389   5.521 -1.0662 -0.0589 -1.5449
13228TIP3    H261176   4.706   4.293   5.632  0.1914 -0.0043 -1.0284
13229TIP3   OH261177   1.472   5.175   5.829 -0.2805 -0.3117  0.5729
13229TIP3    H161178   1.484   5.269   5.842 -1.8024 -0.1035  0.6645
13229TIP3    H261179   1.423   5.146   5.906 -0.7882 -0.9589  0.0203
13230TIP3   OH261180   5.242   0.397  11.526 -0.5820 -0.4070  0.1416
13230TIP3    H161181   5.198   0.480  11.543 -2.0955 -1.2308  0.2637
13230TIP3    H261182   5.179   0.345  11.477  0.7977 -1.0535 -1.0019
13231TIP3   OH261183   0.829   1.834   0.216 -0.3731 -0.2492  0.2989
13231TIP3    H161184   0.748   1.800   0.179 -0.7451  0.1234  0.7718
13231TIP3    H261185   0.898   1.783   0.174 -0.6116  1.9688 -2.9645
13232TIP3   OH261186   0.410   1.471  14.663  0.5789 -0.3539  0.2470
13232TIP3    H161187   0.386   1.433  14.748 -1.0972  0.2132  0.0554
13232TIP3    H261188   0.327   1.476  14.615  0.9527  2.2617 -0.2409
13233TIP3   OH261189   6.597   6.466   2.510 -0.4309  0.2799 -0.3324
13233TIP3    H161190   6.624   6.528   2.578  1.2263  1.2953 -1.8746
13233TIP3    H261191   6.648   6.387   2.528 -1.1132  0.0289  0.4984
13234TIP3   OH261192   0.821   6.107  13.361  0.1783  0.8200  0.6847
13234TIP3    H161193   0.809   6.159  13.441  0.8160  0.3211  1.1127
13234TIP3    H261194   0.733   6.085  13.333 -0.1645  3.1170 -0.1644
13235TIP3   OH261195   0.714   5.149  14.795  0.1739  0.1084 -0.7786
13235TIP3    H161196   0.676   5.155  14.883 -0.0994 -0.4525 -0.8545
13235TIP3    H261197   0.649   5.188  14.737  0.1781  0.1153 -0.7777
13236TIP3   OH261198   4.628   1.106  17.051  0.3471  0.2629 -0.2432
13236TIP3    H161199   4.630   1.098  16.956 -0.1268  1.3549 -0.3554
13236TIP3    H261200   4.613   1.199  17.067 -1.1535 -0.1398  0.8744
13237TIP3   OH261201   5.535   3.414   5.898  0.1375  0.9279  0.9064
13237TIP3    H161202   5.607   3.475   5.914  0.9831  0.1353  0.2505
13237TIP3    H261203   5.527   3.410   5.803 -1.6281  1.9554  0.9927
13238TIP3   OH261204   2.634   4.575  12.005 -0.1411  0.3039  0.2827
13238TIP3    H161205   2.678   4.523  11.938  0.2501  1.2209 -0.1917
13238TIP3    H261206   2.691   4.652  12.016 -0.9500  0.8609  0.6210
13239TIP3   OH261207   0.651   5.538  17.074  0.2323  0.5026 -0.3882
13239TIP3    H161208   0.650   5.633  17.088 -1.8494  0.6389 -1.2569
13239TIP3    H261209   0.724   5.523  17.014  1.1095  1.4403  0.4214
13240TIP3   OH261210   2.344   1.325   0.635  0.0185  0.0203  0.3821
13240TIP3    H161211   2.294   1.333   0.554  0.4756 -1.9226 -0.1106
13240TIP3    H261212   2.436   1.325   0.607  0.1688 -1.0948  0.8333
13241TIP3   OH261213   0.864   3.257  12.722 -0.4713 -0.0168  0.5127
13241TIP3    H161214   0.790   3.235  12.778 -1.5200  0.6648 -0.5701
13241TIP3    H261215   0.915   3.176  12.717 -0.5181 -0.1567  2.1953
13242TIP3   OH261216   1.679   3.765   4.459  0.0740  0.6001  0.6196
13242TIP3    H161217   1.755   3.769   4.400 -0.0334 -0.4547  0.3905
13242TIP3    H261218   1.711   3.802   4.542 -0.4060  4.1171 -0.6952
13243TIP3   OH261219   4.505   1.490   4.558  0.3088 -0.0202 -0.1749
13243TIP3    H161220   4.561   1.449   4.624  0.0641 -1.7825 -1.0332
13243TIP3    H261221   4.440   1.423   4.537 -0.9249  1.3029 -0.6314
13244TIP3   OH261222   5.230   1.401  12.684 -0.3990 -0.3669  0.1629
13244TIP3    H161223   5.317   1.405  12.723 -0.0116  0.3782 -0.7525
13244TIP3    H261224   5.188   1.483  12.711  0.0070  0.3286 -1.2653
13245TIP3   OH261225   3.200   0.174   4.492 -0.7360 -0.2356 -0.1647
13245TIP3    H161226   3.269   0.113   4.519  0.3190  1.4713  1.0673
13245TIP3    H261227   3.240   0.228   4.424 -1.1049  0.2511 -0.0029
13246TIP3   OH261228   3.501   2.352   3.232 -0.3999 -0.3977 -0.1604
13246TIP3    H161229   3.496   2.439   3.192  0.6605 -0.1391  0.2632
13246TIP3    H261230   3.410   2.328   3.249 -0.8699 -0.4282 -2.5503
13247TIP3   OH261231   3.975   5.406   0.847  0.0310 -0.2504 -0.3634
13247TIP3    H161232   3.904   5.401   0.911 -0.7177 -1.3144 -1.2615
13247TIP3    H261233   3.943   5.466   0.780  0.2151 -0.2808 -0.4785
13248TIP3   OH261234   2.683   5.500  14.783 -0.6075  0.2036 -0.0742
13248TIP3    H161235   2.591   5.473  14.774 -0.0620 -2.1600  1.0643
13248TIP3    H261236   2.711   5.461  14.866  2.0055 -0.8032 -1.3912
13249TIP3   OH261237   5.132   2.131  16.554  0.2614 -0.1900  0.4176
13249TIP3    H161238   5.175   2.051  16.524  0.8698 -0.5625  2.2333
13249TIP3    H261239   5.163   2.143  16.643 -2.2662  0.3437  1.2767
13250TIP3   OH261240   0.253   1.052   2.293  0.6595 -0.3745  0.7297
13250TIP3    H161241   0.256   1.039   2.388  1.1891  1.0095  0.9088
13250TIP3    H261242   0.335   1.016   2.261  0.0556 -1.7349  0.6701
13251TIP3   OH261243   1.706   6.300  14.496 -0.5656 -0.4228  0.2653
13251TIP3    H161244   1.626   6.315  14.445 -0.7907 -2.2136  0.0655
13251TIP3    H261245   1.775   6.294  14.430 -0.5525 -0.7360  0.3052
13252TIP3   OH261246   6.357   1.971  12.322 -0.5159  0.4709  0.0945
13252TIP3    H161247   6.320   2.027  12.255 -2.5132 -0.2321  0.5839
13252TIP3    H261248   6.386   1.892  12.275 -1.4397  0.1969 -0.0205
13253TIP3   OH261249   4.013   2.284   4.507 -0.2120 -0.6987 -0.3217
13253TIP3    H161250   3.992   2.323   4.422 -1.4268 -0.6115  0.0086
13253TIP3    H261251   4.002   2.356   4.570 -0.9170 -1.1663  0.0978
13254TIP3   OH261252   4.892   2.972   5.508 -0.2117  0.2481 -0.2134
13254TIP3    H161253   4.827   3.009   5.568 -0.1019 -0.1859  0.1776
13254TIP3    H261254   4.974   3.017   5.530 -0.0403 -0.3500  0.3810
13255TIP3   OH261255   5.198   4.687  11.095 -0.4522  0.2418  0.2358
13255TIP3    H161256   5.216   4.596  11.072  0.2094  0.5165 -0.3797
13255TIP3    H261257   5.266   4.737  11.049 -1.3315  1.1197 -0.1204
13256TIP3   OH261258   1.861   4.299  14.684 -0.4965  0.1084 -0.5544
13256TIP3    H161259   1.951   4.328  14.695 -0.4957 -0.2722  0.4443
13256TIP3    H261260   1.863   4.205  14.699 -0.8560 -0.0965 -1.7466
13257TIP3   OH261261   1.245   1.106   0.405  0.1683  0.2993 -0.0028
13257TIP3    H161262   1.274   1.169   0.470 -1.8293  1.4543 -0.1870
13257TIP3    H261263   1.269   1.145   0.321 -0.8071  0.6972 -0.1052
13258TIP3   OH261264   0.287   0.614  16.043 -0.1336  0.0563 -0.4697
13258TIP3    H161265   0.262   0.531  16.004  0.9948  0.0884 -1.2903
13258TIP3    H261266   0.290   0.676  15.970  0.4048  0.4930 -0.0877
13259TIP3   OH261267   3.055   5.202   2.935  0.5717 -0.1233 -0.1764
13259TIP3    H161268   3.035   5.157   3.017 -1.5047 -0.2974 -0.7495
13259TIP3    H261269   3.104   5.280   2.962 -0.8134  0.2635  1.3089
13260TIP3   OH261270   1.089   0.383   3.448 -0.2440  0.1986 -0.8916
13260TIP3    H161271   1.017   0.319   3.442 -0.7421  0.6946 -0.2296
13260TIP3    H261272   1.067   0.436   3.524  0.7765  0.4259 -0.7570
13261TIP3   OH261273   2.875   5.762   2.218 -0.2486  0.3753  1.0143
13261TIP3    H161274   2.919   5.679   2.198 -0.3308  0.7537 -0.8482
13261TIP3    H261275   2.933   5.829   2.183 -1.8737  0.9178 -0.6951
13262TIP3   OH261276   4.352   5.120  15.235  0.2619 -0.2505 -0.0166
13262TIP3    H161277   4.375   5.035  15.195 -0.5928 -0.2830 -0.4643
13262TIP3    H261278   4.300   5.164  15.168  1.0079  0.7938  0.0708
13263TIP3   OH261279   6.394   2.355   1.526  0.2443  0.0898 -0.1020
13263TIP3    H161280   6.396   2.361   1.431 -0.9933 -0.8405 -0.1990
13263TIP3    H261281   6.430   2.269   1.546 -0.2583 -0.0558  0.2137
13264TIP3   OH261282   1.681   1.636  14.492  0.5189 -0.2311  0.1875
13264TIP3    H161283   1.735   1.585  14.553 -1.0562 -1.6918  0.3807
13264TIP3    H261284   1.626   1.689  14.549 -1.0054 -1.6501  0.0751
13265TIP3   OH261285   4.156   2.352  13.765  0.1280 -0.1673 -0.4566
13265TIP3    H161286   4.147   2.258  13.782  1.0246 -0.4576 -1.5202
13265TIP3    H261287   4.152   2.392  13.852  2.8377 -1.4550  0.3299
13266TIP3   OH261288   1.061   2.368  14.268  0.1983 -0.0242  0.4458
13266TIP3    H161289   1.021   2.300  14.213 -1.0311 -0.3064  1.6407
13266TIP3    H261290   0.996   2.439  14.270 -0.3135 -0.5016  2.4450
13267TIP3   OH261291   4.187   1.672  16.242  0.3954 -0.8026  0.1656
13267TIP3    H161292   4.192   1.577  16.250  3.3556 -0.7993 -1.1541
13267TIP3    H261293   4.209   1.690  16.150  2.1700  1.2718  0.9442
13268TIP3   OH261294   4.888   2.839  16.122  0.1877  0.4267 -0.0808
13268TIP3    H161295   4.938   2.915  16.149  1.4676 -0.2268 -0.5710
13268TIP3    H261296   4.867   2.794  16.204 -1.6792  1.9597  0.3145
13269TIP3   OH261297   3.301   4.924   2.352 -0.2332  0.1449 -0.6227
13269TIP3    H161298   3.304   4.924   2.256 -2.2571 -3.3022 -0.7460
13269TIP3    H261299   3.208   4.915   2.374  0.2691  0.1518  1.6593
13270TIP3   OH261300   2.661   1.463   0.975  0.1771  0.0903 -0.0090
13270TIP3    H161301   2.722   1.514   0.920  1.0348 -0.6579  0.2318
13270TIP3    H261302   2.579   1.465   0.927  0.9886 -0.8043 -1.4838
13271TIP3   OH261303   0.608   5.930   3.974 -0.1632 -0.1210 -0.1455
13271TIP3    H161304   0.658   5.957   4.051 -0.6349  0.1281  0.0734
13271TIP3    H261305   0.590   6.011   3.927 -2.1881  0.0442  0.8790
13272TIP3   OH261306   1.883   0.542  12.639 -0.1395 -0.2589 -0.1531
13272TIP3    H161307   1.875   0.623  12.690 -0.1789 -0.6932  0.5480
13272TIP3    H261308   1.970   0.509  12.661 -0.7827 -1.2801  0.8887
13273TIP3   OH261309   5.045   1.720   0.157  0.6687  0.1939 -0.1973
13273TIP3    H161310   5.136   1.711   0.129  0.7764  0.2743  0.1247
13273TIP3    H261311   5.002   1.642   0.123  0.8820  0.1044 -0.2615
13274TIP3   OH261312   5.966   2.467  14.720  0.4624  0.0791  0.0915
13274TIP3    H161313   5.941   2.448  14.629  1.3118 -2.5891  0.3891
13274TIP3    H261314   6.007   2.554  14.715  0.9891 -0.2554 -2.1727
13275TIP3   OH261315   0.949   5.204  15.157  0.3123  0.7723 -0.1108
13275TIP3    H161316   1.022   5.172  15.104 -0.1776 -0.6530  0.0660
13275TIP3    H261317   0.970   5.296  15.174  0.9269  0.9867 -1.9972
13276TIP3   OH261318   4.706   1.814  15.798 -0.8021 -0.2124 -0.3608
13276TIP3    H161319   4.728   1.831  15.706  2.6178  2.2899  0.7961
13276TIP3    H261320   4.662   1.894  15.826  2.8397  1.2646  1.4683
13277TIP3   OH261321   1.206   6.783   5.331 -0.2452  0.4370  0.3514
13277TIP3    H161322   1.138   6.716   5.325  1.3537 -1.1442 -0.6830
13277TIP3    H261323   1.288   6.734   5.336  0.8908  2.3104  0.6052
13278TIP3   OH261324   4.183   1.421  16.001  0.4297  0.4281  0.2611
13278TIP3    H161325   4.118   1.412  16.070 -1.4942  2.4647 -1.2259
13278TIP3    H261326   4.156   1.358  15.934 -1.5480  3.0369 -1.4693
13279TIP3   OH261327   6.348   6.673   4.809 -0.6338  0.2961  0.2872
13279TIP3    H161328   6.279   6.688   4.744  0.2323  0.8567 -0.5130
13279TIP3    H261329   6.425   6.716   4.772 -0.1234  0.5767  1.6681
13280TIP3   OH261330   5.851   4.649  13.177  0.0723 -0.0794  0.6116
13280TIP3    H161331   5.864   4.572  13.122 -1.2712 -0.1968  0.4277
13280TIP3    H261332   5.927   4.651  13.235  0.0933 -1.5913  0.6552
13281TIP3   OH261333   5.865   0.575   3.862 -0.2372 -0.0153  0.4740
13281TIP3    H161334   5.875   0.571   3.767  0.3941 -0.0775  0.5349
13281TIP3    H261335   5.771   0.569   3.877 -0.2766 -1.0233 -0.1028
13282TIP3   OH261336   4.212   0.806   5.200 -0.1183  0.3542  0.4133
13282TIP3    H161337   4.191   0.824   5.291  1.5059  0.0475  0.8616
13282TIP3    H261338   4.282   0.741   5.203 -0.1075  0.2669 -1.0561
13283TIP3   OH261339   1.705   0.482  13.429  0.3933  0.1016 -0.0688
13283TIP3    H161340   1.786   0.457  13.474  0.1079 -0.1468  0.2955
13283TIP3    H261341   1.637   0.475  13.495 -0.2044 -1.3631 -0.8387
13284TIP3   OH261342   5.989   2.725   2.949 -0.3840  0.1319  0.9420
13284TIP3    H161343   5.963   2.701   3.038 -0.3936  0.8777  1.1499
13284TIP3    H261344   6.039   2.806   2.960  0.2586 -0.1808  0.3412
13285TIP3   OH261345   2.322   6.661  16.673 -0.0370  0.5607 -0.4415
13285TIP3    H161346   2.300   6.707  16.592  0.3636  1.4662 -0.0470
13285TIP3    H261347   2.307   6.726  16.742  0.5034  0.0793  0.1319
13286TIP3   OH261348   3.769   3.117   6.599  0.1188  0.3472 -0.1693
13286TIP3    H161349   3.698   3.181   6.605  0.4421  0.9340 -2.3423
13286TIP3    H261350   3.762   3.081   6.511  1.7661 -0.4894  0.0239
13287TIP3   OH261351   6.671   6.368  13.689  0.7713  0.5782 -0.4587
13287TIP3    H161352   6.597   6.358  13.630 -0.7597  1.8946  1.2006
13287TIP3    H261353   6.656   6.305  13.759  1.5629  0.3764 -0.4612
13288TIP3   OH261354   2.164   5.755   0.335  0.1760  0.6873 -0.0770
13288TIP3    H161355   2.104   5.682   0.323 -0.8145  1.9452 -3.2905
13288TIP3    H261356   2.242   5.730   0.286 -0.1847  1.7703 -1.2274
13289TIP3   OH261357   0.084   2.480  15.363 -0.4057 -0.0644 -0.0782
13289TIP3    H161358   0.129   2.530  15.295 -1.4573  1.9427  0.6503
13289TIP3    H261359   0.114   2.519  15.445  0.8849 -2.4918  0.6380
13290TIP3   OH261360   5.799   2.728  11.278 -0.3962 -0.2135  0.1358
13290TIP3    H161361   5.757   2.686  11.203 -0.0852 -1.3616  0.5917
13290TIP3    H261362   5.879   2.766  11.243  0.2122 -1.5508  0.0628
13291TIP3   OH261363   3.568   1.456   0.284  0.0944 -0.3355 -0.2787
13291TIP3    H161364   3.635   1.388   0.278 -1.1594 -1.5102 -1.3802
13291TIP3    H261365   3.537   1.467   0.194 -0.7002  0.6826  0.1056
13292TIP3   OH261366   0.926   1.005   0.162  0.2402  0.1208  0.3767
13292TIP3    H161367   0.971   1.011   0.078  0.6829 -1.0315  0.5216
13292TIP3    H261368   0.979   1.058   0.221 -0.6363  1.7857 -0.2860
13293TIP3   OH261369   6.703   3.409   4.656  0.0617 -0.6175 -0.2339
13293TIP3    H161370   6.683   3.502   4.668 -0.7816 -0.6376 -1.4517
13293TIP3    H261371   6.621   3.364   4.673  0.1737 -1.0457 -0.8037
13294TIP3   OH261372   5.093   4.111   2.834  0.2090 -0.1491 -0.7251
13294TIP3    H161373   5.167   4.075   2.884 -0.4929 -1.4935 -0.6393
13294TIP3    H261374   5.124   4.111   2.743  2.1435  3.9297 -0.1804
13295TIP3   OH261375   3.957   6.526  12.570 -0.3317 -0.6667  0.4085
13295TIP3    H161376   3.965   6.432  12.583  1.9869 -0.5371  0.1610
13295TIP3    H261377   4.037   6.551  12.524 -1.4258  1.2538 -0.5395
13296TIP3   OH261378   5.931   0.786  12.493 -0.0064  0.3166  0.4069
13296TIP3    H161379   5.952   0.852  12.558 -1.2045 -0.9217  2.1015
13296TIP3    H261380   6.016   0.753  12.463  0.5542  1.3250  0.8834
13297TIP3   OH261381   3.730   2.860  14.441  0.4055 -0.3557 -0.1917
13297TIP3    H161382   3.810   2.906  14.414  0.0020  0.0687 -0.6634
13297TIP3    H261383   3.698   2.910  14.516  1.3426 -1.3405  0.8879
13298TIP3   OH261384   1.525   0.770  16.079 -0.0483 -0.7235  0.2677
13298TIP3    H161385   1.490   0.684  16.057 -0.5806 -0.8388  1.4779
13298TIP3    H261386   1.496   0.785  16.169  0.8395  0.3119  0.3988
13299TIP3   OH261387   5.183   2.191  11.475  0.4455 -0.3273  0.1247
13299TIP3    H161388   5.217   2.205  11.563  2.1719  0.4251 -0.6487
13299TIP3    H261389   5.249   2.229  11.417 -0.8742 -0.4259 -1.4793
13300TIP3   OH261390   6.086   4.379   0.068  0.0116  0.0965  0.0485
13300TIP3    H161391   6.007   4.432   0.075 -1.9959 -2.6189 -1.0769
13300TIP3    H261392   6.094   4.335   0.153 -3.1631 -4.1543 -1.6553
13301TIP3   OH261393   6.187   5.461   4.826 -0.2235  0.1194 -0.1200
13301TIP3    H161394   6.152   5.371   4.825  0.1066 -0.0105 -0.8845
13301TIP3    H261395   6.276   5.451   4.859  0.2141  0.0025 -1.3152
13302TIP3   OH261396   4.141   5.822   4.412  0.4586 -0.0841 -0.2117
13302TIP3    H161397   4.052   5.823   4.446  1.2325  0.0939  1.9106
13302TIP3    H261398   4.196   5.841   4.488  2.2934  0.0966 -1.5354
13303TIP3   OH261399   0.787   5.269   6.095  0.0753  0.6476 -0.3180
13303TIP3    H161400   0.701   5.248   6.059 -0.0146  0.3443  0.0712
13303TIP3    H261401   0.810   5.193   6.149  1.2903  0.0047 -1.6876
13304TIP3   OH261402   5.063   5.818   1.713 -0.1994  0.0494  0.1673
13304TIP3    H161403   5.119   5.884   1.752 -0.3737  1.1883 -1.4535
13304TIP3    H261404   5.019   5.776   1.788  2.0993 -0.2472  1.3791
13305TIP3   OH261405   1.372   6.748  14.596 -0.4665  0.4658  0.1867
13305TIP3    H161406   1.283   6.734  14.565  0.7635 -0.5960 -3.1333
13305TIP3    H261407   1.382   6.688  14.670 -1.5766 -1.6687 -1.3347
13306TIP3   OH261408   3.184   1.677  13.528 -0.1651  0.2163 -0.9366
13306TIP3    H161409   3.255   1.668  13.463  0.5748  0.2909 -0.1498
13306TIP3    H261410   3.144   1.590  13.531  0.2818  0.0051 -0.9553
13307TIP3   OH261411   4.993   3.972   0.401  0.5050 -0.0983 -0.0474
13307TIP3    H161412   4.903   3.940   0.407  0.9945 -1.2654  1.3944
13307TIP3    H261413   4.994   4.050   0.457  0.5640 -0.5172  0.5416
13308TIP3   OH261414   6.085   2.943  12.270  0.7568 -0.2550  0.1839
13308TIP3    H161415   6.125   2.929  12.184 -1.1228 -1.4790 -0.5222
13308TIP3    H261416   6.094   2.859  12.315  0.5928 -0.0010  0.6983
13309TIP3   OH261417   1.188   4.583  16.891  0.8720 -0.1811 -0.2173
13309TIP3    H161418   1.144   4.646  16.948  0.2677  0.1008 -0.9771
13309TIP3    H261419   1.225   4.518  16.950 -0.4276 -0.3253  0.4631
13310TIP3   OH261420   3.805   3.662   3.545  0.1623 -0.0996 -0.0746
13310TIP3    H161421   3.765   3.614   3.472  0.4835  0.1278 -0.4032
13310TIP3    H261422   3.761   3.629   3.623  0.4660 -1.0312 -0.2857
13311TIP3   OH261423   5.306   2.123  12.630  0.2739 -0.0364 -0.1380
13311TIP3    H161424   5.279   2.110  12.540 -0.7758 -0.4271  0.2325
13311TIP3    H261425   5.356   2.045  12.653  0.7125  0.1514 -0.4312
13312TIP3   OH261426   0.671   0.987  11.093  0.2488 -0.3173 -0.0224
13312TIP3    H161427   0.632   0.943  11.017  2.4150 -0.4451 -1.1068
13312TIP3    H261428   0.731   1.051  11.055  0.3414  0.5637  1.5904
13313TIP3   OH261429   1.517   0.393  10.963 -0.4596  0.4159  0.4258
13313TIP3    H161430   1.512   0.446  11.042 -0.9035 -1.2568  1.5655
13313TIP3    H261431   1.569   0.317  10.988  0.1692  0.3019 -1.1596
13314TIP3   OH261432   5.947   3.639  12.354 -0.0325 -0.5717  0.3296
13314TIP3    H161433   5.865   3.658  12.400  0.8349  0.6908  1.3682
13314TIP3    H261434   6.013   3.638  12.423  1.1846  0.6722 -0.7983
13315TIP3   OH261435   1.809   5.912   1.158  0.0400 -0.3053 -0.0377
13315TIP3    H161436   1.756   5.836   1.132 -0.3522  0.7225 -2.3223
13315TIP3    H261437   1.890   5.873   1.192 -1.8106 -1.8682  2.8085
13316TIP3   OH261438   2.477   6.522  15.543  0.0174  0.8207  0.1421
13316TIP3    H161439   2.570   6.533  15.526 -0.1096 -0.5219 -1.4871
13316TIP3    H261440   2.439   6.499  15.458 -1.9582  2.3257  0.5640
13317TIP3   OH261441   0.796   3.149  15.344  0.0228 -0.0247  0.2075
13317TIP3    H161442   0.777   3.064  15.304  0.9460 -0.4548  0.6460
13317TIP3    H261443   0.826   3.204  15.272  3.5966 -1.3854  0.5593
13318TIP3   OH261444   2.877   6.195  13.642  0.1131 -0.2180 -0.0311
13318TIP3    H161445   2.913   6.256  13.578  0.1481  1.0731  1.1941
13318TIP3    H261446   2.947   6.133  13.659  0.0078 -0.7370 -1.4411
13319TIP3   OH261447   1.301   0.001  13.686  0.3006 -0.1666 -0.4414
13319TIP3    H161448   1.361   0.013  13.613  0.0803 -1.1379 -0.7948
13319TIP3    H261449   1.339   0.051  13.758 -0.7226  2.8373 -1.8806
13320TIP3   OH261450   2.724   1.036  17.142  0.1012 -0.3084 -0.0550
13320TIP3    H161451   2.629   1.051  17.144  0.2280  0.8922 -1.7840
13320TIP3    H261452   2.763   1.121  17.161  0.8477 -0.9358  1.2953
13321TIP3   OH261453   0.342   1.920   3.316  0.3013  0.6902  0.8628
13321TIP3    H161454   0.428   1.958   3.299 -0.2105  2.2613  1.6295
13321TIP3    H261455   0.360   1.842   3.369  1.2736  0.7165  0.5775
13322TIP3   OH261456   2.545   5.294  12.379  0.5887  0.3486 -0.3869
13322TIP3    H161457   2.558   5.208  12.419  2.7129  1.2485  0.9142
13322TIP3    H261458   2.451   5.296  12.358  0.5184 -2.3181 -0.5819
13323TIP3   OH261459   2.210   4.349  16.139  0.4813 -0.5994 -0.8897
13323TIP3    H161460   2.207   4.269  16.191  1.4169  0.0427  0.1588
13323TIP3    H261461   2.207   4.419  16.203  1.4472  0.2029 -1.7145
13324TIP3   OH261462   6.243   6.691   6.488  0.5207 -0.4850 -0.1333
13324TIP3    H161463   6.286   6.737   6.417  1.0400  0.0586  0.5193
13324TIP3    H261464   6.312   6.674   6.552 -0.5479  2.1733  1.8380
13325TIP3   OH261465   1.955   5.707  13.661 -0.1272  0.2925 -0.1248
13325TIP3    H161466   1.896   5.631  13.662  1.0809 -0.6477  0.4125
13325TIP3    H261467   1.965   5.732  13.753 -0.9430  1.4539 -0.3361
13326TIP3   OH261468   4.037   2.122   3.715  0.0884 -0.3980  1.0568
13326TIP3    H161469   4.117   2.088   3.756  0.9007  0.1541 -0.0422
13326TIP3    H261470   4.063   2.206   3.677 -1.0597 -0.1383  0.8320
13327TIP3   OH261471   0.417   1.682  16.060 -0.3030 -0.1118  0.6933
13327TIP3    H161472   0.352   1.691  15.990 -0.9990  1.2303  1.4807
13327TIP3    H261473   0.488   1.741  16.034  1.0941 -2.3161 -0.6660
13328TIP3   OH261474   3.049   5.026  13.182 -0.2543  0.0920  1.0770
13328TIP3    H161475   3.038   5.086  13.108 -0.9169  0.2424  1.2974
13328TIP3    H261476   3.077   4.944  13.142 -0.6231  0.1685  0.6580
13329TIP3   OH261477   6.370   6.564   2.403 -0.3179  0.2068  0.3717
13329TIP3    H161478   6.343   6.646   2.443  1.4501  1.0998 -0.2388
13329TIP3    H261479   6.455   6.543   2.443 -0.4793 -1.0293  0.1125
13330TIP3   OH261480   4.495   5.864  13.627  0.4874 -0.2051 -0.3724
13330TIP3    H161481   4.575   5.811  13.617  0.6281  0.3621 -2.4765
13330TIP3    H261482   4.514   5.921  13.702  1.5042 -1.0632  0.0412
13331TIP3   OH261483   1.885   6.388  15.166 -0.2680 -0.3390 -0.2286
13331TIP3    H161484   1.815   6.448  15.140 -0.3734 -0.6695 -0.7112
13331TIP3    H261485   1.850   6.301  15.149 -0.4269 -0.5766  1.2520
13332TIP3   OH261486   2.260   3.365  11.297 -0.3175  0.6245  0.3812
13332TIP3    H161487   2.200   3.291  11.284 -0.9508  0.9218  1.4636
13332TIP3    H261488   2.257   3.413  11.215 -0.0252 -0.4662 -0.2756
13333TIP3   OH261489   0.928   3.140   4.132  0.2043 -0.3767  0.3228
13333TIP3    H161490   0.836   3.122   4.110  0.5913 -0.3157 -1.4234
13333TIP3    H261491   0.943   3.091   4.213 -0.6024 -2.6236 -0.8320
13334TIP3   OH261492   2.045   6.488   4.728  0.0584  0.1093 -0.3041
13334TIP3    H161493   1.981   6.418   4.744  0.1658  0.4480  1.8247
13334TIP3    H261494   2.019   6.558   4.788  1.3421  0.9590 -0.7243
13335TIP3   OH261495   4.476   4.857   5.355  0.3439  0.2612 -0.1017
13335TIP3    H161496   4.429   4.774   5.346 -0.1630  0.4518  0.7070
13335TIP3    H261497   4.553   4.836   5.408  0.7650  0.1072 -0.7657
13336TIP3   OH261498   1.577   1.979   6.328 -0.5104  0.6897  0.5303
13336TIP3    H161499   1.641   2.046   6.350 -0.4454  1.5895 -2.1686
13336TIP3    H261500   1.621   1.896   6.346  0.1026  1.3224  2.0509
13337TIP3   OH261501   6.182   6.695   4.578  0.0209 -0.4239 -0.3760
13337TIP3    H161502   6.179   6.603   4.603  0.2246 -0.4607 -0.4860
13337TIP3    H261503   6.100   6.732   4.610  0.6878 -0.2544  1.2007
13338TIP3   OH261504   1.665   5.780   4.635  0.4102 -0.2368  0.0516
13338TIP3    H161505   1.751   5.788   4.676  0.0802 -1.7334  1.0728
13338TIP3    H261506   1.638   5.870   4.618  2.1745  0.2421 -0.2844
13339TIP3   OH261507   3.163   1.081  17.056  0.4168 -0.1021 -0.1752
13339TIP3    H161508   3.069   1.068  17.043  0.6522 -1.8398 -0.2869
13339TIP3    H261509   3.204   1.008  17.010  1.9298  1.5995 -1.6236
13340TIP3   OH261510   0.046   2.948   0.022  0.2663 -0.4009 -0.0041
13340TIP3    H161511  -0.036   2.900   0.035 -0.1499  0.3661  0.2030
13340TIP3    H261512   0.110   2.899   0.073 -0.4459  0.0385  1.3619
13341TIP3   OH261513   0.972   1.367  13.133 -0.8355 -0.1456  0.1580
13341TIP3    H161514   1.017   1.306  13.191 -0.6733 -1.2730 -1.1358
13341TIP3    H261515   0.899   1.400  13.186  0.1458 -0.0528  1.4880
13342TIP3   OH261516   4.984   1.345  13.078 -0.0910  0.6656 -0.1028
13342TIP3    H161517   5.001   1.438  13.065  1.2631  0.3887 -0.4058
13342TIP3    H261518   5.030   1.302  13.005  0.4703 -0.3330  0.8319
13343TIP3   OH261519   3.821   2.500  13.873  0.3877  0.1696 -0.0700
13343TIP3    H161520   3.849   2.410  13.889  1.2114  0.1475 -1.5069
13343TIP3    H261521   3.752   2.492  13.807 -0.0611  0.5350  0.3548
13344TIP3   OH261522   4.696   3.282   1.710 -0.2217  0.0922  0.2468
13344TIP3    H161523   4.737   3.314   1.791 -0.3089 -0.0124  0.3316
13344TIP3    H261524   4.674   3.191   1.729  0.9629 -0.3300 -0.3441
13345TIP3   OH261525   0.462   0.550   3.055 -0.0714  0.3848  0.1065
13345TIP3    H161526   0.409   0.477   3.087 -0.5874  2.0681  3.3055
13345TIP3    H261527   0.547   0.538   3.097 -0.5557  2.2937  1.7008
13346TIP3   OH261528   3.852   3.069   5.779 -0.3570 -0.0544  0.6173
13346TIP3    H161529   3.771   3.114   5.754 -0.4589 -0.2162  0.6542
13346TIP3    H261530   3.922   3.126   5.746 -0.4898 -1.0023 -1.3862
13347TIP3   OH261531   0.256   3.413  15.458  0.6079  0.0145  0.1170
13347TIP3    H161532   0.218   3.398  15.371  0.1413 -0.4418  0.3997
13347TIP3    H261533   0.350   3.414  15.443  0.5643 -1.0399 -0.2484
13348TIP3   OH261534   2.758   2.689   5.075 -0.0624  0.0493  0.1453
13348TIP3    H161535   2.788   2.780   5.085 -0.2586  0.5074 -3.0370
13348TIP3    H261536   2.839   2.639   5.060  0.1769 -0.5468  3.1515
13349TIP3   OH261537   4.268   6.052  15.747 -0.3046  0.6516 -0.8441
13349TIP3    H161538   4.172   6.043  15.749 -0.3657  0.6605 -3.1721
13349TIP3    H261539   4.285   6.124  15.687  1.2095 -0.3247 -1.6253
13350TIP3   OH261540   5.694   0.129   0.849 -0.1371  0.0815  0.1305
13350TIP3    H161541   5.684   0.152   0.757  0.2052  1.4730  0.4370
13350TIP3    H261542   5.605   0.130   0.884 -0.1956  0.2131 -0.0253
13351TIP3   OH261543   4.185   2.506   3.320  0.0664  0.4282 -0.0217
13351TIP3    H161544   4.202   2.453   3.242  0.5397 -0.4210  0.6481
13351TIP3    H261545   4.253   2.573   3.319  1.2988 -0.8081  0.7450
13352TIP3   OH261546   5.933   4.924  11.966  0.2916 -0.2157  0.0229
13352TIP3    H161547   5.994   4.961  11.902  0.4783  3.3435  2.1289
13352TIP3    H261548   5.978   4.847  12.000  1.0196 -1.0345 -2.6635
13353TIP3   OH261549   0.162   6.643  16.787 -0.2382 -0.8787 -0.3735
13353TIP3    H161550   0.217   6.577  16.744  0.7225  0.2816 -0.9415
13353TIP3    H261551   0.140   6.705  16.718  1.1012  0.8668  0.7223
13354TIP3   OH261552   2.874   3.070  15.046  0.7516  0.0391 -0.1027
13354TIP3    H161553   2.947   3.104  14.993  0.6780 -0.4600 -0.5316
13354TIP3    H261554   2.817   3.146  15.060  2.2494  0.8515  1.7701
13355TIP3   OH261555   2.216   1.161  10.960 -0.0192 -1.0076  0.2658
13355TIP3    H161556   2.126   1.192  10.972  1.3998  2.7984  2.0658
13355TIP3    H261557   2.227   1.094  11.028 -0.8037  0.2266  1.6517
13356TIP3   OH261558   1.579   3.633   0.147 -0.4074  0.2774 -0.1516
13356TIP3    H161559   1.658   3.639   0.094 -0.2193 -1.2212 -0.0559
13356TIP3    H261560   1.514   3.592   0.089  0.0289 -2.1174  0.9693
13357TIP3   OH261561   4.728   3.212  16.910  0.0166 -0.2409 -0.0927
13357TIP3    H161562   4.692   3.206  16.998  1.2656 -0.2131  0.4259
13357TIP3    H261563   4.685   3.141  16.862 -1.4438  0.3958  0.2466
13358TIP3   OH261564   4.824   0.635  12.924  0.2986  0.3137  0.7991
13358TIP3    H161565   4.881   0.615  12.999  0.7372  1.5798  0.8218
13358TIP3    H261566   4.757   0.692  12.960 -1.3520 -1.6260  0.8868
13359TIP3   OH261567   0.126   2.360  16.745 -0.3367 -0.2763  0.3602
13359TIP3    H161568   0.206   2.375  16.695  0.2957 -0.5278  1.2943
13359TIP3    H261569   0.057   2.357  16.678  0.4273 -0.0836 -0.4515
13360TIP3   OH261570   1.150   3.388  13.004  0.3785 -0.1799  0.1902
13360TIP3    H161571   1.181   3.462  12.952  1.8646  0.3589  1.8269
13360TIP3    H261572   1.159   3.416  13.095 -0.1525 -1.9309  0.8126
13361TIP3   OH261573   1.198   0.893  13.670  0.0520  0.4492 -0.4604
13361TIP3    H161574   1.239   0.979  13.677 -2.2086  1.5761 -0.7169
13361TIP3    H261575   1.107   0.911  13.645 -0.4158 -2.0149 -0.6904
13362TIP3   OH261576   6.468   4.828  13.518 -0.0356 -0.7367  0.2876
13362TIP3    H161577   6.490   4.814  13.426 -1.5641 -2.7128  0.1768
13362TIP3    H261578   6.552   4.842  13.561  0.6769  0.4437 -1.4352
13363TIP3   OH261579   4.179   4.731   0.574 -0.4848 -0.0857  0.4687
13363TIP3    H161580   4.212   4.660   0.518 -3.0901 -0.6369 -0.4480
13363TIP3    H261581   4.192   4.810   0.522 -0.1736 -0.2362  0.3143
13364TIP3   OH261582   6.429   2.731   4.091 -0.8451  0.4535 -0.0500
13364TIP3    H161583   6.441   2.764   4.002  0.1635  1.6253  0.5019
13364TIP3    H261584   6.497   2.664   4.101 -0.8018  0.4954 -0.0656
13365TIP3   OH261585   0.728   1.192   1.256 -0.4843  0.0294  0.5040
13365TIP3    H161586   0.685   1.223   1.336  0.1554  1.5398  0.2831
13365TIP3    H261587   0.672   1.224   1.185  0.3880  1.0032  0.2550
13366TIP3   OH261588   2.670   5.360  13.640  0.4666  0.1158  0.6015
13366TIP3    H161589   2.652   5.314  13.723  2.1593  0.3427  1.1180
13366TIP3    H261590   2.733   5.428  13.664  0.2246  0.8116 -0.7146
13367TIP3   OH261591   3.131   0.824   0.033 -0.3252 -0.0225 -0.6128
13367TIP3    H161592   3.212   0.869   0.011 -1.7370  2.0689 -1.7190
13367TIP3    H261593   3.140   0.737  -0.007 -0.1693  1.4951 -4.0346
13368TIP3   OH261594   3.589   5.141   2.709  0.2640 -0.4012 -0.0770
13368TIP3    H161595   3.505   5.150   2.663  0.0111  1.5546  0.7263
13368TIP3    H261596   3.597   5.221   2.761  3.5167  0.3619 -1.5858
13369TIP3   OH261597   0.590   4.527  16.955  0.2935  0.0013 -0.0722
13369TIP3    H161598   0.567   4.445  16.997  1.8299 -1.1425 -1.3895
13369TIP3    H261599   0.682   4.541  16.978  0.0279  1.3864  0.1947
13370TIP3   OH261600   5.488   3.518  16.431  0.1988  0.1833  0.1672
13370TIP3    H161601   5.501   3.448  16.367 -0.9131 -2.1918  2.4530
13370TIP3    H261602   5.576   3.549  16.451  0.7160 -0.6411 -0.7988
13371TIP3   OH261603   0.285   0.146   2.591 -0.1247 -0.4217  0.0532
13371TIP3    H161604   0.236   0.192   2.522  0.5211 -0.4631 -0.4391
13371TIP3    H261605   0.221   0.131   2.660 -0.2920  1.4465  0.3235
13372TIP3   OH261606   5.636   5.060   1.591  0.1951 -0.4839  0.2127
13372TIP3    H161607   5.629   5.000   1.665  1.5997 -1.8285 -0.6969
13372TIP3    H261608   5.731   5.072   1.579 -0.0539  1.3668 -0.0746
13373TIP3   OH261609   1.809   5.977   0.237  0.1939  0.1792 -0.2659
13373TIP3    H161610   1.878   6.036   0.268  0.6894 -0.2318 -0.5950
13373TIP3    H261611   1.735   6.036   0.218  0.4573  0.6217  0.0595
13374TIP3   OH261612   1.027   6.766  16.408 -0.0858  0.1076 -0.1334
13374TIP3    H161613   0.956   6.820  16.371  0.3261 -0.9033 -2.5100
13374TIP3    H261614   1.106   6.818  16.394  0.3174 -1.0760 -2.4637
13375TIP3   OH261615   3.484   2.061   5.348  0.3728  0.1698 -0.3133
13375TIP3    H161616   3.567   2.106   5.335 -0.8552  2.9125  0.8770
13375TIP3    H261617   3.422   2.131   5.370 -2.2581 -1.7955 -1.2184
13376TIP3   OH261618   1.977   5.796   3.091 -0.3952 -0.3234  0.0830
13376TIP3    H161619   1.932   5.739   3.028 -1.8736 -0.7853  1.5304
13376TIP3    H261620   2.005   5.737   3.161 -0.3696  0.4737  0.7459
13377TIP3   OH261621   2.772   5.420  11.223  0.8068 -0.4012 -0.6768
13377TIP3    H161622   2.762   5.403  11.130  0.0364 -1.3592 -0.4232
13377TIP3    H261623   2.695   5.470  11.248  1.5596  0.8343 -0.7758
13378TIP3   OH261624   3.936   2.842   3.890 -0.0751  0.3154 -0.2773
13378TIP3    H161625   3.903   2.792   3.964 -3.7751  1.4024 -1.0541
13378TIP3    H261626   3.930   2.934   3.919  0.7692  0.6101 -1.0266
13379TIP3   OH261627   4.975   0.308   0.843  0.7124 -0.3572  0.0184
13379TIP3    H161628   4.984   0.402   0.828  0.7630 -0.5200 -1.0492
13379TIP3    H261629   4.913   0.279   0.776  0.9497 -1.1324  0.1256
13380TIP3   OH261630   0.425   0.088  15.785  0.2693  0.4609  0.1236
13380TIP3    H161631   0.404   0.167  15.836  0.6583  1.5667 -1.3967
13380TIP3    H261632   0.516   0.100  15.758  0.1797 -0.2856 -0.5297
13381TIP3   OH261633   0.057   4.684  13.352  0.3332 -0.0183 -0.0202
13381TIP3    H161634   0.019   4.717  13.433  1.8639  1.1308  0.2458
13381TIP3    H261635   0.061   4.761  13.294 -3.3080 -1.3663 -2.2122
13382TIP3   OH261636   2.072   2.068   3.500  0.1171  0.2434 -0.1997
13382TIP3    H161637   1.991   2.061   3.550 -0.3936 -2.0865 -1.2481
13382TIP3    H261638   2.141   2.077   3.566 -0.7665 -0.3602  0.8227
13383TIP3   OH261639   4.724   4.454  15.948  0.0368 -0.4083  0.2316
13383TIP3    H161640   4.675   4.446  15.866 -0.9224  0.7073  0.6690
13383TIP3    H261641   4.814   4.431  15.925  0.3384  2.5040 -1.7332
13384TIP3   OH261642   2.365   6.342  15.763 -0.1772 -0.3888  0.5533
13384TIP3    H161643   2.380   6.397  15.686 -1.2848 -1.0977 -0.1746
13384TIP3    H261644   2.283   6.375  15.800 -0.0666 -0.5735  0.9630
13385TIP3   OH261645   3.745   0.384  13.500  0.6856 -0.5016 -0.0707
13385TIP3    H161646   3.673   0.440  13.470 -1.1459 -1.2661  2.6857
13385TIP3    H261647   3.811   0.445  13.533  1.6607  0.2362 -3.2477
13386TIP3   OH261648   6.516   5.690   6.496 -0.3222  0.1198 -0.0506
13386TIP3    H161649   6.589   5.737   6.457  0.3710  0.2273  1.3367
13386TIP3    H261650   6.527   5.703   6.590 -1.8122 -0.3301  0.2003
13387TIP3   OH261651   5.768   2.921   5.274 -0.2049  0.3223 -0.1693
13387TIP3    H161652   5.746   2.908   5.366 -0.3511  1.3546 -0.0456
13387TIP3    H261653   5.811   3.007   5.272  1.1688 -0.3558 -0.8343
13388TIP3   OH261654   1.710   4.346   2.954  0.3768 -0.0177 -0.3292
13388TIP3    H161655   1.784   4.343   2.894  0.0509  4.1674 -1.0889
13388TIP3    H261656   1.747   4.324   3.039  2.1109  0.0567 -1.0436
13389TIP3   OH261657   5.362   5.091   5.426  0.3699  0.3706 -0.6458
13389TIP3    H161658   5.403   5.168   5.388  0.4771  1.3856  1.4573
13389TIP3    H261659   5.429   5.053   5.482  0.0270 -0.7460 -0.9793
13390TIP3   OH261660   2.610   3.973   0.267  0.6805 -0.6540  0.7982
13390TIP3    H161661   2.696   3.979   0.224 -0.4767 -0.0185 -1.5026
13390TIP3    H261662   2.629   3.987   0.360  2.9554  0.5605  0.1951
13391TIP3   OH261663   5.066   5.211   2.670  0.3699  0.6697  0.1280
13391TIP3    H161664   4.993   5.152   2.688 -0.3776  1.3664 -0.5828
13391TIP3    H261665   5.124   5.201   2.745 -0.9300  0.8464  1.1709
13392TIP3   OH261666   5.667   0.268   6.150 -0.1779 -0.2292  0.1785
13392TIP3    H161667   5.593   0.249   6.092  0.3401  0.2362 -0.6495
13392TIP3    H261668   5.665   0.363   6.162  0.4677 -0.1760 -0.0999
13393TIP3   OH261669   3.620   6.505  15.652 -0.0158 -0.4595  0.0416
13393TIP3    H161670   3.575   6.508  15.737 -1.4943  0.7224 -0.7592
13393TIP3    H261671   3.638   6.596  15.631 -0.6804 -0.6484 -1.4399
13394TIP3   OH261672   3.577   3.291   1.655 -0.2786  0.0091 -0.6117
13394TIP3    H161673   3.563   3.300   1.560 -0.0131  1.1676 -0.5432
13394TIP3    H261674   3.628   3.210   1.664 -0.0849  0.0295 -1.4709
13395TIP3   OH261675   6.013   6.209   5.464 -0.0131 -0.2079 -0.3361
13395TIP3    H161676   6.030   6.154   5.388 -0.8521  0.4771 -1.0293
13395TIP3    H261677   5.928   6.250   5.446 -0.5120 -0.5220  1.2479
13396TIP3   OH261678   1.336   4.093   0.436  0.6234 -0.0391  0.7905
13396TIP3    H161679   1.322   4.013   0.486  0.1730  1.9790  4.0237
13396TIP3    H261680   1.256   4.144   0.449  1.6198  1.7038  0.2772
13397TIP3   OH261681   3.830   5.038   6.706  0.5616  0.5525 -0.0452
13397TIP3    H161682   3.894   5.077   6.766  1.4812 -1.1585  0.1226
13397TIP3    H261683   3.748   5.083   6.725  1.0533  0.6729  1.8742
13398TIP3   OH261684   6.556   0.346   0.720  0.0257 -0.0968  0.4737
13398TIP3    H161685   6.625   0.411   0.730 -1.0450  1.0802  0.3554
13398TIP3    H261686   6.581   0.297   0.641  0.2148  0.9513 -0.1222
13399TIP3   OH261687   6.255   5.786   5.282  0.0272  0.5353  0.0456
13399TIP3    H161688   6.292   5.723   5.221 -0.3815 -0.0859  0.4387
13399TIP3    H261689   6.305   5.867   5.266 -0.4787  0.5514 -1.5131
13400TIP3   OH261690   2.270   5.606   2.451 -0.3752  0.2016  0.1085
13400TIP3    H161691   2.256   5.511   2.457 -1.2858  0.4248  1.6981
13400TIP3    H261692   2.241   5.640   2.535 -0.5822  1.9732 -0.6581
13401TIP3   OH261693   6.665   0.037  13.906 -0.0004  0.4910  0.0916
13401TIP3    H161694   6.640   0.082  13.986  0.1519  1.3161 -0.3212
13401TIP3    H261695   6.657  -0.056  13.927  0.5821  0.6928  1.2443
13402TIP3   OH261696   5.622   1.891   1.890  0.0543  0.1399  0.0231
13402TIP3    H161697   5.579   1.835   1.954  2.1529 -1.1299  0.3570
13402TIP3    H261698   5.632   1.836   1.812  0.8806  0.4851 -0.1171
13403TIP3   OH261699   3.634   2.150  11.995  0.6768 -0.5882  0.3477
13403TIP3    H161700   3.622   2.183  11.906  0.2193  1.5748  1.1660
13403TIP3    H261701   3.685   2.218  12.039  0.8042 -1.5754  1.7688
13404TIP3   OH261702   6.153   2.428  16.711  0.6063 -0.2912  0.3623
13404TIP3    H161703   6.247   2.445  16.718  0.2545  1.5158  0.7828
13404TIP3    H261704   6.141   2.392  16.623  1.5815  0.1867  0.0327
13405TIP3   OH261705   0.764   6.676   6.030  0.1548  0.5483  0.0774
13405TIP3    H161706   0.745   6.586   6.003  0.4607  0.4167  0.3032
13405TIP3    H261707   0.828   6.707   5.966  1.5513 -0.0605  1.1670
13406TIP3   OH261708   1.321   3.160  17.237 -0.2877 -0.4309 -0.1170
13406TIP3    H161709   1.279   3.237  17.199  1.2873  0.0183 -0.9733
13406TIP3    H261710   1.404   3.151  17.190  0.7814 -1.0764  1.8182
13407TIP3   OH261711   5.642   6.503   5.020 -0.2860 -0.4247  0.4531
13407TIP3    H161712   5.587   6.572   4.981  1.5124 -0.4584 -2.2667
13407TIP3    H261713   5.720   6.549   5.049  0.6537 -1.2049 -0.8052
13408TIP3   OH261714   5.969   0.045   0.879 -0.8959 -0.1748  0.5725
13408TIP3    H161715   5.966  -0.043   0.843 -0.5242 -0.0583  0.2454
13408TIP3    H261716   5.878   0.069   0.895 -1.0116 -0.5040  0.3912
13409TIP3   OH261717   2.016   2.412  14.724 -0.5942  0.0819 -0.4844
13409TIP3    H161718   2.061   2.478  14.777  0.3286 -0.6035 -0.4000
13409TIP3    H261719   2.065   2.331  14.740 -0.5802 -0.2304 -2.0198
13410TIP3   OH261720   4.949   2.990  11.807  0.0725  0.1715 -0.0555
13410TIP3    H161721   4.879   3.004  11.871 -0.0184 -1.1386  0.1408
13410TIP3    H261722   4.940   2.899  11.781  1.3924  0.1313 -0.4139
13411TIP3   OH261723   3.756   3.983   3.566  0.6412  0.0843  0.0462
13411TIP3    H161724   3.760   3.959   3.659  1.2557 -2.5071 -0.6072
13411TIP3    H261725   3.694   3.921   3.528 -0.3466  1.7536 -1.1131
13412TIP3   OH261726   2.222   2.900   0.778 -0.0723 -0.7827  0.2334
13412TIP3    H161727   2.171   2.820   0.765 -3.6604  1.3937  0.1782
13412TIP3    H261728   2.216   2.916   0.872 -1.8311  0.8946 -0.1293
13413TIP3   OH261729   1.570   4.533   4.610 -0.0013  0.1088  0.0748
13413TIP3    H161730   1.621   4.456   4.635 -2.2622 -0.7546  2.3005
13413TIP3    H261731   1.606   4.605   4.663 -1.2894 -0.5878  1.9610
13414TIP3   OH261732   4.825   1.849  15.525  0.1868  0.3349  0.1946
13414TIP3    H161733   4.910   1.805  15.527  0.3129  0.5978  1.3437
13414TIP3    H261734   4.818   1.884  15.436  0.7743 -0.6591 -0.2516
13415TIP3   OH261735   6.094   4.787   5.994 -0.2881  0.3756 -0.4109
13415TIP3    H161736   6.163   4.763   6.056 -1.9999 -3.3924  0.1594
13415TIP3    H261737   6.141   4.827   5.921  1.8802  3.8657  2.7207
13416TIP3   OH261738   6.105   1.774  16.609 -0.7874 -0.0841  0.0189
13416TIP3    H161739   6.014   1.754  16.586 -0.7633 -0.4584  0.2486
13416TIP3    H261740   6.128   1.709  16.675  0.5974 -1.9446 -2.1863
13417TIP3   OH261741   5.618   0.394   2.690 -0.2678  0.2561  0.2188
13417TIP3    H161742   5.626   0.417   2.598 -0.8047  0.9850  0.3385
13417TIP3    H261743   5.523   0.392   2.706 -0.1778  1.8375  1.1419
13418TIP3   OH261744   6.815   5.813   5.915 -0.3516 -0.3412 -0.5339
13418TIP3    H161745   6.907   5.839   5.912  0.1165 -1.9995 -1.4750
13418TIP3    H261746   6.776   5.870   5.981  1.6384 -0.4769  0.8102
13419TIP3   OH261747   2.519   3.802  16.181 -0.3231  0.1980  0.1968
13419TIP3    H161748   2.613   3.806  16.197  0.1155 -0.2193 -2.1723
13419TIP3    H261749   2.488   3.891  16.198  0.5708  0.4614  0.4799
13420TIP3   OH261750   6.581   5.704  13.799 -0.7292  0.4828 -0.3554
13420TIP3    H161751   6.551   5.712  13.708 -0.0988  4.2143 -0.3148
13420TIP3    H261752   6.503   5.681  13.849 -0.9910 -2.0839 -1.8438
13421TIP3   OH261753   0.901   0.721  11.081 -0.2392 -0.7940 -0.0344
13421TIP3    H161754   0.949   0.638  11.081  1.3354  0.0784  0.9649
13421TIP3    H261755   0.936   0.768  11.157  0.1845  1.4907 -1.5920
13422TIP3   OH261756   5.470   5.943  17.167  0.1768  0.0585  0.0348
13422TIP3    H161757   5.435   5.990  17.242  1.5703  2.1563 -0.5927
13422TIP3    H261758   5.527   5.876  17.205  1.0107  1.2197  0.8460
13423TIP3   OH261759   6.624   6.340   5.493  0.3268 -0.2741  0.2035
13423TIP3    H161760   6.535   6.311   5.510  0.0636 -0.1799 -0.9944
13423TIP3    H261761   6.678   6.291   5.556 -0.6049 -0.0033  1.2236
13424TIP3   OH261762   5.588   4.751   0.307 -0.1115 -0.5695 -0.5583
13424TIP3    H161763   5.568   4.813   0.237 -0.9496  0.6190  0.7080
13424TIP3    H261764   5.677   4.773   0.334 -0.7649  0.7811  0.5671
13425TIP3   OH261765   3.088   6.541   1.094 -0.5571 -0.0251  0.4706
13425TIP3    H161766   3.055   6.598   1.024 -1.7042  0.0321  1.0368
13425TIP3    H261767   3.067   6.452   1.064  0.7381 -0.1239 -0.1608
13426TIP3   OH261768   2.049   1.673  17.268 -0.7071 -0.8914  0.3999
13426TIP3    H161769   1.988   1.726  17.320 -0.3688 -0.2677  0.1615
13426TIP3    H261770   2.130   1.673  17.318 -0.1353  0.3684 -0.5011
13427TIP3   OH261771   4.785   3.298   0.757 -0.0965  0.4346  0.0605
13427TIP3    H161772   4.750   3.221   0.712 -0.9956  1.2950 -0.7317
13427TIP3    H261773   4.879   3.296   0.739  0.1714 -1.4713  1.5658
13428TIP3   OH261774   5.039   0.714   1.004  0.2891 -0.1633 -0.0433
13428TIP3    H161775   5.025   0.644   1.069 -2.2416  0.7311  0.4405
13428TIP3    H261776   5.000   0.680   0.924 -0.9444  0.6729  0.1922
13429TIP3   OH261777   1.518   3.655   2.206 -0.3243 -0.5714  0.1459
13429TIP3    H161778   1.526   3.713   2.130 -1.5019 -1.5680 -0.7560
13429TIP3    H261779   1.553   3.706   2.279  0.4168  0.5618 -0.9808
13430TIP3   OH261780   1.019   0.580  15.793 -0.0705 -0.4348  0.5123
13430TIP3    H161781   0.957   0.596  15.864 -0.9441 -0.2957 -0.2722
13430TIP3    H261782   1.104   0.577  15.836 -0.6558 -0.9953  1.6486
13431TIP3   OH261783   1.260   1.271   0.142 -0.0656 -0.7401  0.3484
13431TIP3    H161784   1.230   1.220   0.067 -2.8333 -0.3877  1.1463
13431TIP3    H261785   1.337   1.318   0.110  0.7998 -3.1467 -1.2487
13432TIP3   OH261786   1.970   5.791   0.086  0.1342  0.1497 -0.1971
13432TIP3    H161787   1.899   5.851   0.107  1.2219  1.1471  0.7613
13432TIP3    H261788   2.033   5.802   0.158  0.3550 -2.1666  0.0169
13433TIP3   OH261789   1.163   1.965  11.493 -0.6195 -0.0751  0.0042
13433TIP3    H161790   1.168   1.974  11.588 -0.0234 -0.7938  0.0424
13433TIP3    H261791   1.139   1.873  11.479 -0.7738  0.0482 -0.5394
13434TIP3   OH261792   2.608   2.087   0.762  0.0021  0.1200  0.2094
13434TIP3    H161793   2.520   2.107   0.729 -0.4770 -1.1684  0.6647
13434TIP3    H261794   2.634   2.165   0.811  0.5462  1.8949 -2.8144
13435TIP3   OH261795   3.439   4.205  10.658 -0.3650 -0.4237  0.2560
13435TIP3    H161796   3.476   4.208  10.746  2.4114 -1.1170 -0.8291
13435TIP3    H261797   3.423   4.112  10.642  3.4074 -0.8489 -1.5929
13436TIP3   OH261798   0.283   1.127   4.642 -0.1117 -0.3105  0.2909
13436TIP3    H161799   0.219   1.148   4.710 -0.2339 -0.9660  0.3837
13436TIP3    H261800   0.368   1.133   4.685 -0.2577 -1.9607  0.8324
13437TIP3   OH261801   2.520   2.707   0.265 -0.4968 -0.1847 -0.2457
13437TIP3    H161802   2.468   2.776   0.308 -0.7537 -0.3266 -0.3286
13437TIP3    H261803   2.458   2.636   0.249 -1.1085  0.9811 -3.5014
13438TIP3   OH261804   6.039   1.310   5.732  0.3948  0.2335  0.2673
13438TIP3    H161805   6.082   1.360   5.663  2.4685 -0.8878  0.7187
13438TIP3    H261806   5.985   1.246   5.685 -2.3809  2.8598 -0.3196
13439TIP3   OH261807   3.818   6.596  14.921  0.3680  0.1844  0.0927
13439TIP3    H161808   3.843   6.544  14.845  1.9976 -0.2700  0.9244
13439TIP3    H261809   3.741   6.551  14.957  0.5532 -0.4967 -0.3626
13440TIP3   OH261810   6.755   4.139   2.940  0.0805  0.8723 -0.4772
13440TIP3    H161811   6.807   4.167   3.016 -0.0657  0.8845 -0.3823
13440TIP3    H261812   6.788   4.051   2.920  0.0218  0.8112 -0.3100
13441TIP3   OH261813   5.160   4.191   4.402 -0.2145  0.9262  0.6927
13441TIP3    H161814   5.187   4.183   4.310 -2.1371  0.1231  0.1729
13441TIP3    H261815   5.242   4.201   4.450  0.8679  0.5683 -1.0295
13442TIP3   OH261816   5.882   0.720  17.077  0.8918  0.0600 -0.0423
13442TIP3    H161817   5.809   0.661  17.097  1.4533 -1.3237 -1.9341
13442TIP3    H261818   5.841   0.803  17.053 -0.2382 -1.4539 -3.6695
13443TIP3   OH261819   2.145   2.191  12.764 -0.5812 -0.0316 -0.4167
13443TIP3    H161820   2.220   2.141  12.735 -0.1217 -0.7085  1.8156
13443TIP3    H261821   2.140   2.266  12.704  1.1072 -0.6419 -1.3248
13444TIP3   OH261822   2.638   5.122  11.142  0.1803 -0.3791  0.5948
13444TIP3    H161823   2.716   5.079  11.178 -1.2333 -2.8915  0.7370
13444TIP3    H261824   2.660   5.136  11.049  1.1769 -0.1342  0.8575
13445TIP3   OH261825   0.390   2.601   5.629 -0.1950 -0.3406 -0.1203
13445TIP3    H161826   0.304   2.558   5.620  0.0664 -0.8459 -0.2307
13445TIP3    H261827   0.433   2.554   5.700  1.1503 -2.0541 -2.0143
13446TIP3   OH261828   1.470   2.092  14.949 -0.5922 -0.1072 -0.5341
13446TIP3    H161829   1.515   2.141  14.879 -0.3179  0.6084  0.1334
13446TIP3    H261830   1.378   2.116  14.939 -0.2591  1.8599  0.8042
13447TIP3   OH261831   3.420   5.883   4.037 -0.3742  0.2151  0.3461
13447TIP3    H161832   3.474   5.805   4.022  0.4198  0.5529  1.3365
13447TIP3    H261833   3.330   5.854   4.022 -0.1171 -0.9896  1.1029
13448TIP3   OH261834   4.792   0.652  15.247 -0.2420  0.4687 -0.0239
13448TIP3    H161835   4.846   0.714  15.199 -2.8643  0.9894 -2.3519
13448TIP3    H261836   4.723   0.705  15.286 -0.3275 -0.4993  1.1806
13449TIP3   OH261837   3.081   5.953   1.711  0.3368 -0.2144  0.4858
13449TIP3    H161838   3.004   5.996   1.747  0.0854 -0.8162  0.6761
13449TIP3    H261839   3.059   5.937   1.619  0.0256 -0.8712  0.6761
13450TIP3   OH261840   1.783   1.327  11.890 -1.2859  0.1954 -0.6731
13450TIP3    H161841   1.710   1.352  11.833 -2.4111  1.3047  1.1781
13450TIP3    H261842   1.746   1.259  11.947 -0.2233 -0.7915 -1.1463
13451TIP3   OH261843   3.758   3.684   2.558 -0.1017 -0.5098  0.5125
13451TIP3    H161844   3.805   3.610   2.520  1.3179  1.8572 -2.5375
13451TIP3    H261845   3.668   3.671   2.531 -0.2852 -2.1759  1.7840
13452TIP3   OH261846   1.083   6.045  10.563  0.5951  0.1087  0.4742
13452TIP3    H161847   1.095   6.121  10.505  0.9159 -0.6554 -0.4742
13452TIP3    H261848   1.026   5.986  10.513 -0.8078  0.3290  1.7815
13453TIP3   OH261849   3.527   0.770   0.953 -0.2344 -0.2590  0.5275
13453TIP3    H161850   3.604   0.716   0.935  0.3324  0.0963  1.8170
13453TIP3    H261851   3.559   0.860   0.950 -0.6775 -0.0967  0.6546
13454TIP3   OH261852   6.769   5.271   3.273 -0.6001  0.1417  0.0262
13454TIP3    H161853   6.682   5.309   3.285 -0.5675  0.1854  0.1214
13454TIP3    H261854   6.752   5.189   3.227 -0.8550 -0.7428  1.6666
13455TIP3   OH261855   2.447   2.132  14.101  0.6057  0.0686 -0.0739
13455TIP3    H161856   2.370   2.075  14.096  3.2199 -3.4814 -2.9834
13455TIP3    H261857   2.422   2.210  14.053 -2.3139  0.5183  2.0234
13456TIP3   OH261858   1.995   3.525  11.759  0.1552  0.0540  0.2700
13456TIP3    H161859   2.073   3.580  11.769  0.2789  0.1946 -1.3445
13456TIP3    H261860   1.951   3.561  11.682 -0.5887 -1.1214  0.1503
13457TIP3   OH261861   1.787   4.875   0.007 -0.3408  0.5230 -0.3475
13457TIP3    H161862   1.769   4.782  -0.010  1.4927 -0.3979  2.3135
13457TIP3    H261863   1.849   4.901  -0.061 -0.9317 -0.1860 -1.1598
13458TIP3   OH261864   4.215   6.029   0.878  0.4397 -0.2118 -0.6444
13458TIP3    H161865   4.280   5.985   0.934 -0.0675 -0.1885 -0.0354
13458TIP3    H261866   4.164   6.082   0.939  1.4236  1.6987 -1.4489
13459TIP3   OH261867   1.304   4.603   2.945 -0.4728  0.2451  0.0445
13459TIP3    H161868   1.295   4.522   2.895 -0.5947  0.5097 -0.3598
13459TIP3    H261869   1.336   4.574   3.031  1.4143 -0.0385 -0.7349
13460TIP3   OH261870   2.811   4.209   4.013 -0.2710 -0.1066 -0.7753
13460TIP3    H161871   2.824   4.204   3.918  0.0817 -0.8343 -0.6909
13460TIP3    H261872   2.886   4.163   4.050  0.2297  1.2242 -0.1007
13461TIP3   OH261873   6.489   2.944   5.937  0.1240  0.6493 -0.0403
13461TIP3    H161874   6.501   2.988   6.022  1.4068  1.2195 -0.5147
13461TIP3    H261875   6.459   3.013   5.878 -1.1498  0.1718  0.0206
13462TIP3   OH261876   5.695   4.029  13.757 -0.1554  0.4308 -0.1043
13462TIP3    H161877   5.618   4.008  13.705 -2.3747  1.3348  2.7048
13462TIP3    H261878   5.756   3.957  13.738 -2.7038 -1.7743 -0.3449
13463TIP3   OH261879   0.407   4.604   5.641 -0.0815  0.2624  0.2019
13463TIP3    H161880   0.459   4.550   5.582 -0.0373  1.3293 -0.7321
13463TIP3    H261881   0.378   4.543   5.709  1.5772 -0.5426  0.2196
13464TIP3   OH261882   6.551   0.481   5.173  0.5189 -0.7992 -0.3788
13464TIP3    H161883   6.592   0.514   5.253  0.9043  0.3834 -1.0411
13464TIP3    H261884   6.622   0.479   5.109 -0.1306 -0.2050 -1.1211
13465TIP3   OH261885   2.146   4.048  10.857  0.3897  0.3422  0.0349
13465TIP3    H161886   2.181   3.965  10.889  0.2382  0.4866  0.5922
13465TIP3    H261887   2.216   4.111  10.873  0.4516  0.3459 -0.2573
13466TIP3   OH261888   4.287   4.246   2.828  0.3079 -0.0106  0.5630
13466TIP3    H161889   4.323   4.163   2.794 -0.1681 -1.6542  3.9081
13466TIP3    H261890   4.203   4.222   2.866 -0.8653  2.4589 -0.3752
13467TIP3   OH261891   6.403   1.529   0.117  0.1503  0.9831  0.3098
13467TIP3    H161892   6.309   1.516   0.118  0.0847  1.4133  0.0060
13467TIP3    H261893   6.435   1.472   0.047 -0.1682  2.6261 -1.2034
13468TIP3   OH261894   5.012   3.145  10.519 -0.1143 -0.4650  0.8805
13468TIP3    H161895   5.027   3.132  10.613 -2.9054  0.4613  1.4887
13468TIP3    H261896   4.994   3.238  10.510 -0.5975 -0.6796 -0.4685
13469TIP3   OH261897   2.634   0.838   1.328 -0.5824  0.4462  0.0226
13469TIP3    H161898   2.695   0.766   1.339 -1.3598 -0.2639 -0.2893
13469TIP3    H261899   2.689   0.911   1.298  0.0455 -0.2995 -0.6705
13470TIP3   OH261900   4.591   2.037   5.452  0.1944 -0.3788 -0.3970
13470TIP3    H161901   4.566   2.128   5.433  1.4615  0.2507  0.8606
13470TIP3    H261902   4.508   1.990   5.454 -0.4895  0.7679 -0.9632
13471TIP3   OH261903   4.418   6.216   5.765 -0.2887  0.7910 -0.0621
13471TIP3    H161904   4.407   6.121   5.769  1.2354  0.6680  2.3256
13471TIP3    H261905   4.494   6.229   5.708  0.3191  0.4965  0.6746
13472TIP3   OH261906   4.825   0.587  13.326 -0.3333  0.3991 -0.5501
13472TIP3    H161907   4.776   0.508  13.303 -1.1320  0.0714  2.0772
13472TIP3    H261908   4.907   0.579  13.278 -0.3935 -2.0429 -0.3256
13473TIP3   OH261909   6.596   0.060  10.955  0.6154  0.1396 -0.9112
13473TIP3    H161910   6.673   0.031  10.907  1.9535 -1.2695  1.9599
13473TIP3    H261911   6.609   0.154  10.968  2.4305 -0.3054  0.5634
13474TIP3   OH261912   0.402   0.896   0.634  0.2740  0.5661 -0.9227
13474TIP3    H161913   0.434   0.829   0.574  1.8405 -0.2560  0.7796
13474TIP3    H261914   0.311   0.872   0.651  0.5422 -0.5815 -1.0701
13475TIP3   OH261915   1.134   1.540   4.290  0.4242  0.2504  0.3171
13475TIP3    H161916   1.166   1.455   4.260  0.0842  0.4591 -0.6356
13475TIP3    H261917   1.072   1.567   4.223  0.9892  1.5330  0.3025
13476TIP3   OH261918   3.525   4.479   1.191 -0.4294  0.0169  0.0527
13476TIP3    H161919   3.577   4.400   1.174 -1.8010 -1.2086  1.3675
13476TIP3    H261920   3.465   4.484   1.117 -1.4184 -1.1012  0.7687
13477TIP3   OH261921   1.716   1.534   0.504  0.6178 -0.1291  0.2455
13477TIP3    H161922   1.621   1.526   0.519  0.7057 -1.5878  0.0700
13477TIP3    H261923   1.754   1.461   0.552  1.4425 -0.9545 -1.6043
13478TIP3   OH261924   2.256   0.188   6.294 -0.1784  0.4517 -0.3659
13478TIP3    H161925   2.306   0.212   6.216 -0.9584  1.3273 -0.6026
13478TIP3    H261926   2.239   0.094   6.285 -1.3267  0.7861 -1.8615
13479TIP3   OH261927   4.677   3.005  16.749 -0.0440 -0.3282  0.0969
13479TIP3    H161928   4.585   2.981  16.737 -0.3613  1.0712 -0.3585
13479TIP3    H261929   4.715   3.000  16.661  0.2952 -0.8201  0.2712
13480TIP3   OH261930   6.451   6.528   6.611  0.5275  0.0374  0.4118
13480TIP3    H161931   6.396   6.465   6.565 -0.0756  0.3947  0.6329
13480TIP3    H261932   6.512   6.475   6.662  1.3570 -0.3614 -0.9793
13481TIP3   OH261933   1.394   2.055   3.388  0.0396 -0.0361  1.1370
13481TIP3    H161934   1.435   2.050   3.475 -0.5441  0.3689  1.4360
13481TIP3    H261935   1.461   2.096   3.333  0.3023 -0.0175  1.4641
13482TIP3   OH261936   0.397   5.081   5.368 -0.4487  0.0890  0.3789
13482TIP3    H161937   0.361   5.057   5.453  0.5530 -1.0455  0.4964
13482TIP3    H261938   0.471   5.138   5.387  0.5189 -1.1235  0.3432
13483TIP3   OH261939   6.443   5.552  16.770 -0.3337  0.1833  0.4326
13483TIP3    H161940   6.381   5.609  16.815 -1.6408 -1.4249  0.7573
13483TIP3    H261941   6.519   5.607  16.752 -1.1799  1.7479  1.5490
13484TIP3   OH261942   2.402   2.201   4.834 -0.1738 -0.8068 -0.5483
13484TIP3    H161943   2.358   2.263   4.776 -0.9495  0.0880  0.9788
13484TIP3    H261944   2.374   2.226   4.922  1.5962 -1.6580  0.2824
13485TIP3   OH261945   1.188   3.603  11.998  0.3719 -0.0982 -0.1658
13485TIP3    H161946   1.211   3.510  12.007  0.9614  0.0882  0.2757
13485TIP3    H261947   1.271   3.647  11.982  0.0033  0.2671 -1.1522
13486TIP3   OH261948   3.910   3.471  16.407  0.2371  0.0201 -0.5750
13486TIP3    H161949   3.841   3.463  16.340  0.8547  0.6122 -1.2819
13486TIP3    H261950   3.953   3.554  16.387  0.4213  0.1985  0.5690
13487TIP3   OH261951   6.790   6.709   0.887 -0.5471  0.0684 -0.4752
13487TIP3    H161952   6.740   6.749   0.816 -0.5301  0.2199 -0.4037
13487TIP3    H261953   6.759   6.619   0.891 -1.1796  0.2959 -0.1044
13488TIP3   OH261954   5.720   6.073  12.456 -0.2428 -0.4772  0.1054
13488TIP3    H161955   5.651   6.136  12.481 -0.8634 -0.9551 -0.3842
13488TIP3    H261956   5.738   6.024  12.536  1.3231  1.3224  0.8909
13489TIP3   OH261957   5.388   4.885  11.934 -0.6636  0.0880  0.2055
13489TIP3    H161958   5.351   4.826  11.868  2.2831 -0.0747 -1.3526
13489TIP3    H261959   5.459   4.930  11.889  1.5865 -0.1995  3.3019
13490TIP3   OH261960   4.116   1.036  11.807  0.3362 -0.8195  0.4812
13490TIP3    H161961   4.153   1.122  11.828 -1.9610  0.0045  1.3065
13490TIP3    H261962   4.143   1.019  11.717  0.2537  1.0639  0.0886
13491TIP3   OH261963   0.722   2.478   1.456 -0.1196  0.6035  0.4735
13491TIP3    H161964   0.687   2.534   1.388 -4.1968 -2.3888 -0.0644
13491TIP3    H261965   0.715   2.389   1.420  3.3727 -0.5826  2.4403
13492TIP3   OH261966   2.149   4.724   0.201 -0.8078 -0.5940 -0.0072
13492TIP3    H161967   2.202   4.656   0.243 -0.5904  0.5187  1.5621
13492TIP3    H261968   2.096   4.760   0.272 -1.1138  0.6982 -0.8778
13493TIP3   OH261969   2.286   1.358  10.791  0.6307 -0.5471  0.4495
13493TIP3    H161970   2.266   1.281  10.844  0.8003 -3.4659 -3.5245
13493TIP3    H261971   2.367   1.336  10.746  0.1506  1.5478 -1.5578
13494TIP3   OH261972   0.145   4.298   3.701  0.0380  0.3996 -0.6267
13494TIP3    H161973   0.127   4.253   3.784 -0.3232  0.9975 -0.3761
13494TIP3    H261974   0.199   4.237   3.652  0.0831 -0.0467 -0.0291
13495TIP3   OH261975   6.487   4.194   4.553  0.2418 -0.1647 -0.7345
13495TIP3    H161976   6.469   4.124   4.616 -0.1068  0.7192  0.1657
13495TIP3    H261977   6.582   4.204   4.555  0.3779 -1.1558 -1.4768
13496TIP3   OH261978   4.449   5.520  14.394 -0.2842 -0.7102  0.1494
13496TIP3    H161979   4.536   5.501  14.429 -0.0165  0.6157  0.2146
13496TIP3    H261980   4.389   5.496  14.465  0.2465  1.8290  1.5218
13497TIP3   OH261981   3.692   0.956  12.535  0.3681  0.0614 -0.2529
13497TIP3    H161982   3.731   0.967  12.448  0.1352  1.4938 -0.1842
13497TIP3    H261983   3.598   0.964  12.521  0.2303 -1.0938 -0.0659
13498TIP3   OH261984   5.963   5.101  15.780 -0.9284  0.2003  0.3256
13498TIP3    H161985   5.892   5.120  15.719 -2.0045 -0.1324  1.4525
13498TIP3    H261986   6.042   5.131  15.735 -1.3213 -2.5518 -2.4128
13499TIP3   OH261987   1.326   4.580   2.566  0.0007 -0.3207  0.2465
13499TIP3    H161988   1.367   4.650   2.616 -0.7843  1.1206 -1.1023
13499TIP3    H261989   1.233   4.599   2.569 -0.1577 -0.8785 -0.7673
13500TIP3   OH261990   0.891   3.496  13.205 -0.2380 -0.5606 -0.2936
13500TIP3    H161991   0.970   3.492  13.259 -1.1645  0.2821  1.1469
13500TIP3    H261992   0.909   3.567  13.143  0.0712 -0.2765  0.1220
13501TIP3   OH261993   4.545   0.837   2.280  0.6296 -0.7525 -0.2131
13501TIP3    H161994   4.628   0.790   2.276  1.1369 -0.0260  1.2275
13501TIP3    H261995   4.479   0.768   2.283  1.3751 -1.4399  1.9602
13502TIP3   OH261996   4.745   3.870   1.612 -0.1583 -0.2051 -0.7127
13502TIP3    H161997   4.807   3.855   1.540  0.1345 -0.9528 -0.3072
13502TIP3    H261998   4.801   3.888   1.688 -0.4692  2.0273 -0.9611
13503TIP3   OH261999   1.611   3.505  15.168  0.1690 -0.4238  0.0032
13503TIP3    H162000   1.622   3.448  15.092 -0.6359  0.2275 -0.6120
13503TIP3    H262001   1.699   3.537  15.187  0.3460 -0.4381 -0.7742
13504TIP3   OH262002   2.424   2.942   2.632 -0.3240  0.3529 -0.5377
13504TIP3    H162003   2.499   2.955   2.690 -0.1501  2.3725 -1.1945
13504TIP3    H262004   2.411   2.847   2.630  1.8418  0.0348  0.0447
13505TIP3   OH262005   1.735   4.008  13.988 -0.2417 -0.3105  0.6738
13505TIP3    H162006   1.648   4.044  13.971  0.5958  1.4462 -0.0585
13505TIP3    H262007   1.754   3.953  13.912 -0.5308 -0.3254  0.6148
13506TIP3   OH262008   1.704   5.446  13.127  0.0130  0.0770  0.1054
13506TIP3    H162009   1.624   5.441  13.179  0.2575 -0.0639  0.4641
13506TIP3    H262010   1.733   5.355  13.117  0.2780  0.1495  0.2060
13507TIP3   OH262011   5.008   3.179  15.891  0.2441  0.1473  0.6896
13507TIP3    H162012   4.934   3.223  15.934  0.1212  1.5506 -0.8763
13507TIP3    H262013   4.974   3.092  15.868 -1.2247  1.0327 -0.6855
13508TIP3   OH262014   0.123   3.415  15.211 -0.6513  0.0736 -0.1255
13508TIP3    H162015   0.058   3.475  15.175 -0.7824  0.4979  0.8033
13508TIP3    H262016   0.093   3.328  15.184 -1.5475  0.2797  0.2056
13509TIP3   OH262017   4.069   6.036   0.394 -0.2493 -0.1278 -0.3881
13509TIP3    H162018   4.072   5.963   0.333  1.9571 -0.4846  0.1198
13509TIP3    H262019   4.149   6.085   0.378 -0.7886  1.1169  0.5953
13510TIP3   OH262020   2.081   0.868   3.957  0.3028  0.4081 -0.3316
13510TIP3    H162021   2.133   0.791   3.937 -1.3511 -0.5468 -1.1091
13510TIP3    H262022   2.045   0.851   4.044 -1.9278 -0.7994 -1.4418
13511TIP3   OH262023   4.629   4.474  16.209  0.6772  0.1076 -0.6152
13511TIP3    H162024   4.667   4.462  16.122  1.0797  0.5899 -0.5119
13511TIP3    H262025   4.622   4.386  16.245  4.6095  0.1728  0.5668
13512TIP3   OH262026   0.376   3.437   4.465  0.0449  0.2392 -0.2905
13512TIP3    H162027   0.403   3.370   4.527 -0.1553  0.5229  0.1031
13512TIP3    H262028   0.321   3.391   4.401  1.5671 -0.3753 -1.1856
13513TIP3   OH262029   6.093   3.836   4.574 -0.2606  0.4102  0.2267
13513TIP3    H162030   6.064   3.803   4.659 -0.6121 -0.6148 -0.2789
13513TIP3    H262031   6.027   3.901   4.550 -0.4821  0.2774  0.4720
13514TIP3   OH262032   4.720   5.932   6.824  0.3029 -0.2116 -0.4422
13514TIP3    H162033   4.625   5.937   6.811  0.1595  0.8212  0.9144
13514TIP3    H262034   4.743   6.016   6.864  1.8443 -0.3273 -1.0513
13515TIP3   OH262035   6.453   0.293  11.220  0.5847  0.0445  0.1676
13515TIP3    H162036   6.445   0.200  11.239 -0.7513  0.2484  0.6062
13515TIP3    H262037   6.397   0.307  11.143  0.5553  0.5407  0.2775
13516TIP3   OH262038   1.005   6.245  12.583  0.3440 -0.0060 -0.2862
13516TIP3    H162039   1.099   6.227  12.579  0.5076  0.8739 -0.4303
13516TIP3    H262040   0.973   6.222  12.495  0.4982  0.1181 -0.3746
13517TIP3   OH262041   1.767   4.790  13.915  0.4794  0.1302 -0.4048
13517TIP3    H162042   1.779   4.698  13.891  0.4497  0.4640 -1.7502
13517TIP3    H262043   1.672   4.801  13.918  0.4798  0.2407 -0.7571
13518TIP3   OH262044   0.472   5.454   4.890  0.1936  0.4880 -0.1415
13518TIP3    H162045   0.431   5.368   4.887  0.8700  0.1821 -0.7204
13518TIP3    H262046   0.524   5.453   4.971  0.9465 -0.0015 -0.6177
13519TIP3   OH262047   4.712   5.986  15.167 -0.1407  0.5512 -0.5608
13519TIP3    H162048   4.714   5.944  15.253  2.1093  0.6869 -0.5306
13519TIP3    H262049   4.619   5.988  15.144 -1.0056  2.1015  2.6657
13520TIP3   OH262050   0.806   2.498   2.731 -0.1537 -0.2771  0.4952
13520TIP3    H162051   0.755   2.565   2.776 -1.1866  0.3847 -1.6151
13520TIP3    H262052   0.871   2.547   2.681 -1.4260 -0.7527 -1.7072
13521TIP3   OH262053   2.161   5.087   6.157 -0.4217  0.6700  0.0293
13521TIP3    H162054   2.081   5.139   6.155 -0.6828  0.3591  1.6374
13521TIP3    H262055   2.210   5.122   6.232  0.5389  0.2553 -0.3951
13522TIP3   OH262056   3.272   0.048   0.081  0.2785 -0.0311 -0.2259
13522TIP3    H162057   3.208   0.061   0.150  0.2164 -1.0739 -0.0834
13522TIP3    H262058   3.266  -0.045   0.059  2.1182 -0.2685  0.1704
13523TIP3   OH262059   4.761   5.522   4.717  0.1317  0.1350  0.3735
13523TIP3    H162060   4.765   5.615   4.695  0.3575  0.2360  0.8324
13523TIP3    H262061   4.735   5.479   4.636 -0.2777  0.6334  0.2433
13524TIP3   OH262062   1.248   1.371  15.781  0.3029  0.7278  0.6817
13524TIP3    H162063   1.176   1.332  15.732 -0.3913 -0.7345  2.8124
13524TIP3    H262064   1.326   1.346  15.732 -0.5313  1.5173 -1.1135
13525TIP3   OH262065   3.939   4.934   0.735 -0.6803  0.6463  1.0813
13525TIP3    H162066   4.016   4.973   0.693 -1.4456  1.3673  0.3167
13525TIP3    H262067   3.869   4.948   0.672 -1.2557 -0.7848  1.4004
13526TIP3   OH262068   1.795   3.751   6.243 -0.2376 -0.6218  0.1231
13526TIP3    H162069   1.830   3.746   6.154 -0.5992 -0.5889 -0.0216
13526TIP3    H262070   1.738   3.675   6.251  0.0913 -0.8300  0.4568
13527TIP3   OH262071   4.698   6.302   0.667 -0.3198  0.8291 -0.5406
13527TIP3    H162072   4.667   6.219   0.704  1.4997 -0.1519 -1.1301
13527TIP3    H262073   4.689   6.289   0.572  2.1195  0.3894 -0.7422
13528TIP3   OH262074   5.111   4.475   5.631 -0.8560  0.8630 -0.6552
13528TIP3    H162075   5.043   4.459   5.565 -1.0249  2.7280 -0.9453
13528TIP3    H262076   5.172   4.534   5.589  0.5306 -0.1521 -0.0954
13529TIP3   OH262077   0.334   4.110   6.062  0.0112 -0.3952  0.4301
13529TIP3    H162078   0.261   4.055   6.035  0.8292 -1.1294 -0.3564
13529TIP3    H262079   0.294   4.189   6.097 -1.1449 -0.5809 -0.4505
13530TIP3   OH262080   2.280   2.618  16.447 -0.5725  0.3378 -0.5683
13530TIP3    H162081   2.222   2.671  16.392  0.4048  0.2947 -1.6860
13530TIP3    H262082   2.362   2.667  16.448 -0.4987  0.1924  0.6460
13531TIP3   OH262083   0.564   2.910  13.071 -0.8638 -0.6478 -0.0421
13531TIP3    H162084   0.561   2.819  13.040  0.3820 -0.4771 -0.7214
13531TIP3    H262085   0.647   2.944  13.038  0.0826 -0.1464  2.6885
13532TIP3   OH262086   0.336   0.700   1.368 -0.4076  0.4446  0.2627
13532TIP3    H162087   0.313   0.630   1.429 -0.3233 -1.3351 -1.6730
13532TIP3    H262088   0.407   0.747   1.410  0.4899 -1.5224  1.0001
13533TIP3   OH262089   1.285   0.010   3.170  0.2078 -0.4542  0.3330
13533TIP3    H162090   1.276   0.095   3.214 -1.3052  0.2072 -1.2029
13533TIP3    H262091   1.245  -0.052   3.230 -0.3771  0.1913  0.6126
13534TIP3   OH262092   5.364   1.323  14.928  0.1363  0.9646 -0.4495
13534TIP3    H162093   5.327   1.242  14.964  1.8082 -0.4748 -1.8473
13534TIP3    H262094   5.425   1.353  14.995  0.0120  0.6785 -0.2053
13535TIP3   OH262095   1.351   3.296   2.647  0.3215  0.1339 -0.7820
13535TIP3    H162096   1.279   3.316   2.587 -0.1936 -0.1307 -0.2513
13535TIP3    H262097   1.382   3.382   2.677  0.8254  0.2825 -1.7135
13536TIP3   OH262098   6.406   4.846   3.409 -0.1057  0.7874  0.5439
13536TIP3    H162099   6.432   4.911   3.344 -0.3600  1.8666  1.5242
13536TIP3    H262100   6.410   4.763   3.362 -1.7666  1.7193 -1.2797
13537TIP3   OH262101   0.679   4.018  15.852  0.2853 -0.2251 -0.1589
13537TIP3    H162102   0.725   4.046  15.773  0.6378  0.5411  0.3067
13537TIP3    H262103   0.743   4.030  15.922 -0.8443  1.4917  0.5976
13538TIP3   OH262104   6.204   4.668   6.373  0.4522 -0.1918 -0.0410
13538TIP3    H162105   6.251   4.708   6.446 -0.8726  2.6132 -0.6410
13538TIP3    H262106   6.130   4.623   6.415 -0.1543  1.1788  0.4113
13539TIP3   OH262107   2.238   4.457   0.352 -0.7531 -0.3697 -0.4723
13539TIP3    H162108   2.296   4.404   0.297 -0.0686 -0.9367  0.7552
13539TIP3    H262109   2.193   4.393   0.408  1.2228  0.3702  2.1045
13540TIP3   OH262110   3.267   2.390   0.409 -0.3082  0.2288  0.2331
13540TIP3    H162111   3.315   2.467   0.441 -0.4767 -0.3209  1.8336
13540TIP3    H262112   3.334   2.337   0.365  0.0455  0.6858  0.2080
13541TIP3   OH262113   0.007   3.027   6.111 -0.8405 -0.0927  0.0731
13541TIP3    H162114  -0.076   3.072   6.127  0.6548  2.9833 -0.5512
13541TIP3    H262115   0.043   3.012   6.198 -1.0070  0.5929  0.2630
13542TIP3   OH262116   2.939   4.660  11.029 -0.3281 -0.1564  0.0009
13542TIP3    H162117   2.888   4.715  10.970  0.8340 -0.0538 -0.9392
13542TIP3    H262118   2.892   4.663  11.112 -0.2202  2.3954  0.0160
13543TIP3   OH262119   2.034   5.145   1.099 -0.0673  0.7984  0.5427
13543TIP3    H162120   2.129   5.159   1.107  0.2679 -0.1204 -1.4113
13543TIP3    H262121   2.014   5.080   1.167  0.6958  1.0504  1.0176
13544TIP3   OH262122   2.518   5.651   2.590  0.5933 -0.2176  0.5644
13544TIP3    H162123   2.595   5.701   2.562 -0.0499  0.8536  0.6912
13544TIP3    H262124   2.449   5.679   2.531 -0.1779  0.2568  1.6943
13545TIP3   OH262125   3.666   3.840   1.497  0.1572  0.0995  0.2894
13545TIP3    H162126   3.762   3.835   1.499  0.2367  1.5617  2.1470
13545TIP3    H262127   3.638   3.754   1.468  2.0184 -0.6137  0.5098
13546TIP3   OH262128   5.230   2.706  13.880 -0.1601 -0.5045  0.1191
13546TIP3    H162129   5.233   2.639  13.948 -1.8275  1.1125  1.8694
13546TIP3    H262130   5.233   2.789  13.928  0.8595  0.7052 -1.9307
13547TIP3   OH262131   1.439   0.481   5.441  0.3557 -0.7721 -0.0910
13547TIP3    H162132   1.438   0.576   5.440 -0.0807 -0.7827 -1.0720
13547TIP3    H262133   1.524   0.457   5.405  0.6309 -0.7562  0.5369
13548TIP3   OH262134   2.002   2.422  10.974 -0.1395 -0.1237  0.0720
13548TIP3    H162135   1.916   2.382  10.982 -0.6058  0.9554  0.5905
13548TIP3    H262136   2.040   2.413  11.062  0.6471 -1.4018 -0.3851
13549TIP3   OH262137   5.576   5.244  14.357  0.3715  0.5849  0.7153
13549TIP3    H162138   5.623   5.168  14.325  1.3187  1.1945  0.6560
13549TIP3    H262139   5.539   5.284  14.279 -0.2280  0.1237  0.7606
13550TIP3   OH262140   4.617   5.256   1.909 -0.0547 -0.2203  0.7803
13550TIP3    H162141   4.675   5.251   1.833 -1.4720 -1.1335 -0.2633
13550TIP3    H262142   4.676   5.257   1.984  1.3114 -2.9082 -0.1760
13551TIP3   OH262143   4.225   0.279  16.809  0.1791  0.6289  0.3039
13551TIP3    H162144   4.317   0.285  16.838 -0.4007  1.8023  1.9953
13551TIP3    H262145   4.178   0.340  16.866 -1.8581 -0.8500  0.2526
13552TIP3   OH262146   2.380   1.088   1.551  0.3032  0.7511 -0.1788
13552TIP3    H162147   2.471   1.067   1.530  0.4648  0.8058  0.4771
13552TIP3    H262148   2.328   1.034   1.491  0.7522  0.2308 -0.0927
13553TIP3   OH262149   1.130   3.048   1.038  0.4415 -0.0072 -0.5431
13553TIP3    H162150   1.060   3.020   0.979  1.1551  0.0436 -1.4280
13553TIP3    H262151   1.202   2.988   1.020  0.1972 -0.8894  1.2991
13554TIP3   OH262152   4.356   1.852  14.146  0.1512  0.2278  0.1121
13554TIP3    H162153   4.265   1.843  14.117  0.7356 -0.8496 -1.4708
13554TIP3    H262154   4.351   1.854  14.241 -1.6143  1.1099  0.0068
13555TIP3   OH262155   4.241   6.241  11.163 -0.4953 -0.0047 -0.1717
13555TIP3    H162156   4.327   6.259  11.201  0.2821 -0.1419 -1.8436
13555TIP3    H262157   4.205   6.327  11.143 -0.4188  0.0174 -0.2125
13556TIP3   OH262158   1.754   3.549  11.887  0.5285  0.7657  0.7290
13556TIP3    H162159   1.738   3.644  11.891  0.7843  0.8258  0.4100
13556TIP3    H262160   1.850   3.542  11.881  0.4703  0.5169  0.0433
13557TIP3   OH262161   6.037   4.521  11.478 -0.4237  0.0030  0.4285
13557TIP3    H162162   5.986   4.443  11.496  0.2855 -0.6624 -0.3838
13557TIP3    H262163   6.076   4.505  11.392 -0.1335  1.1743  0.3305
13558TIP3   OH262164   2.768   0.264  12.807  0.6526 -0.5590 -0.3842
13558TIP3    H162165   2.743   0.283  12.717 -1.6384  1.5758  0.6345
13558TIP3    H262166   2.816   0.341  12.836  0.6408 -0.8609  0.4675
13559TIP3   OH262167   2.489   2.918  14.250  0.0827 -0.2241  0.3538
13559TIP3    H162168   2.420   2.912  14.185 -0.3085 -0.2701  0.7704
13559TIP3    H262169   2.563   2.958  14.204 -0.6672  1.0601  0.2668
13560TIP3   OH262170   5.798   1.498   2.246  0.5072  0.2651  0.6150
13560TIP3    H162171   5.727   1.458   2.297  1.2506 -1.0210  0.6793
13560TIP3    H262172   5.754   1.557   2.185 -0.5327  0.3354  1.4229
13561TIP3   OH262173   1.035   0.870   2.558 -0.8890  0.2832 -0.2280
13561TIP3    H162174   1.030   0.801   2.624  0.2462  0.9065  0.5115
13561TIP3    H262175   0.949   0.912   2.561 -1.0296 -0.0448  0.4501
13562TIP3   OH262176   5.493   1.625   4.474  0.5517  0.1457 -0.6771
13562TIP3    H162177   5.551   1.556   4.508 -0.7335  0.0210  1.3155
13562TIP3    H262178   5.448   1.584   4.400  1.9439 -0.2035 -1.3518
13563TIP3   OH262179   6.476   4.907  10.810 -0.0380 -0.0387 -0.5129
13563TIP3    H162180   6.479   4.812  10.821  1.9113  0.0666  0.1738
13563TIP3    H262181   6.456   4.921  10.718  0.0285 -1.1109 -0.6904
13564TIP3   OH262182   0.608   6.673   4.870 -0.3079  0.1451 -0.2655
13564TIP3    H162183   0.653   6.711   4.794 -1.6167  2.3711  0.0171
13564TIP3    H262184   0.631   6.731   4.943 -0.2219 -1.1413  0.7489
13565TIP3   OH262185   3.196   5.707  13.269 -0.1238  0.2117 -0.2068
13565TIP3    H162186   3.164   5.640  13.209 -0.5938 -0.0431  0.3278
13565TIP3    H262187   3.123   5.724  13.328 -0.0990  1.3708 -0.4839
13566TIP3   OH262188   6.676   1.515  11.252 -0.1479  0.3798 -0.2337
13566TIP3    H162189   6.695   1.585  11.190 -2.2236  1.8107  0.7171
13566TIP3    H262190   6.583   1.498  11.242 -0.0187 -1.0305  0.8016
13567TIP3   OH262191   0.615   1.716   2.567 -0.0402 -0.0508 -0.2024
13567TIP3    H162192   0.679   1.770   2.613  2.5998 -1.8212 -1.7170
13567TIP3    H262193   0.576   1.775   2.503  1.5651  0.5235 -0.6677
13568TIP3   OH262194   1.505   0.997   4.331  1.0367  0.0843 -0.1159
13568TIP3    H162195   1.592   0.981   4.368  0.0221 -1.4568  1.6814
13568TIP3    H262196   1.450   1.015   4.407 -0.7255 -1.3810 -1.0037
13569TIP3   OH262197   3.299   4.029   2.886 -0.2031 -0.5531 -0.2367
13569TIP3    H162198   3.262   4.117   2.880 -1.0466 -0.9203 -0.4001
13569TIP3    H262199   3.332   4.023   2.976  1.1224  0.4249 -0.6346
13570TIP3   OH262200   5.346   1.863   2.861 -0.3007 -0.0086  0.1323
13570TIP3    H162201   5.427   1.865   2.809 -0.7609 -0.6906 -0.6361
13570TIP3    H262202   5.282   1.910   2.808 -1.0416 -1.5740 -0.4097
13571TIP3   OH262203   4.196   4.194  12.593  0.0889 -0.5638  0.0665
13571TIP3    H162204   4.172   4.242  12.513  0.7989  0.2458  0.3371
13571TIP3    H262205   4.158   4.245  12.664 -0.6027 -1.3250  0.2484
13572TIP3   OH262206   0.541   6.564   5.271  0.0149  0.5921  0.4006
13572TIP3    H162207   0.480   6.533   5.338  0.4918 -1.0781  0.0783
13572TIP3    H262208   0.495   6.552   5.188  1.2305 -1.9096  0.0411
13573TIP3   OH262209   2.048   0.653  15.105 -0.5404 -0.3187  0.9753
13573TIP3    H162210   2.094   0.571  15.088  0.6091  0.6562 -0.8357
13573TIP3    H262211   1.966   0.645  15.055  0.3550  0.3207 -0.6194
13574TIP3   OH262212   2.921   5.647   0.939 -0.8452  0.6481  0.4794
13574TIP3    H162213   3.017   5.651   0.937 -0.6830 -2.2909 -0.0695
13574TIP3    H262214   2.894   5.690   0.858  0.0822  0.3016 -0.0297
13575TIP3   OH262215   2.536   1.231  12.966 -0.3628  0.2470  0.1821
13575TIP3    H162216   2.606   1.175  12.999  0.6756  0.1213 -2.1821
13575TIP3    H262217   2.518   1.291  13.039  2.6430  0.6976  0.6053
13576TIP3   OH262218   0.210   2.802   3.552 -0.3445 -0.0492  0.7460
13576TIP3    H162219   0.206   2.720   3.600 -3.5460 -0.1099  0.5062
13576TIP3    H262220   0.245   2.865   3.615  0.3648 -1.1884  1.5073
13577TIP3   OH262221   2.082   4.273  13.128 -0.1399 -0.0505 -0.0565
13577TIP3    H162222   2.104   4.365  13.142  0.5973 -0.3115  0.5502
13577TIP3    H262223   1.998   4.261  13.172  0.1569  0.1418  0.5617
13578TIP3   OH262224   1.538   0.490  14.001  0.7992  0.1951  0.2275
13578TIP3    H162225   1.526   0.573  14.049  1.1684  0.7480 -0.6319
13578TIP3    H262226   1.542   0.423  14.070 -2.5765  0.5174  0.7833
13579TIP3   OH262227   6.643   1.531   0.272  0.6299  0.4380 -0.2840
13579TIP3    H162228   6.564   1.546   0.222  0.8366  2.3995 -0.0865
13579TIP3    H262229   6.643   1.437   0.291 -1.5038  0.3686 -0.5002
13580TIP3   OH262230   1.555   1.002   1.463 -0.1793  0.0281  0.6117
13580TIP3    H162231   1.620   0.943   1.500 -2.1506 -2.3732  0.3917
13580TIP3    H262232   1.586   1.020   1.374  0.4101 -0.7341  0.6640
13581TIP3   OH262233   0.098   0.565  16.292 -0.6934 -0.2467  0.1103
13581TIP3    H162234   0.086   0.587  16.200 -0.1965 -1.8917 -0.3668
13581TIP3    H262235   0.099   0.469  16.294  1.7519 -0.2230  1.4931
13582TIP3   OH262236   4.806   4.591  12.320 -0.4084  0.0195 -0.2177
13582TIP3    H162237   4.885   4.571  12.371 -1.4109  0.2587  1.4817
13582TIP3    H262238   4.824   4.554  12.233  1.5894  0.1226  0.1096
13583TIP3   OH262239   6.298   5.733  14.691 -0.2174 -0.2680  0.8569
13583TIP3    H162240   6.374   5.772  14.734 -0.2791 -0.6341  1.3086
13583TIP3    H262241   6.252   5.687  14.761 -2.1145  1.8613  1.0566
13584TIP3   OH262242   6.721   5.542   2.907  0.3834 -0.3000 -0.1077
13584TIP3    H162243   6.810   5.514   2.888  0.9122  1.4455 -0.2399
13584TIP3    H262244   6.706   5.616   2.848 -1.0458 -0.3989  0.1175
13585TIP3   OH262245   5.405   6.694   1.646 -0.0608 -0.3891 -0.0555
13585TIP3    H162246   5.471   6.641   1.601  0.1210 -0.5080  0.3545
13585TIP3    H262247   5.422   6.783   1.616  0.6331 -0.3397  0.4708
13586TIP3   OH262248   4.294   4.515  14.371 -0.3861 -0.1389  0.0897
13586TIP3    H162249   4.239   4.453  14.323 -0.7732  1.3657 -1.4395
13586TIP3    H262250   4.251   4.525  14.455 -2.0548  0.4626 -0.8262
13587TIP3   OH262251   4.325   5.570   2.744 -0.0823  0.3574  0.5463
13587TIP3    H162252   4.376   5.500   2.786 -1.0045 -0.3195  0.5379
13587TIP3    H262253   4.335   5.645   2.803 -0.0726 -0.1298  1.1694
13588TIP3   OH262254   0.841   2.367   5.888 -0.1153  0.7629  0.1929
13588TIP3    H162255   0.894   2.447   5.891 -0.4020  0.9234  1.2040
13588TIP3    H262256   0.832   2.341   5.980 -1.2876  0.4113 -0.0168
13589TIP3   OH262257   4.753   6.359  11.585 -0.3562 -0.0313  0.3119
13589TIP3    H162258   4.715   6.446  11.599 -0.1837 -0.3103  2.7115
13589TIP3    H262259   4.682   6.298  11.605 -0.2425 -0.4677 -0.5889
13590TIP3   OH262260   3.499   3.070  11.622  0.8158  0.2512 -0.0274
13590TIP3    H162261   3.521   3.138  11.558 -1.2222  0.2928 -0.7209
13590TIP3    H262262   3.526   2.988  11.580 -0.6645  0.2623 -1.0417
13591TIP3   OH262263   1.045   1.199  16.614  0.6468 -0.4449  0.0111
13591TIP3    H162264   1.134   1.165  16.624  1.7581  2.8621  2.2573
13591TIP3    H262265   1.044   1.239  16.527  2.0145  1.1262  0.6818
13592TIP3   OH262266   4.482   4.212   0.908  0.6330  0.0655 -0.1354
13592TIP3    H162267   4.505   4.261   0.829  1.1333  1.4856  0.8716
13592TIP3    H262268   4.426   4.272   0.957  0.4804 -0.7363  0.6697
13593TIP3   OH262269   1.751   4.368   6.068 -0.0520 -0.5487  0.0289
13593TIP3    H162270   1.728   4.294   6.124  0.9227 -1.3835 -0.6621
13593TIP3    H262271   1.844   4.384   6.087  0.1158 -0.4293 -0.9016
13594TIP3   OH262272   4.679   3.755  15.584  0.4337  0.0505  0.4918
13594TIP3    H162273   4.688   3.662  15.605 -1.3304 -0.1695  0.4029
13594TIP3    H262274   4.668   3.798  15.669  1.2507  0.1867  0.5319
13595TIP3   OH262275   5.749   0.949   1.043  0.0606  0.4167  0.2526
13595TIP3    H162276   5.819   0.893   1.008 -1.8829 -2.5467  0.9525
13595TIP3    H262277   5.688   0.961   0.970 -0.5873 -0.1311  0.6974
13596TIP3   OH262278   5.850   4.066   2.707 -0.3089 -0.0554  0.8035
13596TIP3    H162279   5.934   4.046   2.749 -0.1887 -0.5132  0.3547
13596TIP3    H262280   5.871   4.067   2.613 -1.2043 -2.1974  0.5384
13597TIP3   OH262281   0.738   5.224  12.754  0.6822 -0.1250  0.2772
13597TIP3    H162282   0.655   5.207  12.708  0.2449  0.3327  0.8818
13597TIP3    H262283   0.793   5.267  12.689  0.3532 -0.1942 -0.0527
13598TIP3   OH262284   3.448   3.869  16.263 -0.0647 -0.0437  0.4664
13598TIP3    H162285   3.363   3.827  16.250  0.3635 -0.5630 -0.6632
13598TIP3    H262286   3.475   3.896  16.176  0.5283  0.9099  0.9427
13599TIP3   OH262287   2.509   4.341   2.589  0.0018 -0.0384 -0.3854
13599TIP3    H162288   2.457   4.271   2.627  0.1937  0.7722  1.4160
13599TIP3    H262289   2.581   4.355   2.651  0.1291  1.5402 -0.8448
13600TIP3   OH262290   4.913   5.154   5.586 -0.1180 -0.0594 -0.5041
13600TIP3    H162291   4.984   5.120   5.640 -0.8503  0.6185  0.9092
13600TIP3    H262292   4.928   5.115   5.500  1.2561 -0.8927  0.0911
13601TIP3   OH262293   5.909   1.108  17.225  0.1469  0.1925  0.0822
13601TIP3    H162294   5.984   1.118  17.284  2.3152  0.1800 -2.5900
13601TIP3    H262295   5.896   1.195  17.187  0.8542 -0.4861 -1.7971
13602TIP3   OH262296   5.236   3.785  14.866 -0.1120 -0.3418  0.3003
13602TIP3    H162297   5.308   3.847  14.864 -0.4925  0.1771  1.9780
13602TIP3    H262298   5.217   3.773  14.959 -1.9293 -0.7685 -0.0998
13603TIP3   OH262299   3.605   3.661  15.784  0.2178 -0.2289  0.3368
13603TIP3    H162300   3.537   3.632  15.724 -1.0599  0.4267  1.4408
13603TIP3    H262301   3.634   3.581  15.828  0.2930 -0.5340 -0.2600
13604TIP3   OH262302   6.336   1.405   1.537 -0.4325 -0.4237  0.0937
13604TIP3    H162303   6.260   1.377   1.485 -1.2477 -1.6471  1.8891
13604TIP3    H262304   6.401   1.336   1.523  0.4463  0.6812 -1.5365
13605TIP3   OH262305   1.676   2.126  16.628 -0.1784  0.1616 -0.3929
13605TIP3    H162306   1.599   2.146  16.682 -1.2450  1.2058 -2.2297
13605TIP3    H262307   1.641   2.078  16.553  1.3032 -1.4520 -0.0770
13606TIP3   OH262308   3.915   1.220  13.866 -0.2471 -0.3675 -0.1145
13606TIP3    H162309   3.822   1.233  13.846 -0.1313  0.2554 -0.2574
13606TIP3    H262310   3.955   1.199  13.782  0.0216  0.9912 -0.3340
13607TIP3   OH262311   4.816   0.455  17.181  0.0113  0.1704 -0.0344
13607TIP3    H162312   4.848   0.542  17.159  0.8026  0.1829  1.0757
13607TIP3    H262313   4.874   0.426  17.252 -1.4038 -0.5144  0.8602
13608TIP3   OH262314   1.403   4.930  13.705 -0.1986  0.0732  0.4110
13608TIP3    H162315   1.386   4.969  13.791 -0.8039 -1.7027  1.1248
13608TIP3    H262316   1.337   4.861  13.697 -1.5254  1.5849 -2.3993
13609TIP3   OH262317   1.798   0.196   4.121  0.3276  0.7665  0.3761
13609TIP3    H162318   1.708   0.223   4.103  0.1822  0.0145 -0.0899
13609TIP3    H262319   1.798   0.172   4.213 -0.1860 -0.0934  0.1620
13610TIP3   OH262320   6.773   4.512   4.317 -0.6160 -0.1304 -0.4227
13610TIP3    H162321   6.682   4.541   4.318 -0.3123  0.9618 -2.3682
13610TIP3    H262322   6.823   4.587   4.285  1.1248 -0.3660  1.5634
13611TIP3   OH262323   5.989   0.997   4.821 -0.2182  0.2773 -0.3424
13611TIP3    H162324   6.049   0.931   4.855  0.5831  0.9422 -0.4503
13611TIP3    H262325   5.919   1.001   4.886 -0.5625 -1.0865 -0.6285
13612TIP3   OH262326   0.265   3.823   2.610 -0.0394 -0.2675 -0.6744
13612TIP3    H162327   0.201   3.858   2.548 -0.9393 -3.1414 -1.4128
13612TIP3    H262328   0.348   3.828   2.563 -0.0352  1.4248 -0.5297
13613TIP3   OH262329   6.006   0.365  16.376  0.3739 -1.0312 -0.3530
13613TIP3    H162330   6.090   0.411  16.380  0.8568 -1.7540 -1.8487
13613TIP3    H262331   5.975   0.364  16.466  1.3876  0.3212  0.0289
13614TIP3   OH262332   5.056   5.542   2.087 -0.0236  0.2084  0.2330
13614TIP3    H162333   4.970   5.552   2.127  0.0803 -1.1902  0.8555
13614TIP3    H262334   5.112   5.603   2.135 -0.7279  1.3542 -0.3881
13615TIP3   OH262335   6.078   6.494   2.598 -0.4960 -0.0088  0.3812
13615TIP3    H162336   6.099   6.586   2.585 -0.2938 -0.1373 -0.2295
13615TIP3    H262337   6.024   6.471   2.522  2.0249 -1.2016 -1.0982
13616TIP3   OH262338   5.828   3.299  14.411 -0.2135  0.8084  0.1262
13616TIP3    H162339   5.834   3.226  14.473 -2.2030  0.7333  0.2835
13616TIP3    H262340   5.841   3.377  14.465 -2.0550  0.7503  0.6969
13617TIP3   OH262341   5.924   1.402  15.547  0.3745  0.3220 -0.3573
13617TIP3    H162342   5.914   1.478  15.489 -1.6913 -0.4887 -1.1175
13617TIP3    H262343   5.999   1.355  15.511 -0.2014  0.4141 -1.7215
13618TIP3   OH262344   2.226   5.137   0.694 -0.3652 -0.0869 -0.2314
13618TIP3    H162345   2.307   5.093   0.668 -0.9061 -0.3236 -1.5323
13618TIP3    H262346   2.255   5.209   0.750  0.7980  0.3094 -1.3190
13619TIP3   OH262347   4.404   6.684  14.086  0.2570 -0.6926 -0.3160
13619TIP3    H162348   4.462   6.758  14.069 -1.5718  1.1330  1.1003
13619TIP3    H262349   4.366   6.663  14.000  0.3676  0.3766 -0.6329
13620TIP3   OH262350   5.152   3.964  10.914  0.3410 -0.0005  0.2323
13620TIP3    H162351   5.170   3.940  10.823  0.3785 -3.2058  1.0154
13620TIP3    H262352   5.220   4.027  10.937  0.3805  0.7733 -1.9350
13621TIP3   OH262353   4.032   3.744   0.466 -0.1443  0.2116  0.5652
13621TIP3    H162354   4.102   3.680   0.477  0.7951  0.8210 -1.6248
13621TIP3    H262355   3.973   3.728   0.541  2.4764 -0.0562  2.6491
13622TIP3   OH262356   3.903   6.181   1.567  0.2606  0.6348 -0.2225
13622TIP3    H162357   3.818   6.189   1.609  0.5676  1.6839  0.1992
13622TIP3    H262358   3.963   6.160   1.638  0.5810  1.2071 -0.3261
13623TIP3   OH262359   2.188   1.617   5.516 -0.2543  0.2534  0.2313
13623TIP3    H162360   2.131   1.586   5.445 -1.1678  2.5181 -0.0464
13623TIP3    H262361   2.129   1.630   5.590  0.3925 -0.1896  0.8324
13624TIP3   OH262362   6.421   6.502  15.087 -0.0547  0.3474 -0.0375
13624TIP3    H162363   6.373   6.583  15.071  0.0852  0.6087  0.8397
13624TIP3    H262364   6.364   6.434  15.051 -1.4134  0.5915  1.5832
13625TIP3   OH262365   4.917   5.773  17.171  0.2307 -0.5897 -0.1044
13625TIP3    H162366   4.827   5.803  17.187  0.2331  0.4050 -1.8510
13625TIP3    H262367   4.972   5.846  17.198  0.4072 -0.4499 -0.8115
13626TIP3   OH262368   5.409   0.638  14.267  0.6579 -0.8168 -0.2357
13626TIP3    H162369   5.337   0.692  14.300  0.8343 -1.8084  1.8704
13626TIP3    H262370   5.368   0.556  14.241  0.9578 -1.2388  0.5986
13627TIP3   OH262371   2.457   3.582  12.258  0.3252 -0.0208 -0.0736
13627TIP3    H162372   2.460   3.571  12.353  1.7192  2.7691  0.2552
13627TIP3    H262373   2.456   3.677  12.245  1.3474 -0.3641 -2.8755
13628TIP3   OH262374   0.710   3.959   5.119 -0.3915  0.3279  0.5324
13628TIP3    H162375   0.751   4.042   5.097  0.7483 -0.2300  0.4974
13628TIP3    H262376   0.784   3.902   5.143 -0.8210 -1.7336 -2.8202
13629TIP3   OH262377   2.357   2.809  16.779  0.0296 -0.4870 -0.1010
13629TIP3    H162378   2.294   2.817  16.706  1.0549 -1.1654 -1.0774
13629TIP3    H262379   2.322   2.739  16.833 -1.3776  0.8204  0.7307
13630TIP3   OH262380   2.058   0.238   4.703 -0.0401 -0.6071 -0.0627
13630TIP3    H162381   2.111   0.211   4.778 -2.5532  0.2814  2.1265
13630TIP3    H262382   2.082   0.329   4.687  0.8082 -0.9274 -0.6221
13631TIP3   OH262383   6.412   1.086   3.660  0.1178  0.3213  0.1553
13631TIP3    H162384   6.457   1.152   3.713 -0.5800  1.2966 -0.4440
13631TIP3    H262385   6.482   1.037   3.618  0.6397  1.7536 -0.6893
13632TIP3   OH262386   6.035   0.082   5.314 -0.0691 -0.5058  0.0573
13632TIP3    H162387   6.050   0.166   5.358 -0.0157  0.5365 -1.8821
13632TIP3    H262388   6.085   0.018   5.365  0.9400  0.8640  0.8137
13633TIP3   OH262389   0.203   6.602  10.991 -0.3596 -0.7427 -0.0374
13633TIP3    H162390   0.172   6.581  10.903 -0.1757  0.3637 -0.3685
13633TIP3    H262391   0.178   6.526  11.044  0.2314 -1.7618 -1.2017
13634TIP3   OH262392   0.535   5.558   3.646  0.4392  0.0285 -0.1244
13634TIP3    H162393   0.603   5.509   3.692  1.0282  0.8789 -0.0671
13634TIP3    H262394   0.453   5.530   3.687  0.7723 -0.8722 -0.0768
13635TIP3   OH262395   3.830   4.865   5.017 -0.0301  0.3507  0.1869
13635TIP3    H162396   3.772   4.905   5.083 -0.5891  1.1611 -0.7835
13635TIP3    H262397   3.770   4.822   4.956  0.4528  0.3051 -0.2526
13636TIP3   OH262398   1.088   2.060   0.641 -0.1824  0.4070 -0.0582
13636TIP3    H162399   1.036   2.026   0.568  1.4654 -1.0544 -0.5934
13636TIP3    H262400   1.029   2.059   0.716 -0.7490 -1.7887 -0.5089
13637TIP3   OH262401   0.955   3.279   4.767 -0.2271 -0.3722 -0.1112
13637TIP3    H162402   0.967   3.364   4.811  1.3483 -0.3028 -0.6272
13637TIP3    H262403   0.865   3.254   4.787 -0.4962  1.1047  0.6162
13638TIP3   OH262404   1.225   4.748   0.284  0.5107 -0.2367 -0.0590
13638TIP3    H162405   1.280   4.802   0.342  1.0730 -0.0204 -0.7861
13638TIP3    H262406   1.230   4.660   0.321  1.2118 -0.1839 -0.0221
13639TIP3   OH262407   3.049   5.508  15.087  0.7174 -0.0343  0.0967
13639TIP3    H162408   3.087   5.535  15.003 -2.7216  1.4423 -1.0381
13639TIP3    H262409   2.977   5.450  15.064 -1.8557  2.3611  1.8824
13640TIP3   OH262410   5.074   3.149   5.588 -0.2440 -0.3864  0.1900
13640TIP3    H162411   5.025   3.228   5.565 -2.7161 -1.5708  1.2094
13640TIP3    H262412   5.124   3.173   5.666  0.3221  0.6405 -0.4754
13641TIP3   OH262413   1.700   1.605   2.444  0.2340  0.0939 -0.4208
13641TIP3    H162414   1.608   1.588   2.465  0.2456  0.2878 -0.2090
13641TIP3    H262415   1.708   1.583   2.351 -0.0020 -0.0198 -0.4155
13642TIP3   OH262416   0.541   5.820   1.664 -0.7902 -0.7374  0.1789
13642TIP3    H162417   0.537   5.900   1.716  0.4639  0.0024 -0.8327
13642TIP3    H262418   0.631   5.816   1.633 -1.2086 -1.7984 -0.9426
13643TIP3   OH262419   1.993   3.028  12.391 -0.3283  0.0563  0.4790
13643TIP3    H162420   2.050   2.984  12.328 -2.0857 -1.2523 -0.2311
13643TIP3    H262421   1.991   3.119  12.361  0.5743 -0.0947 -0.0646
13644TIP3   OH262422   0.446   3.040   0.624  0.7717 -0.3412 -0.3551
13644TIP3    H162423   0.526   3.092   0.617  0.3809  0.1007 -1.5524
13644TIP3    H262424   0.377   3.104   0.639  0.3844 -0.5742 -1.1453
13645TIP3   OH262425   1.663   4.288  16.784 -0.0750  0.3822 -0.8865
13645TIP3    H162426   1.720   4.217  16.814  0.0054  0.7601 -0.1263
13645TIP3    H262427   1.577   4.247  16.777 -0.3403  0.5401  1.0167
13646TIP3   OH262428   0.920   6.229  16.215  0.5588  0.0224  0.2519
13646TIP3    H162429   0.985   6.169  16.179 -1.3991 -1.1903 -1.3434
13646TIP3    H262430   0.969   6.283  16.278  2.5858 -2.4328  0.8335
13647TIP3   OH262431   6.349   3.987   0.591  0.0538 -0.2233 -0.6312
13647TIP3    H162432   6.404   3.951   0.521  1.7763 -1.3260  1.2291
13647TIP3    H262433   6.263   3.946   0.577 -0.1748  1.1037 -3.2523
13648TIP3   OH262434   1.061   4.083  14.191  0.0347 -0.7634 -0.3092
13648TIP3    H162435   1.155   4.070  14.206  0.4938  2.4797 -0.0870
13648TIP3    H262436   1.056   4.115  14.101 -1.0017 -2.1521 -0.7596
13649TIP3   OH262437   4.454   2.918   3.111 -0.4529  0.1052 -0.7521
13649TIP3    H162438   4.395   2.967   3.167 -0.4554  0.2577 -0.8875
13649TIP3    H262439   4.397   2.876   3.047 -0.5159 -0.6148 -0.2376
13650TIP3   OH262440   5.712   1.253   7.097 -0.0867 -0.3457  0.8474
13650TIP3    H162441   5.652   1.272   7.025  0.7104 -0.6381  0.0903
13650TIP3    H262442   5.790   1.305   7.077  0.4296 -1.0189  1.0990
13651TIP3   OH262443   1.906   2.085  13.877  0.3793  0.3111 -0.1929
13651TIP3    H162444   1.965   2.014  13.902 -1.1046 -0.3015  1.7217
13651TIP3    H262445   1.868   2.115  13.960 -1.1077  1.4591 -1.2519
13652TIP3   OH262446   6.565   2.238  14.191  0.1817 -0.0659  0.3541
13652TIP3    H162447   6.555   2.238  14.286 -0.1085 -0.9215  0.3295
13652TIP3    H262448   6.618   2.161  14.172 -0.0227 -0.0714 -0.2082
13653TIP3   OH262449   4.235   0.923  13.202 -0.0293 -0.2014  0.0322
13653TIP3    H162450   4.190   0.949  13.122  0.0772  0.0395  0.0476
13653TIP3    H262451   4.297   0.994  13.219 -2.7356  1.6995  2.4718
13654TIP3   OH262452   3.692   3.391  16.142  0.3780  0.0042  0.6279
13654TIP3    H162453   3.629   3.441  16.089  0.5380  0.2546  0.6707
13654TIP3    H262454   3.768   3.380  16.085 -0.1450 -1.3194  0.1517
13655TIP3   OH262455   3.764   0.879  15.412 -0.3814  0.3660 -0.2008
13655TIP3    H162456   3.775   0.798  15.363  0.2300 -0.5866  1.4833
13655TIP3    H262457   3.689   0.921  15.372 -0.8426 -1.1433 -0.9526
13656TIP3   OH262458   2.306   5.601   0.913  0.3038 -0.0537  0.4133
13656TIP3    H162459   2.231   5.658   0.928  0.3547  0.0714  0.2064
13656TIP3    H262460   2.370   5.657   0.869  0.4729 -0.1900  0.4819
13657TIP3   OH262461   1.673   5.733   2.811  0.1208 -0.2157  0.7709
13657TIP3    H162462   1.745   5.745   2.750  0.7876  0.8407  1.7403
13657TIP3    H262463   1.711   5.686   2.885 -0.1160  0.5051  1.3699
13658TIP3   OH262464   4.750   2.472   6.061  0.1408 -0.1299  0.1446
13658TIP3    H162465   4.666   2.470   6.106  0.7694  0.1468  1.3881
13658TIP3    H262466   4.808   2.420   6.117  0.9906  0.3626 -0.2642
13659TIP3   OH262467   1.887   6.765  15.395  0.1420 -0.2627 -0.2907
13659TIP3    H162468   1.802   6.755  15.437 -0.0665 -0.0788 -0.6717
13659TIP3    H262469   1.948   6.720  15.454 -0.4675 -1.9555 -0.9301
13660TIP3   OH262470   6.186   4.288   1.467 -0.4268  0.4173 -0.3662
13660TIP3    H162471   6.091   4.289   1.462 -0.4501 -0.7264 -0.1711
13660TIP3    H262472   6.214   4.291   1.375 -0.6618 -0.4217 -0.4646
13661TIP3   OH262473   5.597   4.752   5.507 -0.2002  0.0965 -0.4048
13661TIP3    H162474   5.647   4.670   5.505  1.4412  1.0839 -1.8848
13661TIP3    H262475   5.613   4.792   5.421 -1.8204  1.4711 -0.1005
13662TIP3   OH262476   3.487   2.286   1.898  0.3318  0.1290  0.3261
13662TIP3    H162477   3.470   2.200   1.937 -1.4860  1.2500  2.1167
13662TIP3    H262478   3.406   2.309   1.854  0.4358  1.3923  0.7759
13663TIP3   OH262479   6.084   2.131   3.067 -0.5073  0.4342  0.7497
13663TIP3    H162480   6.118   2.133   2.977 -0.7247 -0.7344  0.6333
13663TIP3    H262481   6.152   2.085   3.117  0.0543  1.9294  1.3835
13664TIP3   OH262482   6.046   4.309   4.388 -0.2187 -0.1056  0.0264
13664TIP3    H162483   6.014   4.268   4.469  0.6329 -0.2540  0.2918
13664TIP3    H262484   6.102   4.243   4.348 -1.0024 -0.2015 -0.9302
13665TIP3   OH262485   6.661   5.848   2.061  0.4474 -0.1449  0.1035
13665TIP3    H162486   6.754   5.867   2.069  0.8927  0.0647 -4.4607
13665TIP3    H262487   6.622   5.930   2.031 -1.0740 -0.5279  0.9594
13666TIP3   OH262488   5.322   0.398  11.925  0.3779  0.3333 -0.2486
13666TIP3    H162489   5.331   0.432  12.014 -0.4707  2.0720 -0.8029
13666TIP3    H262490   5.258   0.328  11.933  0.5519  0.2583  0.5681
13667TIP3   OH262491   1.186   3.825  12.316 -0.3967  0.7042 -0.3434
13667TIP3    H162492   1.105   3.816  12.368  0.3785  0.5094  0.8464
13667TIP3    H262493   1.245   3.759  12.352  0.0958  0.4405 -1.6193
13668TIP3   OH262494   1.385   2.802  12.103  0.2425  0.0061 -0.0259
13668TIP3    H162495   1.349   2.889  12.120 -0.3818 -0.5455  1.5920
13668TIP3    H262496   1.398   2.764  12.190  0.1854 -1.6322 -0.7128
13669TIP3   OH262497   1.105   2.285  13.357 -0.0175  0.4101  0.2431
13669TIP3    H162498   1.026   2.338  13.353  0.6843  1.5490  1.3038
13669TIP3    H262499   1.176   2.347  13.342  0.7520 -0.4051  0.4957
13670TIP3   OH262500   3.186   2.568   1.816  0.1020  0.7712 -0.3183
13670TIP3    H162501   3.269   2.546   1.774  1.0794  3.3188  0.1708
13670TIP3    H262502   3.146   2.632   1.758 -1.3513 -0.1318 -0.3378
13671TIP3   OH262503   2.423   5.571  11.672  0.0776 -0.5749  0.0791
13671TIP3    H162504   2.508   5.611  11.652  0.6712 -0.6612  2.2956
13671TIP3    H262505   2.366   5.646  11.692  0.1554 -0.6212  0.4764
13672TIP3   OH262506   0.535   4.508   2.030 -0.0723  0.3232 -0.3137
13672TIP3    H162507   0.480   4.495   2.107  1.8151  0.1584  1.0260
13672TIP3    H262508   0.516   4.597   2.002 -2.7121 -0.4811 -1.2558
13673TIP3   OH262509   6.141   6.430   0.351  0.1629 -0.4338 -0.3281
13673TIP3    H162510   6.089   6.402   0.276  1.1165 -0.8879 -0.8229
13673TIP3    H262511   6.118   6.522   0.363  0.0619 -0.3380 -1.2260
13674TIP3   OH262512   1.065   5.051   2.256  0.5074 -0.3428 -0.2383
13674TIP3    H162513   1.105   5.137   2.238  0.1314  0.4502  2.4656
13674TIP3    H262514   0.973   5.071   2.275  1.0681 -0.9281  3.3736
13675TIP3   OH262515   3.141   5.592  14.192  0.3315 -0.4281 -0.2711
13675TIP3    H162516   3.225   5.552  14.171 -0.4799 -1.8974 -0.7981
13675TIP3    H262517   3.089   5.582  14.112 -1.7955 -3.3877  1.3727
13676TIP3   OH262518   3.665   1.232  13.742 -0.1519 -0.1600  0.0113
13676TIP3    H162519   3.607   1.155  13.743 -1.1100  0.5227 -1.3113
13676TIP3    H262520   3.648   1.274  13.658  1.8564  0.3945 -0.1408
13677TIP3   OH262521   4.129   1.474   5.730 -0.1107  0.2504  0.3756
13677TIP3    H162522   4.220   1.457   5.704  0.1397  0.9658  0.7593
13677TIP3    H262523   4.116   1.567   5.713  0.1597  0.8303  3.0185
13678TIP3   OH262524   4.596   0.063  14.997 -0.1112  0.1600 -0.1042
13678TIP3    H162525   4.571  -0.021  15.034 -1.1734  0.6158  0.2563
13678TIP3    H262526   4.628   0.043  14.909 -1.6007 -0.4913 -0.5152
13679TIP3   OH262527   6.780   4.850  13.571  0.6842  0.3718  0.0272
13679TIP3    H162528   6.802   4.813  13.656  3.5286 -0.6471 -1.0613
13679TIP3    H262529   6.797   4.943  13.580 -1.8766  0.7481  1.3894
13680TIP3   OH262530   3.102   1.086  16.605  0.8148 -0.3145 -0.0053
13680TIP3    H162531   3.100   0.991  16.614  0.3267 -0.0833  2.6153
13680TIP3    H262532   3.012   1.109  16.580  0.4535 -0.3874  1.2057
13681TIP3   OH262533   6.022   2.003  14.575 -0.3850  0.5159 -0.2734
13681TIP3    H162534   6.016   2.036  14.485 -0.6119  1.2318  0.0049
13681TIP3    H262535   6.033   1.908  14.565 -2.1192  0.3697 -1.0385
13682TIP3   OH262536   2.680   5.039   0.206  0.0346 -0.1903 -0.4660
13682TIP3    H162537   2.699   5.133   0.212  0.5795 -0.3454  0.3447
13682TIP3    H262538   2.591   5.035   0.173  0.5561  0.5870 -2.0459
13683TIP3   OH262539   3.487   1.905   4.633 -0.6906 -0.1056 -0.1264
13683TIP3    H162540   3.561   1.965   4.628  0.3597 -1.3021  0.8050
13683TIP3    H262541   3.413   1.954   4.596  0.7360  0.8156 -1.8075
13684TIP3   OH262542   2.692   5.681   3.861  0.4847  0.1708 -0.1958
13684TIP3    H162543   2.774   5.636   3.883  0.1445 -1.4119 -2.0020
13684TIP3    H262544   2.627   5.611   3.857 -0.2166  0.9082 -2.3177
13685TIP3   OH262545   6.262   1.029   0.563  0.0258  0.1003 -0.1247
13685TIP3    H162546   6.251   1.035   0.658 -0.3949 -0.9558 -0.1012
13685TIP3    H262547   6.236   1.115   0.531  0.2990  0.5065  0.7337
13686TIP3   OH262548   0.396   6.396   5.494 -0.1221  0.4730  0.2534
13686TIP3    H162549   0.450   6.369   5.568  2.8461 -2.2969 -2.6841
13686TIP3    H262550   0.309   6.364   5.514  1.3692 -3.3445  1.1125
13687TIP3   OH262551   3.199   1.234   1.178  0.2001  0.1063 -0.0491
13687TIP3    H162552   3.164   1.274   1.098  0.7640 -0.2046 -0.4634
13687TIP3    H262553   3.261   1.298   1.212  0.4563 -0.0344 -0.2375
13688TIP3   OH262554   4.435   4.322  15.873  0.3571 -0.1381 -0.1599
13688TIP3    H162555   4.350   4.280  15.885  0.0816  0.0943 -1.3237
13688TIP3    H262556   4.429   4.404  15.922  1.0533 -1.6283  2.5209
13689TIP3   OH262557   6.318   3.156   3.662  0.1514 -0.1906 -0.1844
13689TIP3    H162558   6.335   3.233   3.607 -1.2915  0.7250  0.6378
13689TIP3    H262559   6.224   3.143   3.656  0.3466 -1.6928 -0.0271
13690TIP3   OH262560   1.065   4.001   2.776 -0.2222  0.3349  0.1012
13690TIP3    H162561   1.023   3.962   2.853 -2.6864  1.1079 -0.7768
13690TIP3    H262562   1.032   3.949   2.702 -0.1359  1.3738 -0.6729
13691TIP3   OH262563   6.030   2.431  12.542 -0.3109  0.3026 -0.2634
13691TIP3    H162564   6.023   2.424  12.637  0.2786  0.1640 -0.2288
13691TIP3    H262565   6.111   2.385  12.521  1.0619  2.7780 -0.5492
13692TIP3   OH262566   3.515   3.976  11.560 -0.2185 -0.2972  0.2073
13692TIP3    H162567   3.555   3.931  11.634 -0.2806  1.3225  1.2498
13692TIP3    H262568   3.470   4.051  11.599 -0.7900  0.2250 -1.4097
13693TIP3   OH262569   3.980   6.245   2.699  0.0563 -0.0812 -0.1310
13693TIP3    H162570   3.941   6.332   2.707 -0.7075 -0.0337 -3.4430
13693TIP3    H262571   3.931   6.204   2.626  1.7468 -2.5147  0.0473
13694TIP3   OH262572   4.564   5.320   5.453 -0.5992  0.6162 -1.0608
13694TIP3    H162573   4.629   5.382   5.486 -0.0153 -0.4987 -0.0980
13694TIP3    H262574   4.615   5.243   5.427 -1.3421  0.4327 -2.0323
13695TIP3   OH262575   4.588   0.779  13.035 -0.0624  0.2764  0.2136
13695TIP3    H162576   4.503   0.744  13.063  0.0610  0.4643  0.8431
13695TIP3    H262577   4.587   0.870  13.066 -0.3266  0.7906 -1.2933
13696TIP3   OH262578   5.825   4.516  14.759 -0.1121  0.4428  0.1953
13696TIP3    H162579   5.757   4.487  14.698  0.8303  0.6359 -0.9526
13696TIP3    H262580   5.776   4.555  14.832 -1.2522 -0.0369 -0.2940
13697TIP3   OH262581   1.273   0.196   1.334 -0.5509  0.5422  0.0790
13697TIP3    H162582   1.206   0.197   1.402 -0.5760  0.1031  0.0598
13697TIP3    H262583   1.279   0.104   1.307  2.6836 -0.1126  2.6922
13698TIP3   OH262584   6.627   5.053   1.068  0.1887  0.3190  0.1125
13698TIP3    H162585   6.608   5.138   1.106  2.0449  0.7677  0.0761
13698TIP3    H262586   6.609   4.990   1.138  0.4199  0.8779  0.6725
13699TIP3   OH262587   3.681   2.140   0.405  0.3132  0.1742 -0.0062
13699TIP3    H162588   3.685   2.048   0.377 -3.3565  0.2497 -1.0558
13699TIP3    H262589   3.751   2.183   0.356  0.9059 -1.7166 -0.8722
13700TIP3   OH262590   5.261   2.332   2.995 -0.1640 -0.4793  0.0333
13700TIP3    H162591   5.323   2.376   2.937 -0.0947  0.2028  0.6249
13700TIP3    H262592   5.290   2.355   3.083  1.1403 -3.3852  0.4282
13701TIP3   OH262593   0.576   1.883  12.285  0.1880 -0.4464  0.3347
13701TIP3    H162594   0.633   1.807  12.286  0.2453 -0.4029  0.3919
13701TIP3    H262595   0.487   1.847  12.279  0.2078 -0.5207  0.5093
13702TIP3   OH262596   1.274   1.630   4.698  0.1932 -0.0511  0.5447
13702TIP3    H162597   1.194   1.651   4.746 -1.4764 -0.7085 -1.8372
13702TIP3    H262598   1.247   1.561   4.637  2.7306 -0.6999  0.1318
13703TIP3   OH262599   1.063   0.910  15.065  0.0220 -0.2901  0.0116
13703TIP3    H162600   0.982   0.892  15.018 -0.8447 -1.7924  2.0127
13703TIP3    H262601   1.097   0.824  15.088  0.8075  0.3980  1.4930
13704TIP3   OH262602   4.595   5.924   5.595  0.0986 -0.8494 -0.5725
13704TIP3    H162603   4.585   5.942   5.688  1.3712  0.6099 -0.6881
13704TIP3    H262604   4.564   5.835   5.584 -2.2998 -0.2342  0.8354
13705TIP3   OH262605   5.762   4.469  16.619 -0.1230 -0.0253 -0.4696
13705TIP3    H162606   5.787   4.414  16.693  0.0944  0.8988  0.1536
13705TIP3    H262607   5.829   4.452  16.552 -1.0822 -1.8958 -1.0006
13706TIP3   OH262608   3.254   2.427   3.903 -0.5143  0.0558  0.2875
13706TIP3    H162609   3.193   2.363   3.866 -0.4562 -0.0630  0.3944
13706TIP3    H262610   3.212   2.456   3.984  0.3972 -1.3867  1.3116
13707TIP3   OH262611   0.802   1.258  14.731 -0.3682  0.1355  0.1329
13707TIP3    H162612   0.882   1.223  14.692 -0.5622  0.8294 -0.8895
13707TIP3    H262613   0.733   1.236  14.669 -1.1236 -1.2199  1.4144
13708TIP3   OH262614   2.877   2.563  16.298 -0.2560 -0.3453 -0.1097
13708TIP3    H162615   2.856   2.498  16.230 -2.1446  0.2893 -0.1802
13708TIP3    H262616   2.851   2.647  16.260  0.7089  0.2740  0.5766
13709TIP3   OH262617   1.587   6.683  14.308 -0.6142  0.1378 -0.0269
13709TIP3    H162618   1.677   6.714  14.309 -0.7449  0.5542 -0.8376
13709TIP3    H262619   1.535   6.760  14.335 -0.5879 -0.6247  2.3659
13710TIP3   OH262620   5.095   5.061  11.310  0.1891  0.0413 -0.0952
13710TIP3    H162621   5.074   5.154  11.299  2.5275  0.8031  1.4225
13710TIP3    H262622   5.184   5.061  11.347 -0.4658 -2.7372  1.6235
13711TIP3   OH262623   4.203   0.159  13.914 -0.1999 -0.8752  0.3036
13711TIP3    H162624   4.118   0.178  13.954 -0.7926 -0.8878 -0.9011
13711TIP3    H262625   4.264   0.152  13.987 -1.1153 -0.1986  1.1376
13712TIP3   OH262626   3.092   5.605   1.604 -0.5524  0.4777 -0.4961
13712TIP3    H162627   3.090   5.552   1.523  0.9556  0.5246 -0.5764
13712TIP3    H262628   3.070   5.693   1.575  0.4243  0.5823 -0.9310
13713TIP3   OH262629   3.010   4.326  16.296  0.3455 -0.9613  1.1130
13713TIP3    H162630   2.989   4.420  16.296  0.7113 -0.8824  1.8426
13713TIP3    H262631   3.106   4.323  16.298  0.3118 -1.3607  2.9382
13714TIP3   OH262632   4.853   2.376  16.832 -0.0309 -0.2873 -1.1300
13714TIP3    H162633   4.851   2.281  16.845  1.4168 -0.0725  0.7446
13714TIP3    H262634   4.918   2.389  16.763 -1.4096 -0.7531 -2.5577
13715TIP3   OH262635   0.925   3.310   0.490  0.3175  0.1467  0.1101
13715TIP3    H162636   0.947   3.379   0.428  0.4419 -0.1734 -0.1994
13715TIP3    H262637   0.951   3.229   0.447 -0.7821 -0.1772  0.0458
13716TIP3   OH262638   5.615   2.329  10.321  0.4440 -0.5854 -0.2710
13716TIP3    H162639   5.640   2.280  10.399  0.0737  0.7700  0.7161
13716TIP3    H262640   5.578   2.263  10.262 -3.4382 -1.0045  2.4229
13717TIP3   OH262641   5.533   6.031   3.378  0.3205 -0.0721  0.1080
13717TIP3    H162642   5.537   5.947   3.331 -0.8823 -0.2340  0.2658
13717TIP3    H262643   5.570   6.012   3.464  2.8818  0.3135 -0.8703
13718TIP3   OH262644   4.223   5.831   4.146  0.2157 -0.5718 -0.9489
13718TIP3    H162645   4.174   5.897   4.097 -0.1608 -0.5580 -0.5594
13718TIP3    H262646   4.199   5.846   4.237  3.5925  1.6375 -0.3479
13719TIP3   OH262647   0.545   0.246   2.948  0.3507 -0.2048  0.2242
13719TIP3    H162648   0.572   0.248   3.040  0.0863  1.0864  0.2788
13719TIP3    H262649   0.503   0.160   2.938  2.6461 -1.4001  0.6386
13720TIP3   OH262650   2.280   6.455   5.159 -0.4659 -0.7386  0.3172
13720TIP3    H162651   2.293   6.363   5.136 -1.3767 -1.2231  1.7141
13720TIP3    H262652   2.355   6.476   5.215 -0.4167 -0.7144  0.2422
13721TIP3   OH262653   2.242   2.265  12.406 -0.1080 -0.0623  0.3414
13721TIP3    H162654   2.235   2.329  12.476 -0.1254  1.1429 -0.7542
13721TIP3    H262655   2.331   2.274  12.373 -0.6634  0.6311 -0.9795
13722TIP3   OH262656   0.627   4.592  13.063  0.1347  0.4727 -0.0855
13722TIP3    H162657   0.543   4.614  13.103 -1.1984 -1.6865 -1.5311
13722TIP3    H262658   0.672   4.539  13.128 -1.5216 -2.0251 -0.8933
13723TIP3   OH262659   6.750   4.452   3.262 -0.8595 -0.6466  0.7380
13723TIP3    H162660   6.733   4.424   3.353 -0.0115 -0.0319  1.0942
13723TIP3    H262661   6.694   4.396   3.209  0.9618 -3.2219  1.4261
13724TIP3   OH262662   3.708   2.152   4.825 -0.3059  0.9279  0.3616
13724TIP3    H162663   3.640   2.207   4.865 -0.0561  1.9245 -0.5834
13724TIP3    H262664   3.709   2.073   4.880 -2.0836  0.9848  0.5220
13725TIP3   OH262665   0.846   6.191  14.085  0.0253 -0.2327 -0.1480
13725TIP3    H162666   0.857   6.234  14.000  2.2037  1.1291  0.7746
13725TIP3    H262667   0.892   6.248  14.146 -0.5605 -1.7870  1.7738
13726TIP3   OH262668   0.806   1.540  13.715  0.3180 -0.0387  0.0574
13726TIP3    H162669   0.897   1.520  13.736  1.0691  0.6355 -2.4423
13726TIP3    H262670   0.788   1.622  13.760  1.0061 -0.0474  0.3526
13727TIP3   OH262671   5.405   3.543   4.821 -0.3056 -0.2732 -0.1946
13727TIP3    H162672   5.400   3.639   4.813 -0.4638 -0.1277  1.5237
13727TIP3    H262673   5.432   3.514   4.734 -2.0151  1.1900 -1.2681
13728TIP3   OH262674   0.238   4.168  15.096 -0.2495  0.0642 -0.4470
13728TIP3    H162675   0.271   4.078  15.085 -0.3921  0.3862 -4.1040
13728TIP3    H262676   0.302   4.209  15.154  0.2327 -2.1642  0.6769
13729TIP3   OH262677   4.730   5.221  11.714 -0.7958  0.1757  0.1125
13729TIP3    H162678   4.694   5.198  11.799 -0.3633  1.2274  0.5950
13729TIP3    H262679   4.712   5.315  11.705  1.4522  0.6473  0.2080
13730TIP3   OH262680   3.482   3.991  12.010  0.7354 -0.2041 -0.3890
13730TIP3    H162681   3.505   4.064  12.068 -1.5713  0.4333 -0.2347
13730TIP3    H262682   3.423   3.936  12.062  2.3491 -2.1709 -0.5377
13731TIP3   OH262683   1.443   4.113  16.789  0.2117  0.4551  0.1874
13731TIP3    H162684   1.405   4.083  16.872  0.7464 -0.8460 -0.0331
13731TIP3    H262685   1.368   4.128  16.732 -0.0481 -0.7848  0.1962
13732TIP3   OH262686   3.581   2.100   2.668  0.0648 -0.3081  0.2138
13732TIP3    H162687   3.627   2.021   2.642  1.8151  0.7647 -0.0558
13732TIP3    H262688   3.598   2.108   2.762  0.2164 -0.0724  0.1693
13733TIP3   OH262689   5.543   3.454  11.845 -0.0390  0.5797 -0.0957
13733TIP3    H162690   5.496   3.532  11.817  2.3184  1.3997 -1.9660
13733TIP3    H262691   5.595   3.483  11.920  1.3724  1.0393 -1.2214
13734TIP3   OH262692   2.340   6.445  15.319  0.7379  0.9323 -0.1027
13734TIP3    H162693   2.288   6.385  15.373  2.1550 -1.0432 -0.9090
13734TIP3    H262694   2.307   6.433  15.230  1.1393  1.2347 -0.2972
13735TIP3   OH262695   5.707   5.557  11.788  0.2798 -0.2913 -0.7217
13735TIP3    H162696   5.744   5.576  11.702  0.6060 -0.3428 -0.5938
13735TIP3    H262697   5.612   5.564  11.776  0.3753  0.9969 -0.7722
13736TIP3   OH262698   2.541   4.872  16.076 -0.4298 -0.3917  0.5431
13736TIP3    H162699   2.586   4.918  16.005  1.6777 -1.9995  0.7889
13736TIP3    H262700   2.602   4.803  16.102 -1.2233  0.0678  3.8169
13737TIP3   OH262701   3.901   6.328   4.217 -0.0514 -0.0207  0.2076
13737TIP3    H162702   3.995   6.336   4.202 -0.0403  0.0007  0.2890
13737TIP3    H262703   3.870   6.273   4.145 -0.0212  0.1987  0.0272
13738TIP3   OH262704   0.510   1.206   5.893 -0.3981 -0.1674 -0.1862
13738TIP3    H162705   0.567   1.283   5.894  0.7714 -1.0133  1.3149
13738TIP3    H262706   0.553   1.145   5.833 -0.4790 -0.2571 -0.1528
13739TIP3   OH262707   1.010   6.302   1.364 -0.3935 -0.2568 -0.3244
13739TIP3    H162708   1.025   6.299   1.269  1.7415  0.1377 -0.0307
13739TIP3    H262709   1.076   6.243   1.400  0.1331  1.1356  1.0411
13740TIP3   OH262710   4.024   5.511   0.390  0.2261 -0.3867 -0.4039
13740TIP3    H162711   3.992   5.459   0.464 -0.3534 -0.4418 -0.6945
13740TIP3    H262712   3.945   5.549   0.352  0.7613  1.9043  0.7036
13741TIP3   OH262713   4.375   3.567   0.906  0.0261 -0.0836 -0.4103
13741TIP3    H162714   4.322   3.487   0.910 -0.6032  0.3244 -0.5925
13741TIP3    H262715   4.394   3.587   0.998  1.0595 -1.0091 -0.3978
13742TIP3   OH262716   0.781   0.363  11.156  0.1149  0.3609  0.4632
13742TIP3    H162717   0.795   0.414  11.076  0.1328  0.6616  0.6552
13742TIP3    H262718   0.843   0.291  11.150  0.2039  0.4530  0.2655
13743TIP3   OH262719   3.060   0.660   5.411  0.1918  0.4494  0.1284
13743TIP3    H162720   2.989   0.596   5.404  1.1648 -0.7597  1.1302
13743TIP3    H262721   3.029   0.723   5.475  0.0778 -0.1495  0.6647
13744TIP3   OH262722   5.650   3.215   5.183  0.3531  0.5012 -0.5973
13744TIP3    H162723   5.603   3.287   5.140 -2.8548 -0.7718  0.6238
13744TIP3    H262724   5.591   3.185   5.252  2.7367 -1.6232  0.6163
13745TIP3   OH262725   1.628   3.562  14.797 -0.9023 -0.2417 -0.5711
13745TIP3    H162726   1.624   3.486  14.855 -0.3264 -0.6559 -1.0627
13745TIP3    H262727   1.541   3.601  14.802 -0.1847  1.1122  2.3828
13746TIP3   OH262728   3.300   2.767   0.980  0.3931 -0.2785 -0.1291
13746TIP3    H162729   3.209   2.759   0.953 -0.1448  0.6208  1.3417
13746TIP3    H262730   3.349   2.718   0.914 -0.9795  0.6391 -1.9051
13747TIP3   OH262731   4.656   2.300  14.895  0.1936  0.4426 -0.1159
13747TIP3    H162732   4.648   2.231  14.828  0.5900  0.9609 -0.7061
13747TIP3    H262733   4.567   2.310  14.929  0.4137 -1.4359  1.0749
13748TIP3   OH262734   0.120   1.035  12.123 -0.2703 -0.1470 -0.0966
13748TIP3    H162735   0.200   1.088  12.118 -0.4351  0.1552  0.4339
13748TIP3    H262736   0.070   1.061  12.046  0.2049 -0.4354 -0.5068
13749TIP3   OH262737   0.979   4.622  16.189  0.5566  0.2880 -0.2464
13749TIP3    H162738   0.946   4.655  16.272  0.9803  0.8490 -0.2930
13749TIP3    H262739   0.905   4.629  16.129  0.4106  0.4137 -0.0504
13750TIP3   OH262740   3.169   3.225  13.297 -0.0158  0.2758  0.2991
13750TIP3    H162741   3.198   3.260  13.381  0.0877  2.5563 -0.6642
13750TIP3    H262742   3.074   3.229  13.301 -0.0928 -1.6550  1.1237
13751TIP3   OH262743   5.277   2.887  10.969 -0.2870 -0.2162 -0.1983
13751TIP3    H162744   5.217   2.847  11.032  1.2102 -1.9510  0.1378
13751TIP3    H262745   5.219   2.924  10.902 -1.7767 -0.6825  0.8002
13752TIP3   OH262746   0.968   5.844   3.494 -0.3723  0.1926  0.5892
13752TIP3    H162747   0.898   5.893   3.451 -0.7619 -0.6545  0.2671
13752TIP3    H262748   1.012   5.909   3.549 -0.9139  0.9001  0.1910
13753TIP3   OH262749   4.499   5.554   2.528  0.0972 -0.1818 -0.1736
13753TIP3    H162750   4.578   5.568   2.580  0.2918 -0.8302 -0.2904
13753TIP3    H262751   4.427   5.571   2.589  0.3245 -0.5783  0.2077
13754TIP3   OH262752   3.248   5.577   1.887 -0.1054 -0.0975 -0.5177
13754TIP3    H162753   3.240   5.649   1.949 -1.7272 -0.6366 -0.0766
13754TIP3    H262754   3.180   5.593   1.823 -1.9223 -2.3590  0.7697
13755TIP3   OH262755   0.240   5.337  12.199  0.3379  0.1489  0.1971
13755TIP3    H162756   0.207   5.424  12.179  3.1699  0.6596 -2.8212
13755TIP3    H262757   0.192   5.278  12.140  2.3526  0.4787 -1.8597
13756TIP3   OH262758   0.690   0.901   4.457  0.0285  0.4063  0.1242
13756TIP3    H162759   0.616   0.845   4.433 -0.7310  0.4135  2.3449
13756TIP3    H262760   0.661   0.990   4.438  0.8708  0.1501 -2.4858
13757TIP3   OH262761   5.959   4.336  15.821  0.4980 -0.0827  0.7224
13757TIP3    H162762   6.030   4.396  15.799  0.6075 -0.5392 -0.2379
13757TIP3    H262763   5.942   4.350  15.914  1.4881  0.4103  0.8326
13758TIP3   OH262764   6.476   6.786   0.015  0.0282 -0.4621 -0.0386
13758TIP3    H162765   6.458   6.723  -0.055  2.4829  0.8060 -1.8983
13758TIP3    H262766   6.397   6.839   0.020 -1.1103 -2.1184 -0.1591
13759TIP3   OH262767   1.938   4.002   2.804  0.0917  0.3166  0.2753
13759TIP3    H162768   1.990   3.950   2.742 -2.0301  0.2087 -1.4633
13759TIP3    H262769   1.955   4.093   2.778 -2.1439  0.2322 -1.6643
13760TIP3   OH262770   3.020   0.647   1.942 -0.2632 -0.0155  0.4157
13760TIP3    H162771   3.082   0.575   1.943 -0.2350 -0.0493 -1.8303
13760TIP3    H262772   3.065   0.717   1.895 -1.9796 -0.1269 -1.4731
13761TIP3   OH262773   1.358   4.926  15.725 -0.3853  0.1618 -0.1313
13761TIP3    H162774   1.278   4.907  15.677 -0.5655  0.6590 -0.0371
13761TIP3    H262775   1.338   5.007  15.773  0.4687  0.7966 -0.8249
13762TIP3   OH262776   4.044   5.502  11.441 -0.1700 -0.6235  0.2609
13762TIP3    H162777   4.001   5.552  11.510  1.2477  0.6542  0.2632
13762TIP3    H262778   3.977   5.442  11.409 -1.8162  0.9787  0.5716
13763TIP3   OH262779   3.712   1.366   4.870  0.6478  0.3667 -0.5034
13763TIP3    H162780   3.687   1.274   4.869 -1.5869  0.9483 -1.1495
13763TIP3    H262781   3.799   1.367   4.911  0.9535 -2.0700 -1.0043
13764TIP3   OH262782   4.916   6.289  13.694  0.3853  0.8626  0.4002
13764TIP3    H162783   4.935   6.381  13.712 -1.1294  0.8656  2.1643
13764TIP3    H262784   4.936   6.244  13.777 -0.8001 -0.0942  0.1797
13765TIP3   OH262785   2.595   4.370   2.040 -0.0526 -0.5231  0.5791
13765TIP3    H162786   2.640   4.331   1.965  1.0752 -0.2440  1.0998
13765TIP3    H262787   2.640   4.333   2.116 -0.2674  0.2793  1.0929
13766TIP3   OH262788   2.510   5.549  11.052  0.1240  0.6440  0.4143
13766TIP3    H162789   2.583   5.496  11.018  0.1252  1.8651 -1.5853
13766TIP3    H262790   2.470   5.494  11.120  0.8917 -1.4127 -0.7402
13767TIP3   OH262791   6.608   0.086   0.250 -0.8024 -0.0501 -0.4792
13767TIP3    H162792   6.607   0.033   0.170 -0.4883  0.6959 -0.9858
13767TIP3    H262793   6.559   0.164   0.227 -2.5786 -0.7771  0.7447
13768TIP3   OH262794   4.698   0.086  11.686 -0.2274 -0.6672  0.3672
13768TIP3    H162795   4.766   0.093  11.619 -0.6521 -1.0021 -0.1007
13768TIP3    H262796   4.621   0.054  11.639 -0.6511 -0.4879  0.9339
13769TIP3   OH262797   5.460   4.832   2.590  0.4878  0.4737 -0.4425
13769TIP3    H162798   5.451   4.809   2.682  1.9328  1.7652  0.0345
13769TIP3    H262799   5.397   4.902   2.575  0.4350  0.4398 -0.3765
13770TIP3   OH262800   0.199   0.624   3.620 -0.5590  0.2610  0.5270
13770TIP3    H162801   0.279   0.597   3.666  0.2532  1.0981 -0.3850
13770TIP3    H262802   0.182   0.552   3.559 -2.2800 -1.3917  2.8868
13771TIP3   OH262803   2.242   1.489  12.082  0.2931 -0.1693  0.4059
13771TIP3    H162804   2.162   1.538  12.063 -0.0311 -1.5187 -1.8447
13771TIP3    H262805   2.311   1.538  12.036  0.0490 -1.4986 -1.4119
13772TIP3   OH262806   5.677   1.892   6.021 -0.3350  0.0455  0.0132
13772TIP3    H162807   5.614   1.819   6.024  0.1437 -0.3454  0.5796
13772TIP3    H262808   5.761   1.850   6.000 -0.3022  0.5999 -1.0002
13773TIP3   OH262809   4.349   6.722   4.569 -0.8002  0.9571 -0.3246
13773TIP3    H162810   4.312   6.701   4.483 -1.0623 -0.1449  0.0454
13773TIP3    H262811   4.374   6.637   4.605 -0.4006  1.4478  0.5562
13774TIP3   OH262812   5.835   6.366  13.551 -0.0150  0.1824 -0.4099
13774TIP3    H162813   5.753   6.402  13.587 -0.5274  1.2823 -2.6050
13774TIP3    H262814   5.850   6.416  13.471  2.4527 -0.5002 -0.4191
13775TIP3   OH262815   1.334   6.353  14.607  0.3534  0.0295  0.2825
13775TIP3    H162816   1.261   6.370  14.665  1.0067 -0.4231  1.2578
13775TIP3    H262817   1.362   6.264  14.629  1.7919  0.5371  0.6013
13776TIP3   OH262818   6.778   2.484   0.457 -0.4669  0.0272  0.4919
13776TIP3    H162819   6.805   2.404   0.502  0.7410  0.2552  0.1612
13776TIP3    H262820   6.686   2.469   0.435  0.1015 -1.7777 -0.7000
13777TIP3   OH262821   6.777   3.572   4.369 -0.4363  0.6154  0.1517
13777TIP3    H162822   6.732   3.488   4.379  0.8043 -0.1358 -0.4578
13777TIP3    H262823   6.707   3.638   4.375 -1.6296 -0.5330 -0.8994
13778TIP3   OH262824   2.990   0.929  11.633 -0.0653  0.3736 -0.1356
13778TIP3    H162825   3.004   1.001  11.694  1.0821  0.7031 -0.7708
13778TIP3    H262826   3.044   0.858  11.668 -0.2908  0.1976 -0.1445
13779TIP3   OH262827   3.006   1.775   0.049  0.1411 -0.5151 -0.1890
13779TIP3    H162828   2.941   1.844   0.031 -2.4620 -3.0003 -0.7045
13779TIP3    H262829   3.081   1.822   0.086 -1.5078  2.5952 -0.5922
13780TIP3   OH262830   3.092   4.758   4.179  0.2004 -0.2702 -0.0083
13780TIP3    H162831   2.999   4.740   4.166  0.6733 -1.6479 -1.7336
13780TIP3    H262832   3.117   4.705   4.254 -0.3820  0.0205  0.3919
13781TIP3   OH262833   6.610   6.817   0.676  0.0928 -0.0138  0.7065
13781TIP3    H162834   6.534   6.853   0.721 -2.0992 -0.9226 -2.1175
13781TIP3    H262835   6.575   6.746   0.621  2.8570 -0.0300 -1.1819
13782TIP3   OH262836   3.880   5.698   1.031  0.3362 -0.2124  0.1400
13782TIP3    H162837   3.956   5.640   1.028  1.6220  1.4751 -0.9479
13782TIP3    H262838   3.884   5.738   1.118 -0.7978 -2.0518  1.0513
13783TIP3   OH262839   1.570   4.231  16.124 -0.2840 -0.2591  0.1977
13783TIP3    H162840   1.520   4.311  16.106  0.4555  0.1672  0.0148
13783TIP3    H262841   1.558   4.177  16.046  0.0007  0.0810 -0.0848
13784TIP3   OH262842   1.938   5.166   4.360 -0.1070  0.1381  0.5996
13784TIP3    H162843   1.953   5.122   4.276 -0.8356 -0.2529  0.6713
13784TIP3    H262844   2.020   5.212   4.378  0.9789 -1.8639  0.9154
13785TIP3   OH262845   1.693   1.284   2.281 -0.5496  0.9567  0.0757
13785TIP3    H162846   1.625   1.339   2.242  0.0015  0.9629 -0.9120
13785TIP3    H262847   1.652   1.199   2.292 -0.6611  0.8995 -0.7248
13786TIP3   OH262848   0.227   6.345  15.941 -0.4187  0.1719 -0.1413
13786TIP3    H162849   0.188   6.366  16.026 -2.6774  2.0138 -1.5767
13786TIP3    H262850   0.161   6.292  15.897 -0.1348  0.9465 -1.5263
13787TIP3   OH262851   0.193   5.775  12.561  0.1740  0.3038 -0.7350
13787TIP3    H162852   0.192   5.708  12.493 -1.2804  0.3238 -0.7350
13787TIP3    H262853   0.278   5.818  12.550  1.3689 -1.8791 -0.3833
13788TIP3   OH262854   2.145   2.421   5.766  0.1983  0.4711  0.1253
13788TIP3    H162855   2.236   2.425   5.797  0.5818  0.7178 -0.9875
13788TIP3    H262856   2.152   2.385   5.678 -0.9011 -0.5625  0.4505
13789TIP3   OH262857   1.015   5.483  15.179  0.1312  0.0528 -0.6814
13789TIP3    H162858   1.078   5.494  15.249  1.6820 -3.1980 -1.4793
13789TIP3    H262859   1.040   5.549  15.114  0.4734  1.1316  0.5056
13790TIP3   OH262860   0.233   4.864  17.199  0.5724  0.1204  0.1709
13790TIP3    H162861   0.248   4.950  17.237  0.1166  1.4843 -2.6538
13790TIP3    H262862   0.302   4.855  17.133  0.2199 -1.4198 -0.0062
13791TIP3   OH262863   0.968   1.820   2.975  0.3832  0.1497  0.2563
13791TIP3    H162864   0.995   1.880   3.045  1.2342  2.5203 -2.0097
13791TIP3    H262865   0.996   1.734   3.005  0.4078  1.0506  2.9780
13792TIP3   OH262866   6.719   5.133   4.560  0.0039 -0.0264  0.2561
13792TIP3    H162867   6.758   5.214   4.592  1.8775 -0.5222 -0.6984
13792TIP3    H262868   6.630   5.133   4.596  0.3443  1.9108  1.1506
13793TIP3   OH262869   1.187   2.180  17.026 -0.9099  0.0876 -0.0622
13793TIP3    H162870   1.283   2.183  17.025 -0.9372  1.9551  0.4761
13793TIP3    H262871   1.166   2.121  17.099 -0.1729  0.3437  0.3700
13794TIP3   OH262872   6.315   4.921   2.590 -0.1397 -0.4488  0.2916
13794TIP3    H162873   6.259   4.996   2.607 -0.5606 -0.0767 -2.4472
13794TIP3    H262874   6.259   4.845   2.607 -1.1231 -0.0872 -1.2295
13795TIP3   OH262875   1.290   2.866  13.099  0.3196  0.1896  0.1421
13795TIP3    H162876   1.271   2.957  13.075  0.4004 -0.1648 -1.3288
13795TIP3    H262877   1.219   2.816  13.058 -0.3092 -0.3328  1.7999
13796TIP3   OH262878   3.916   3.500   1.903 -0.2685  0.2842 -0.0326
13796TIP3    H162879   3.895   3.408   1.919  0.9387  0.2535  1.5249
13796TIP3    H262880   3.865   3.524   1.826 -1.5228 -1.3504  0.2734
13797TIP3   OH262881   6.077   4.769  15.332 -0.1904  0.4599 -0.4701
13797TIP3    H162882   6.038   4.682  15.346  0.1399  0.6620  1.8285
13797TIP3    H262883   6.002   4.827  15.317 -0.5236  0.0901 -0.2506
13798TIP3   OH262884   1.301   1.141  16.653 -0.2711 -0.3818  0.5375
13798TIP3    H162885   1.312   1.222  16.703 -0.7527  0.0743 -0.0890
13798TIP3    H262886   1.338   1.073  16.709 -0.5060  0.1730  1.3651
13799TIP3   OH262887   5.675   1.143  13.684  0.0168 -0.2152  0.4295
13799TIP3    H162888   5.647   1.052  13.671 -0.5369 -0.0435  0.4202
13799TIP3    H262889   5.734   1.139  13.760  1.6623 -0.9035 -0.8352
13800TIP3   OH262890   3.028   6.178   3.036 -0.4206 -0.0281 -0.0301
13800TIP3    H162891   3.062   6.251   3.087  0.0468 -0.9282  0.9733
13800TIP3    H262892   2.944   6.157   3.077  0.4003 -1.3752  0.9959
13801TIP3   OH262893   0.139   0.894   2.032 -0.2899  0.6489  0.2585
13801TIP3    H162894   0.200   0.841   2.084  1.4823  1.4493 -0.9493
13801TIP3    H262895   0.129   0.846   1.950 -1.2515  0.5638  0.4130
13802TIP3   OH262896   4.258   6.808  17.180  0.2395  0.4779  0.5876
13802TIP3    H162897   4.258   6.812  17.085 -1.7288 -0.8032  0.5109
13802TIP3    H262898   4.320   6.876  17.207 -0.8153  2.3311 -1.5380
13803TIP3   OH262899   4.765   4.079   0.155 -0.2344  0.2254 -0.0675
13803TIP3    H162900   4.711   4.131   0.095 -0.2531 -0.1883 -0.4112
13803TIP3    H262901   4.782   4.138   0.229  2.8061  2.0960 -2.0876
13804TIP3   OH262902   1.784   3.925   1.738 -0.0523 -0.0812 -0.8774
13804TIP3    H162903   1.721   3.860   1.768 -0.0961  0.3452 -0.0294
13804TIP3    H262904   1.856   3.874   1.702 -1.0365 -0.5697 -2.1943
13805TIP3   OH262905   0.511   6.760   6.111 -0.4001  0.4840  0.2734
13805TIP3    H162906   0.603   6.736   6.101 -1.0057 -1.8930  0.0851
13805TIP3    H262907   0.509   6.855   6.095  2.1252  0.7428  1.2141
13806TIP3   OH262908   3.630   0.489   3.644 -0.4184  0.5589 -0.5325
13806TIP3    H162909   3.666   0.440   3.718  0.9986 -1.6277 -2.5757
13806TIP3    H262910   3.683   0.568   3.640 -0.1403  0.4305  0.4386
13807TIP3   OH262911   0.471   2.794   3.012 -0.4157  0.1237 -0.3644
13807TIP3    H162912   0.439   2.830   3.095 -1.7993  1.2463 -1.3612
13807TIP3    H262913   0.394   2.752   2.973  0.6779 -2.0451 -0.2127
13808TIP3   OH262914   6.777   1.636   5.165 -0.1597 -0.0276  0.3032
13808TIP3    H162915   6.688   1.668   5.148  0.3557  1.5927  0.5354
13808TIP3    H262916   6.766   1.564   5.226 -1.3990 -0.5388 -0.5134
13809TIP3   OH262917   5.075   1.918  11.810 -0.1458 -0.1071 -0.0004
13809TIP3    H162918   5.012   1.943  11.743 -0.4562 -1.3217 -0.1746
13809TIP3    H262919   5.038   1.840  11.850  0.8812 -0.3967  0.4073
13810TIP3   OH262920   6.249   5.981   1.716 -0.1108  0.0640 -0.1140
13810TIP3    H162921   6.216   5.959   1.803 -1.5739 -1.7654 -1.0956
13810TIP3    H262922   6.336   5.943   1.712  0.7065  1.7387  1.1787
13811TIP3   OH262923   6.573   4.201  16.783 -0.8178  0.2097 -0.2319
13811TIP3    H162924   6.643   4.241  16.732 -0.5575  0.4824  0.3457
13811TIP3    H262925   6.543   4.270  16.842  0.0060 -0.5998  1.1533
13812TIP3   OH262926   3.554   0.735  11.753  0.2690 -0.2310 -0.6303
13812TIP3    H162927   3.549   0.828  11.775 -0.5340 -0.0793 -1.4229
13812TIP3    H262928   3.533   0.690  11.835  0.6943  0.2886 -0.2368
13813TIP3   OH262929   6.671   5.249  16.820 -0.2080  0.0088 -0.0823
13813TIP3    H162930   6.765   5.255  16.835 -0.0837  1.7178 -1.3559
13813TIP3    H262931   6.635   5.329  16.859 -0.9992 -0.1193 -0.5316
13814TIP3   OH262932   5.320   2.407   2.593 -0.5281  0.5232 -0.0291
13814TIP3    H162933   5.266   2.402   2.514 -0.1770 -0.3133 -0.2203
13814TIP3    H262934   5.394   2.462   2.568  0.0592 -0.5016 -0.5703
13815TIP3   OH262935   0.515   3.550  16.972  0.2610  0.1546 -0.0685
13815TIP3    H162936   0.580   3.513  17.032 -0.6465  0.5974  1.1936
13815TIP3    H262937   0.567   3.584  16.899  1.3781 -0.3176  0.4902
13816TIP3   OH262938   2.663   4.421   6.168  0.3225 -0.4380 -0.2332
13816TIP3    H162939   2.603   4.454   6.101  0.7796  1.0373  0.0755
13816TIP3    H262940   2.606   4.386   6.236 -0.2396  1.8142  0.4979
13817TIP3   OH262941   6.049   5.168  12.059  0.4049 -0.4973  0.0407
13817TIP3    H162942   6.069   5.177  11.966 -1.6937 -0.1300 -0.4052
13817TIP3    H262943   5.997   5.088  12.065  0.0055 -0.1885  0.7893
13818TIP3   OH262944   0.532   0.398  12.991 -0.3762  0.4660  0.3875
13818TIP3    H162945   0.494   0.358  12.912 -2.9287 -1.1681  2.3514
13818TIP3    H262946   0.495   0.486  12.994 -0.9387  0.2353  0.2202
13819TIP3   OH262947   0.096   5.993   0.146  0.0261 -0.0011 -0.7180
13819TIP3    H162948   0.175   6.008   0.197 -0.8416 -0.7108  0.8613
13819TIP3    H262949   0.051   6.078   0.144 -0.4434 -0.2087  0.5902
13820TIP3   OH262950   6.058   0.129  16.226  0.4056 -0.4991  0.1052
13820TIP3    H162951   6.060   0.205  16.284  0.2026  2.1386 -3.1938
13820TIP3    H262952   6.143   0.132  16.181  0.4386 -2.3189  0.0123
13821TIP3   OH262953   1.102   5.452  11.604  0.6717 -0.0516 -0.1419
13821TIP3    H162954   1.112   5.365  11.644 -1.3475 -0.9645 -1.5263
13821TIP3    H262955   1.172   5.455  11.539  1.6813 -0.0401  0.9375
13822TIP3   OH262956   2.961   6.225  12.153 -0.4654 -0.1893  0.2649
13822TIP3    H162957   3.036   6.200  12.099 -0.5487 -1.5815  0.7451
13822TIP3    H262958   2.962   6.320  12.154  0.5843 -0.1781 -0.7242
13823TIP3   OH262959   6.059   6.349  13.235 -0.0908  0.1976  0.3933
13823TIP3    H162960   6.091   6.423  13.183  1.4577 -0.3326  0.5580
13823TIP3    H262961   5.972   6.331  13.200 -0.4137  1.9763  0.2283
13824TIP3   OH262962   6.505   3.790   4.369  0.2001 -0.1306  0.5565
13824TIP3    H162963   6.459   3.840   4.436  1.2161  1.2320  0.2690
13824TIP3    H262964   6.501   3.846   4.291 -0.3345 -1.3743 -0.3211
13825TIP3   OH262965   1.733   4.677  15.836  0.3807 -0.5456 -0.5657
13825TIP3    H162966   1.666   4.671  15.904  2.5676 -0.3652  1.6344
13825TIP3    H262967   1.761   4.587  15.822  0.9272 -0.4330 -0.2082
13826TIP3   OH262968   0.790   3.270   5.885  0.1651 -0.1898 -0.0164
13826TIP3    H162969   0.744   3.246   5.966 -1.1098  1.4931 -0.2283
13826TIP3    H262970   0.793   3.188   5.835 -0.5830 -0.8458  0.9850
13827TIP3   OH262971   2.891   6.682  11.468  0.5376 -0.7671  0.2580
13827TIP3    H162972   2.981   6.653  11.477  0.6589 -0.6302 -0.4706
13827TIP3    H262973   2.841   6.602  11.454  1.0608 -0.5703 -3.2216
13828TIP3   OH262974   2.546   4.849   4.292 -0.4320 -0.0750  0.2684
13828TIP3    H162975   2.459   4.859   4.254 -0.3337  1.2132  0.3667
13828TIP3    H262976   2.579   4.938   4.301  0.7905 -0.5384  0.4935
13829TIP3   OH262977   2.394   4.253  15.974 -0.0252 -0.1269  0.0111
13829TIP3    H162978   2.324   4.299  16.021 -0.9535 -0.7231 -0.7460
13829TIP3    H262979   2.410   4.306  15.896  1.0445  0.5111  0.6595
13830TIP3   OH262980   1.723   4.626  17.171  0.1121  0.4229  0.4171
13830TIP3    H162981   1.648   4.647  17.115  0.6517  1.3016  0.0124
13830TIP3    H262982   1.749   4.538  17.144 -1.2731 -0.2200  1.1256
13831TIP3   OH262983   6.615   1.086   4.739  0.0268 -0.0186  0.2810
13831TIP3    H162984   6.553   1.071   4.668 -0.8775 -1.2318  1.3088
13831TIP3    H262985   6.640   0.999   4.768 -1.2250  0.4251  2.8438
13832TIP3   OH262986   3.726   2.257   6.361  0.0489 -0.2512 -0.0846
13832TIP3    H162987   3.761   2.226   6.278 -1.3803 -0.3411 -0.6631
13832TIP3    H262988   3.791   2.319   6.393  0.5916 -0.2057 -1.2708
13833TIP3   OH262989   3.412   6.324  13.223  0.3679 -0.3100 -0.4417
13833TIP3    H162990   3.480   6.290  13.282 -0.1093  0.7219  0.7213
13833TIP3    H262991   3.442   6.412  13.201  0.1451 -0.4004 -1.1218
13834TIP3   OH262992   5.915   6.141   1.553 -0.2731  0.0643  0.2105
13834TIP3    H162993   5.835   6.194   1.548  0.4707  1.2250  0.2221
13834TIP3    H262994   5.978   6.188   1.498  0.2166 -1.1786 -0.3030
13835TIP3   OH262995   4.085   0.706   0.801 -0.1192  0.2773  0.4098
13835TIP3    H162996   4.077   0.707   0.896 -2.4618 -2.4511  0.3177
13835TIP3    H262997   4.062   0.616   0.776 -0.6506  1.2562 -2.8007
13836TIP3   OH262998   6.775   6.055  11.406  0.3241  0.3370  0.5033
13836TIP3    H162999   6.734   6.029  11.489  0.2266  1.0467  0.6825
13836TIP3    H263000   6.749   5.987  11.344  0.8083 -0.4722  1.1725
13837TIP3   OH263001   6.556   2.287  13.466 -0.8205 -0.2235 -0.0734
13837TIP3    H163002   6.510   2.363  13.430  1.1471  1.9963  1.8653
13837TIP3    H263003   6.642   2.321  13.490 -0.5239 -2.6456  2.5201
13838TIP3   OH263004   6.635   3.119   3.671 -0.1162  0.0803  0.7140
13838TIP3    H163005   6.659   3.173   3.596 -0.8322 -1.9261 -1.0034
13838TIP3    H263006   6.543   3.097   3.656  0.1385 -1.5188  1.4518
13839TIP3   OH263007   3.597   6.361  12.475  0.1961 -0.1202 -0.1548
13839TIP3    H163008   3.625   6.400  12.558  2.1852  1.5291 -1.5778
13839TIP3    H263009   3.676   6.322  12.438  0.6191  3.8175 -3.8036
13840TIP3   OH263010   2.698   5.352   4.069  0.0333 -0.1507  0.3277
13840TIP3    H163011   2.627   5.391   4.019 -0.4409 -1.2212  0.1508
13840TIP3    H263012   2.726   5.276   4.017 -0.6284 -1.4236  1.7888
13841TIP3   OH263013   4.663   1.393  11.394 -0.1086  0.0886  0.9397
13841TIP3    H163014   4.669   1.406  11.299  1.4935 -1.1533  0.8521
13841TIP3    H263015   4.742   1.344  11.416 -0.6286  0.1070  2.8811
13842TIP3   OH263016   3.842   2.885  11.961 -0.7723 -0.0021  0.0344
13842TIP3    H163017   3.868   2.934  12.039 -1.7375 -0.7254  0.8246
13842TIP3    H263018   3.757   2.921  11.937 -0.0619  0.8660 -1.2628
13843TIP3   OH263019   0.790   3.545   3.543 -0.2757 -0.3285  0.3135
13843TIP3    H163020   0.823   3.622   3.589  1.4386 -1.5019  1.0550
13843TIP3    H263021   0.703   3.530   3.581 -0.3677  0.8549  0.6001
13844TIP3   OH263022   0.373   2.238   4.009  0.0459 -0.3696 -0.4144
13844TIP3    H163023   0.447   2.213   4.066  0.7607  1.1966 -0.6176
13844TIP3    H263024   0.308   2.274   4.069  0.3433  0.2495 -0.4574
13845TIP3   OH263025   1.005   2.586  13.306 -0.0893 -0.0621 -0.2543
13845TIP3    H163026   0.933   2.648  13.318  0.2629  0.2395  0.3069
13845TIP3    H263027   1.036   2.568  13.394  1.1119  0.5059 -0.5558
13846TIP3   OH263028   0.420   6.207  13.652 -0.6975 -0.1213 -0.3510
13846TIP3    H163029   0.358   6.212  13.580  2.6776 -0.6933 -3.4219
13846TIP3    H263030   0.446   6.298  13.669 -1.8007  0.0506  0.4574
13847TIP3   OH263031   4.363   2.769   0.657  0.1531  0.2204 -0.8813
13847TIP3    H163032   4.421   2.758   0.581  1.1788  1.7210 -0.3585
13847TIP3    H263033   4.355   2.682   0.695  1.5970 -0.1155 -1.3221
13848TIP3   OH263034   5.237   1.553  13.387 -0.2643 -0.1349 -0.0938
13848TIP3    H163035   5.263   1.638  13.422  0.4017 -1.1361  1.9002
13848TIP3    H263036   5.142   1.551  13.393 -0.1382 -0.4927  2.2130
13849TIP3   OH263037   1.800   4.481  11.270 -0.1230 -0.1228 -0.1019
13849TIP3    H163038   1.733   4.426  11.229 -0.2042 -0.1679  0.0902
13849TIP3    H263039   1.751   4.537  11.331 -0.4192  2.1108 -2.3094
13850TIP3   OH263040   2.394   1.449  15.214  0.3451 -0.6307 -0.2836
13850TIP3    H163041   2.333   1.488  15.152 -0.3845 -2.3374 -0.6632
13850TIP3    H263042   2.475   1.437  15.164  0.8381  1.0778  0.0553
13851TIP3   OH263043   4.733   2.952  14.216 -0.5625 -0.1099 -0.5241
13851TIP3    H163044   4.690   2.880  14.262 -0.2436  1.0766  1.7145
13851TIP3    H263045   4.661   3.007  14.184 -0.7546  0.4412  0.8504
13852TIP3   OH263046   0.116   4.415  13.665 -0.2643  0.1736 -0.3397
13852TIP3    H163047   0.069   4.382  13.741 -0.2150 -1.0572 -0.8363
13852TIP3    H263048   0.057   4.398  13.591 -0.4749  1.7002 -0.5424
13853TIP3   OH263049   5.993   6.420   4.057  0.2659  0.4048  0.6505
13853TIP3    H163050   5.972   6.503   4.101  0.2917  0.5150  0.4534
13853TIP3    H263051   6.072   6.440   4.006  1.6029 -0.3151  2.3564
13854TIP3   OH263052   2.924   4.181  13.528  0.0741  0.7410 -0.1584
13854TIP3    H163053   2.953   4.272  13.536 -0.4136  0.8205  0.8456
13854TIP3    H263054   2.916   4.166  13.434  3.0011  0.8181 -0.4432
13855TIP3   OH263055   0.817   2.964  16.437 -0.1604 -0.3625  0.1504
13855TIP3    H163056   0.812   2.939  16.530 -0.5240 -1.6503 -0.2010
13855TIP3    H263057   0.741   3.020  16.423  1.4766  2.2189  1.3215
13856TIP3   OH263058   0.325   2.945   3.735  0.0409  0.4326  0.1503
13856TIP3    H163059   0.412   2.915   3.759  0.2753  0.8714 -0.1360
13856TIP3    H263060   0.307   3.017   3.795  0.5987  1.4871 -0.9230
13857TIP3   OH263061   4.344   6.603  13.617 -0.2130  0.5364 -0.4642
13857TIP3    H163062   4.404   6.676  13.600  1.0489 -0.1213  1.0105
13857TIP3    H263063   4.301   6.586  13.533  0.4549  2.1003 -1.1336
13858TIP3   OH263064   5.825   1.043   2.216  0.0603 -0.1185  0.1356
13858TIP3    H163065   5.762   1.041   2.288 -0.3473 -0.4145 -0.2237
13858TIP3    H263066   5.906   1.076   2.255 -0.4520  0.7278  0.4882
13859TIP3   OH263067   0.061   1.401  11.703  0.0444  0.4101 -0.2910
13859TIP3    H163068  -0.015   1.382  11.649 -0.7351 -0.5900  1.1105
13859TIP3    H263069   0.115   1.323  11.699 -0.2060  0.1747  0.6505
13860TIP3   OH263070   3.707   6.438   0.528  0.0132 -0.0624 -0.5481
13860TIP3    H163071   3.653   6.426   0.450 -1.0420 -2.3353  0.5042
13860TIP3    H263072   3.745   6.352   0.545  2.5991  1.0968 -0.2530
13861TIP3   OH263073   4.082   5.589   5.740  0.0185 -0.0701  0.1066
13861TIP3    H163074   3.989   5.588   5.762  0.4318 -0.5368  1.9283
13861TIP3    H263075   4.121   5.647   5.805  0.9947  0.2376 -0.7363
13862TIP3   OH263076   4.742   2.440  16.545  0.0263 -1.1570  0.3063
13862TIP3    H163077   4.821   2.458  16.595  0.2190 -1.7434  0.2198
13862TIP3    H263078   4.753   2.350  16.514 -0.7374 -1.2963  0.4182
13863TIP3   OH263079   3.921   5.818   3.883  0.4335 -0.1645 -0.3314
13863TIP3    H163080   3.996   5.767   3.853  0.6161 -0.4563  0.5953
13863TIP3    H263081   3.960   5.893   3.928  0.1816 -0.7874  0.9467
13864TIP3   OH263082   1.923   0.620   2.096 -0.2167  0.1470 -0.2448
13864TIP3    H163083   1.933   0.593   2.004 -1.6736  0.8173 -0.6139
13864TIP3    H263084   1.951   0.711   2.097 -1.9909  0.7171 -0.4248
13865TIP3   OH263085   2.022   5.092  17.191  0.2624 -0.5417  0.4365
13865TIP3    H163086   2.073   5.063  17.116  1.6564  2.0007  0.3259
13865TIP3    H263087   2.072   5.061  17.267  1.0820  0.4666  0.3179
13866TIP3   OH263088   3.702   0.199  14.443 -0.0667  0.4742  0.3923
13866TIP3    H163089   3.682   0.176  14.534 -1.1389 -2.0287 -0.4258
13866TIP3    H263090   3.791   0.234  14.446  1.6932 -3.8070  1.7973
13867TIP3   OH263091   3.691   2.977   6.011  0.1335  0.3798  0.0428
13867TIP3    H163092   3.725   3.026   5.937  0.8936  0.9492  0.7677
13867TIP3    H263093   3.768   2.935   6.051 -0.3752 -0.6165  0.0096
13868TIP3   OH263094   3.259   2.159   4.216 -0.5359 -0.1784 -0.6736
13868TIP3    H163095   3.321   2.094   4.184 -0.5619  0.6426 -2.4573
13868TIP3    H263096   3.308   2.209   4.281 -0.9373 -2.8308  1.7916
13869TIP3   OH263097   1.023   3.857   2.541  0.4336  1.2981 -0.5979
13869TIP3    H163098   0.956   3.886   2.480 -1.2509 -1.2567 -0.0599
13869TIP3    H263099   1.087   3.811   2.487  0.1797  1.1147 -0.7425
13870TIP3   OH263100   1.354   1.947   4.528 -0.1328 -0.1017 -0.6564
13870TIP3    H163101   1.337   1.872   4.471  1.5723  0.4234 -1.8885
13870TIP3    H263102   1.393   1.909   4.607 -0.7138 -0.6428 -0.6255
13871TIP3   OH263103   0.789   1.299   3.132 -0.1753 -0.3527  0.0967
13871TIP3    H163104   0.729   1.319   3.204  0.0291 -0.7047  0.3673
13871TIP3    H263105   0.732   1.269   3.061 -0.2745 -1.3278  0.5781
13872TIP3   OH263106   6.288   6.154  14.125 -0.3200 -0.1641 -0.4435
13872TIP3    H163107   6.314   6.136  14.215  0.0880  1.9097 -0.0997
13872TIP3    H263108   6.287   6.069  14.082 -2.1956 -1.4045  1.9317
13873TIP3   OH263109   2.780   0.469  15.411 -0.5181 -0.5075  0.0261
13873TIP3    H163110   2.752   0.414  15.338 -0.2796 -2.9546  1.7100
13873TIP3    H263111   2.876   0.470  15.404 -0.5566  0.4288 -0.4922
13874TIP3   OH263112   3.232   1.942  13.286 -0.0330  0.0980 -0.1678
13874TIP3    H163113   3.267   1.863  13.245  0.4970 -0.5310  1.4449
13874TIP3    H263114   3.150   1.960  13.240 -0.0035 -1.2284 -0.7390
13875TIP3   OH263115   6.564   5.673   4.888  0.2232  0.2822 -0.0473
13875TIP3    H163116   6.586   5.594   4.839 -0.6558 -0.1221  0.2068
13875TIP3    H263117   6.649   5.713   4.907  0.6710 -0.5770 -0.2026
13876TIP3   OH263118   0.545   0.558   2.272  0.3500  0.4859  0.1265
13876TIP3    H163119   0.547   0.483   2.213  0.9588  0.1790  0.5294
13876TIP3    H263120   0.573   0.632   2.217  1.4774  0.1003  0.1614
13877TIP3   OH263121   2.041   0.331  12.576 -0.9231 -0.4040 -0.0550
13877TIP3    H163122   1.991   0.251  12.558  0.0378 -0.9211 -0.4690
13877TIP3    H263123   2.047   0.375  12.491 -0.3613 -0.5374 -0.0910
13878TIP3   OH263124   3.449   2.447  12.166 -0.1830 -0.2061  0.0431
13878TIP3    H163125   3.356   2.461  12.150 -0.5601 -2.7570 -0.2213
13878TIP3    H263126   3.456   2.354  12.187  2.7024 -0.8289 -3.1842
13879TIP3   OH263127   0.019   0.204   0.878  0.0731 -0.4552 -0.6497
13879TIP3    H163128   0.056   0.232   0.794  0.0889  0.7165 -0.2570
13879TIP3    H263129   0.089   0.155   0.920 -0.3394 -2.1121 -1.8375
13880TIP3   OH263130   1.141   5.618  16.797  0.2906 -0.0063 -0.1374
13880TIP3    H163131   1.180   5.682  16.737 -1.2281  1.8311  0.7604
13880TIP3    H263132   1.050   5.610  16.768  0.0259 -0.4819  0.8047
13881TIP3   OH263133   1.843   0.854  15.774  0.1130  0.1028  0.1014
13881TIP3    H163134   1.872   0.921  15.837 -0.3880 -1.7217  2.3325
13881TIP3    H263135   1.748   0.852  15.784  0.2020 -1.5609  0.7170
13882TIP3   OH263136   1.612   3.815  12.911 -0.1492 -0.0489  0.2899
13882TIP3    H163137   1.660   3.802  12.829  2.8853  2.7007  1.5378
13882TIP3    H263138   1.648   3.748  12.970 -2.7988 -2.4606 -0.7352
13883TIP3   OH263139   6.632   5.646   2.427 -0.6243 -0.0975  0.5196
13883TIP3    H163140   6.657   5.558   2.399 -1.9950 -0.6157  0.8530
13883TIP3    H263141   6.708   5.701   2.407  0.5476 -1.5020  1.0632
13884TIP3   OH263142   6.367   1.298  12.188  0.7410 -0.1202  0.1423
13884TIP3    H163143   6.287   1.341  12.218  0.5816  0.2195 -0.7413
13884TIP3    H263144   6.339   1.245  12.113  0.9831 -1.5706  1.0595
13885TIP3   OH263145   1.647   1.283  16.807 -0.3074  0.1487  0.2804
13885TIP3    H163146   1.635   1.378  16.813  0.0892  0.2604 -0.5573
13885TIP3    H263147   1.566   1.246  16.841 -0.8755  0.8124 -0.3331
13886TIP3   OH263148   2.454   0.865  13.461  0.6510  0.0823  0.3259
13886TIP3    H163149   2.425   0.834  13.546 -2.2527  0.6271 -0.4036
13886TIP3    H263150   2.472   0.958  13.474 -0.1114  0.2381  0.2746
13887TIP3   OH263151   4.434   4.568   4.992  0.5047 -0.2475  0.4597
13887TIP3    H163152   4.393   4.510   4.928  0.0288 -0.1248  0.6480
13887TIP3    H263153   4.404   4.655   4.968 -0.8795 -0.3470  1.7319
13888TIP3   OH263154   3.094   3.919  12.669  0.2350  0.0082 -0.8703
13888TIP3    H163155   3.165   3.888  12.725  0.2607 -0.1116 -0.9700
13888TIP3    H263156   3.101   4.014  12.672 -0.7646  0.0383  0.6278
13889TIP3   OH263157   6.507   6.478  12.634 -0.4549  0.6340  0.1636
13889TIP3    H163158   6.575   6.545  12.625  0.1718 -0.0871 -0.6604
13889TIP3    H263159   6.435   6.508  12.580 -0.0155  0.4633 -0.5320
13890TIP3   OH263160   1.338   5.616  17.000  0.0399  0.4922  0.0966
13890TIP3    H163161   1.277   5.662  17.057  1.0325  1.3145  0.5019
13890TIP3    H263162   1.286   5.592  16.924 -1.2424 -0.3963  1.2200
13891TIP3   OH263163   0.805   1.453  13.456  0.6117 -0.3171  0.0662
13891TIP3    H163164   0.726   1.437  13.404  1.0515  0.6216 -0.9208
13891TIP3    H263165   0.773   1.497  13.535 -0.0732 -1.8553  0.6562
13892TIP3   OH263166   0.609   3.366   4.018  0.2984 -0.2207  0.3429
13892TIP3    H163167   0.686   3.370   4.075 -1.5556  1.0695  2.8794
13892TIP3    H263168   0.644   3.380   3.930  3.1330 -1.2322  1.2339
13893TIP3   OH263169   2.464   5.188   5.024 -0.7671 -0.1767  0.3572
13893TIP3    H163170   2.423   5.103   5.004 -1.3803 -0.3687  2.3139
13893TIP3    H263171   2.539   5.193   4.964  0.2797 -2.8642  1.3748
13894TIP3   OH263172   3.217   0.499   3.987  0.1908  0.3162 -0.2608
13894TIP3    H163173   3.188   0.560   3.919 -0.5795 -0.1044 -0.3172
13894TIP3    H263174   3.179   0.533   4.068  1.0227  0.7587 -0.0506
13895TIP3   OH263175   2.527   4.468  13.775  0.6569 -0.0951 -0.5863
13895TIP3    H163176   2.444   4.492  13.814  0.0255  0.7593 -2.4298
13895TIP3    H263177   2.565   4.405  13.837 -1.4494 -0.6819  0.1504
13896TIP3   OH263178   6.811   4.057  11.881 -0.9862  0.6406  0.3527
13896TIP3    H163179   6.781   4.095  11.799  3.2201  1.3396 -0.9884
13896TIP3    H263180   6.853   3.975  11.857  1.1916  1.3358  1.6257
13897TIP3   OH263181   4.028   4.596  10.792  0.0471 -0.0574 -0.0867
13897TIP3    H163182   4.053   4.510  10.827  2.5701  1.6756  2.5730
13897TIP3    H263183   3.966   4.631  10.856 -1.2341 -0.0018 -1.3381
13898TIP3   OH263184   5.895   6.400  11.624 -0.0047  0.1217 -0.5551
13898TIP3    H163185   5.966   6.359  11.574 -0.4396 -0.5026 -0.6677
13898TIP3    H263186   5.908   6.494  11.611  0.8559  0.0190 -0.5055
13899TIP3   OH263187   4.129   0.131  14.539  0.7026  0.4943  0.0359
13899TIP3    H163188   4.095   0.087  14.461 -1.2464 -1.8597  2.0912
13899TIP3    H263189   4.074   0.208  14.550  0.5187  0.4389 -0.5062
13900TIP3   OH263190   4.333   1.335   1.543 -0.3597  0.6623 -0.2500
13900TIP3    H163191   4.333   1.416   1.492  1.3647  0.7977 -0.0686
13900TIP3    H263192   4.391   1.353   1.617  0.6485 -0.9546 -0.6091
13901TIP3   OH263193   3.258   3.714   2.947 -0.2008  0.4553 -0.2034
13901TIP3    H163194   3.348   3.690   2.968 -0.1025  0.5460 -0.5357
13901TIP3    H263195   3.220   3.634   2.911 -0.5147  0.1522  0.7685
13902TIP3   OH263196   6.782   1.620   1.926  0.0384 -0.1467  0.0627
13902TIP3    H163197   6.706   1.638   1.982 -0.1251 -2.4486  0.6575
13902TIP3    H263198   6.852   1.675   1.962 -0.8932  0.7312  0.5701
13903TIP3   OH263199   6.003   2.479   0.856  0.0517  0.1114 -0.4078
13903TIP3    H163200   6.052   2.522   0.926  0.0664 -0.3115 -0.1617
13903TIP3    H263201   6.060   2.483   0.780 -0.3477  1.4444 -0.6563
13904TIP3   OH263202   4.691   1.941  12.816  0.3793 -0.4062 -0.6189
13904TIP3    H163203   4.652   2.027  12.831 -1.3968 -1.2768 -0.0840
13904TIP3    H263204   4.650   1.910  12.735  1.9409 -0.2453 -1.4923
13905TIP3   OH263205   5.692   5.311  13.439 -0.0804  0.3127 -0.2301
13905TIP3    H163206   5.719   5.400  13.414  0.0608  0.2065 -0.4523
13905TIP3    H263207   5.763   5.255  13.409 -0.9008 -0.0531 -1.5012
13906TIP3   OH263208   5.782   2.710   3.659 -0.3118  0.0795  0.2535
13906TIP3    H163209   5.812   2.801   3.665 -0.0618  0.1306 -1.5148
13906TIP3    H263210   5.698   2.710   3.705 -0.0576  1.0688  0.7499
13907TIP3   OH263211   1.330   1.849  12.693 -0.3952 -0.4571 -0.3342
13907TIP3    H163212   1.281   1.826  12.772 -0.2560 -1.4667 -0.5254
13907TIP3    H263213   1.416   1.809  12.706 -0.0562  0.1875 -0.5805
13908TIP3   OH263214   6.174   3.698   1.794 -0.0213 -0.5931  0.2767
13908TIP3    H163215   6.187   3.702   1.889 -2.3975 -1.3236  0.6712
13908TIP3    H263216   6.219   3.618   1.767  0.8650 -0.2570  0.7387
13909TIP3   OH263217   1.630   5.191  10.313  0.7219 -0.1961 -0.2179
13909TIP3    H163218   1.570   5.257  10.278  1.4244  0.8477  0.5351
13909TIP3    H263219   1.573   5.129  10.358  0.1654  0.6075  0.2052
13910TIP3   OH263220   2.513   3.966  11.174 -0.0633 -0.2042 -0.4013
13910TIP3    H163221   2.537   4.009  11.257  0.1943  0.7627 -0.9630
13910TIP3    H263222   2.596   3.940  11.135 -0.0322  1.1914 -1.3192
13911TIP3   OH263223   1.252   5.331   5.370 -0.2098 -0.0606 -0.5261
13911TIP3    H163224   1.160   5.313   5.389  0.1772 -1.1311  0.4588
13911TIP3    H263225   1.299   5.292   5.444  0.9779  1.2628 -0.5612
13912TIP3   OH263226   5.636   4.921  12.719  0.2660  0.1134  0.4063
13912TIP3    H163227   5.620   4.890  12.630 -0.9911  1.1276  0.2766
13912TIP3    H263228   5.652   5.015  12.710  0.3439  0.1848  1.2202
13913TIP3   OH263229   5.174   2.490   5.379 -0.0709  0.7426  0.0585
13913TIP3    H163230   5.169   2.475   5.284  0.1226  0.1494  0.1384
13913TIP3    H263231   5.114   2.425   5.416  2.3693 -1.2932  0.5546
13914TIP3   OH263232   2.564   0.099   0.651  0.1525  0.4060 -0.2278
13914TIP3    H163233   2.560   0.044   0.573  3.0387  0.7665 -0.6943
13914TIP3    H263234   2.581   0.038   0.723 -1.2433  0.2152 -0.0442
13915TIP3   OH263235   5.018   4.356   4.156 -0.0872 -0.3799 -0.5230
13915TIP3    H163236   5.044   4.413   4.229 -0.2679 -0.6928 -0.2179
13915TIP3    H263237   4.942   4.308   4.188  0.0792 -0.8152 -0.7743
13916TIP3   OH263238   2.507   3.056   3.342  0.1678  1.4014 -0.3063
13916TIP3    H163239   2.599   3.049   3.314  0.6685 -0.3273  1.6620
13916TIP3    H263240   2.457   3.023   3.268  1.2439  0.5342 -0.6626
13917TIP3   OH263241   6.255   6.262   2.611 -0.8218  0.0553  0.4587
13917TIP3    H163242   6.222   6.351   2.602 -1.7740 -0.1936  1.4408
13917TIP3    H263243   6.321   6.254   2.542 -1.6497  1.0888 -0.4766
13918TIP3   OH263244   1.191   6.550  12.618 -0.8426  0.4197  0.4101
13918TIP3    H163245   1.134   6.625  12.602  0.0443  0.4280 -2.9817
13918TIP3    H263246   1.135   6.473  12.609 -0.7131  0.4998 -1.1851
13919TIP3   OH263247   2.680   1.018  12.416  0.1096 -0.1169 -0.8302
13919TIP3    H163248   2.749   0.956  12.440 -0.7805 -1.0039 -0.5096
13919TIP3    H263249   2.726   1.094  12.382  1.2879 -0.2054  0.5473
13920TIP3   OH263250   3.072   6.443  12.325 -0.5316  0.0909 -0.8101
13920TIP3    H163251   3.084   6.532  12.357 -1.2002 -0.8237  2.1568
13920TIP3    H263252   3.153   6.398  12.349 -1.4885 -0.8897  0.7506
13921TIP3   OH263253   3.493   4.620  13.430 -0.3233 -0.0791 -0.0580
13921TIP3    H163254   3.452   4.610  13.344 -1.6241 -2.9269  0.8392
13921TIP3    H263255   3.469   4.709  13.457 -1.0000  0.3828 -2.0738
13922TIP3   OH263256   1.698   2.466  15.623 -1.1250 -0.0602  0.8760
13922TIP3    H163257   1.708   2.411  15.545 -2.3638  0.3216  0.4348
13922TIP3    H263258   1.708   2.556  15.590  1.3671 -0.0159  1.6697
13923TIP3   OH263259   3.370   1.524  11.055  0.0459 -0.9193 -0.2230
13923TIP3    H163260   3.425   1.453  11.087  1.1083  0.1646  0.3981
13923TIP3    H263261   3.305   1.537  11.124  1.1278  0.1005  0.6078
13924TIP3   OH263262   5.670   0.292  12.435 -0.5089  0.0487  0.0388
13924TIP3    H163263   5.705   0.334  12.356 -1.9594  0.2608 -0.4982
13924TIP3    H263264   5.699   0.201  12.427 -1.2940 -0.1136 -1.1352
13925TIP3   OH263265   2.177   6.040   3.567  0.3133 -0.4500 -0.6303
13925TIP3    H163266   2.140   5.956   3.594  0.1919 -0.1008  0.3379
13925TIP3    H263267   2.245   6.058   3.632 -0.7092  0.9177  0.1003
13926TIP3   OH263268   5.198   1.117  16.919 -0.2792  0.2800 -0.5384
13926TIP3    H163269   5.106   1.140  16.921 -0.2364  0.4221 -0.1782
13926TIP3    H263270   5.237   1.177  16.855 -0.2718  0.8178 -0.0275
13927TIP3   OH263271   1.197   0.469   2.512  0.2046 -0.2578  0.1500
13927TIP3    H163272   1.126   0.416   2.550  0.7936  0.4210  2.2265
13927TIP3    H263273   1.183   0.462   2.418 -1.4946 -1.6996  0.4736
13928TIP3   OH263274   6.749   5.111   4.181  0.3453  0.2975  1.0385
13928TIP3    H163275   6.839   5.079   4.182  0.5067  0.6478 -0.7043
13928TIP3    H263276   6.754   5.195   4.136 -0.8374  0.3716  1.0261
13929TIP3   OH263277   5.322   3.293  13.017 -0.7978 -0.1766 -0.4111
13929TIP3    H163278   5.397   3.248  12.977 -0.5943  1.6414 -2.2185
13929TIP3    H263279   5.255   3.226  13.025 -0.1314 -1.0756 -1.9750
13930TIP3   OH263280   3.357   4.945  16.476  0.2119 -0.0789  0.7504
13930TIP3    H163281   3.325   5.029  16.509 -0.4770  0.0446 -0.2303
13930TIP3    H263282   3.450   4.946  16.495  0.7368  2.0865 -1.7344
13931TIP3   OH263283   5.641   2.229  12.457  0.3123 -0.3027  0.0701
13931TIP3    H163284   5.700   2.282  12.402 -1.2700 -0.0407 -1.3948
13931TIP3    H263285   5.568   2.288  12.476 -0.7474 -1.4950 -0.3171
13932TIP3   OH263286   1.526   1.782   1.386  0.3688 -0.2225  0.1540
13932TIP3    H163287   1.455   1.828   1.342  1.5109  0.1310 -1.3912
13932TIP3    H263288   1.595   1.777   1.320  1.5535 -1.0826  1.4295
13933TIP3   OH263289   1.738   4.628  15.486 -0.6755 -0.7071  0.0122
13933TIP3    H163290   1.647   4.653  15.501 -0.2479  0.6036  0.5161
13933TIP3    H263291   1.774   4.617  15.574  0.2883  1.2080 -0.1131
13934TIP3   OH263292   3.892   0.051   0.070 -0.1855  0.3513  0.4576
13934TIP3    H163293   3.799   0.070   0.074  0.1344  1.7386  1.7189
13934TIP3    H263294   3.932   0.109   0.135  1.9664  2.2968 -2.4483
13935TIP3   OH263295   5.356   1.894  13.367 -0.0822  0.2091  0.1875
13935TIP3    H163296   5.363   1.951  13.290  0.6119  0.5805  0.5177
13935TIP3    H263297   5.264   1.899  13.392 -0.7174 -1.3579 -1.7091
13936TIP3   OH263298   4.295   0.826  14.168  0.5285 -0.2553 -0.6649
13936TIP3    H163299   4.246   0.840  14.249 -0.9229 -1.3961 -1.3166
13936TIP3    H263300   4.387   0.836  14.193  0.0211  0.7905  0.8232
13937TIP3   OH263301   2.452   4.928   0.017 -0.3854  0.3461  0.3550
13937TIP3    H163302   2.424   4.838  -0.002 -0.1602 -0.0678  1.8849
13937TIP3    H263303   2.536   4.937  -0.027 -0.6595 -0.0220 -0.2468
13938TIP3   OH263304   6.291   5.885   2.045  0.1382  1.1191 -1.1041
13938TIP3    H163305   6.332   5.802   2.021 -0.7221  0.5863 -0.7592
13938TIP3    H263306   6.352   5.925   2.107 -0.0675  0.1294 -0.2559
13939TIP3   OH263307   2.456   6.394   2.930 -0.2927  0.1462  0.6620
13939TIP3    H163308   2.423   6.462   2.989  1.1950  1.8707 -0.4267
13939TIP3    H263309   2.404   6.405   2.850 -1.2505 -1.1720  1.0913
13940TIP3   OH263310   2.307   6.555   2.028 -0.1733 -0.0979  0.2321
13940TIP3    H163311   2.319   6.482   2.089  1.3376 -0.0734 -0.0180
13940TIP3    H263312   2.254   6.519   1.957  0.8325 -1.0762 -0.0521
13941TIP3   OH263313   5.515   4.733  12.972  0.9132 -0.0076 -0.3995
13941TIP3    H163314   5.479   4.777  12.895 -0.9136 -1.2245 -0.2576
13941TIP3    H263315   5.563   4.801  13.018 -1.7965  1.8369 -0.2167
13942TIP3   OH263316   5.799   1.166  14.490 -0.3435 -0.3086 -0.0355
13942TIP3    H163317   5.756   1.225  14.551 -1.7261  0.2870 -1.5650
13942TIP3    H263318   5.728   1.121  14.445  0.6298 -0.0748 -1.8474
13943TIP3   OH263319   5.635   6.302  15.291 -0.8893 -0.0881 -0.1019
13943TIP3    H163320   5.547   6.289  15.256 -0.2807 -0.3905 -1.5904
13943TIP3    H263321   5.677   6.361  15.228  0.7958 -2.0035 -0.8443
13944TIP3   OH263322   3.787   3.253   1.910  0.3570  0.0086 -0.6214
13944TIP3    H163323   3.708   3.306   1.915 -0.1342 -0.8499  1.0257
13944TIP3    H263324   3.766   3.185   1.846 -0.5088 -0.6517  0.3547
13945TIP3   OH263325   5.531   4.392  14.769  0.1496 -0.2536  0.3681
13945TIP3    H163326   5.460   4.418  14.828  0.4124  0.5690  0.3281
13945TIP3    H263327   5.520   4.449  14.692  1.0820  0.1464  0.5249
13946TIP3   OH263328   3.819   4.562   4.291  0.7360  0.1397  0.4004
13946TIP3    H163329   3.795   4.556   4.199  1.7025  1.1913  0.0597
13946TIP3    H263330   3.772   4.639   4.323 -0.2424 -0.6947  1.0068
13947TIP3   OH263331   6.074   0.519   5.154  0.1149 -0.0482 -0.6807
13947TIP3    H163332   6.148   0.471   5.117  0.9513 -0.0742  0.9925
13947TIP3    H263333   6.072   0.492   5.246 -0.3642  1.9289 -0.0952
13948TIP3   OH263334   0.835   2.069  14.382 -0.1655  0.1301 -0.3792
13948TIP3    H163335   0.862   2.134  14.317  0.3807  0.9804  0.6812
13948TIP3    H263336   0.846   2.113  14.466  0.8670 -1.5719  0.4003
13949TIP3   OH263337   1.154   2.260   5.449 -0.4970  0.3097  0.1711
13949TIP3    H163338   1.103   2.307   5.515  0.3638 -0.0844  1.1211
13949TIP3    H263339   1.152   2.169   5.477 -1.4025 -0.1189 -1.1811
13950TIP3   OH263340   5.610   3.961   4.634  0.2903  0.3766 -0.2453
13950TIP3    H163341   5.662   3.995   4.707 -0.7784  0.0541  0.6938
13950TIP3    H263342   5.618   4.027   4.565  0.9247  0.9219  0.3427
13951TIP3   OH263343   4.966   4.861  14.495  0.2037 -0.4022  0.2134
13951TIP3    H163344   4.930   4.938  14.539 -2.3477 -1.2120 -0.3780
13951TIP3    H263345   4.890   4.804  14.481  1.7376 -2.1596 -1.1059
13952TIP3   OH263346   2.620   1.455   3.676  0.0221 -0.6043 -0.1340
13952TIP3    H163347   2.643   1.419   3.762  1.5399  1.7788  0.5153
13952TIP3    H263348   2.530   1.485   3.686  0.4599  0.4316  0.9209
13953TIP3   OH263349   3.354   0.135  15.880 -0.2738 -0.1834  0.1524
13953TIP3    H163350   3.360   0.142  15.785  1.5051  3.3172  0.4447
13953TIP3    H263351   3.295   0.207  15.906 -0.4347 -0.8648  1.7326
13954TIP3   OH263352   5.522   4.363  15.723  0.3284 -0.4568  0.0059
13954TIP3    H163353   5.528   4.268  15.730 -0.7775 -0.6778 -1.6993
13954TIP3    H263354   5.524   4.395  15.813 -1.2139 -2.2217  0.6823
13955TIP3   OH263355   1.026   3.305  11.607 -0.2144  0.1956  0.4301
13955TIP3    H163356   0.994   3.395  11.601 -1.6590 -0.3501 -0.3940
13955TIP3    H263357   0.967   3.255  11.550  0.6601 -1.2466  0.7643
13956TIP3   OH263358   3.017   1.949   3.228  0.9334 -0.2902 -0.3617
13956TIP3    H163359   3.030   1.932   3.321  1.6998  1.3170 -0.1580
13956TIP3    H263360   3.083   2.015   3.206 -0.5194  0.8001 -1.6024
13957TIP3   OH263361   1.562   2.693  15.906 -0.1144 -0.3591 -0.2849
13957TIP3    H163362   1.553   2.729  15.818 -1.2180 -1.4995 -0.6596
13957TIP3    H263363   1.506   2.615  15.906  1.2315 -1.3581  0.8920
13958TIP3   OH263364   3.189   4.401  15.292 -0.4902 -0.2174  0.3682
13958TIP3    H163365   3.215   4.433  15.206 -0.7676  1.4822  0.8962
13958TIP3    H263366   3.111   4.452  15.314 -0.0596 -0.1944  1.8874
13959TIP3   OH263367   4.397   2.659  11.068  1.1106 -0.4664 -0.2938
13959TIP3    H163368   4.404   2.661  10.973 -0.2166 -0.7272 -0.3964
13959TIP3    H263369   4.315   2.613  11.086  0.4324  1.1609  0.9373
13960TIP3   OH263370   5.286   1.414  15.449 -0.1614 -0.3832 -0.0407
13960TIP3    H163371   5.277   1.509  15.453 -2.2357 -0.4318 -2.1249
13960TIP3    H263372   5.289   1.386  15.541 -0.9933  1.5845  0.6074
13961TIP3   OH263373   3.108   2.991  16.110 -0.1345 -0.1116 -0.0444
13961TIP3    H163374   3.162   2.984  16.031 -0.8793 -1.7439 -0.4228
13961TIP3    H263375   3.156   2.943  16.177 -1.2385 -1.8427 -0.4641
13962TIP3   OH263376   6.564   5.012  11.617  0.2787  0.3089 -0.2917
13962TIP3    H163377   6.565   4.946  11.547  0.9262  1.4105 -1.3292
13962TIP3    H263378   6.515   5.085  11.580 -1.0204  0.1645  1.1028
13963TIP3   OH263379   4.760   4.945  11.714  0.6166  0.0706  0.1441
13963TIP3    H163380   4.700   4.914  11.647  0.1786  0.4996  0.3394
13963TIP3    H263381   4.761   5.040  11.705 -0.2202  0.2148  1.4031
13964TIP3   OH263382   6.072   4.570   3.450  0.4383 -0.4809  0.6011
13964TIP3    H163383   5.989   4.612   3.429  0.5531 -0.0927  0.9016
13964TIP3    H263384   6.117   4.633   3.506 -0.0300 -1.6260  2.3344
13965TIP3   OH263385   3.300   6.430   1.802 -0.3484 -0.4360 -0.6362
13965TIP3    H163386   3.324   6.341   1.829 -1.8535 -0.4520  0.6981
13965TIP3    H263387   3.267   6.419   1.713  0.7186 -1.0151 -0.9724
13966TIP3   OH263388   5.380   1.581  15.163  0.1446 -0.7652  0.2131
13966TIP3    H163389   5.377   1.571  15.258  2.2528  0.2998  0.4226
13966TIP3    H263390   5.379   1.676  15.149 -1.0557 -0.9185 -0.8962
13967TIP3   OH263391   3.063   0.155  15.750 -0.1378 -0.3210 -0.3952
13967TIP3    H163392   3.082   0.231  15.805 -3.5006  0.6753 -0.5044
13967TIP3    H263393   3.093   0.080  15.802  0.3079  0.8778  1.1042
13968TIP3   OH263394   5.576   4.611  14.165  0.2004 -0.2823  0.2669
13968TIP3    H163395   5.535   4.664  14.096 -0.2421 -0.6114  0.2750
13968TIP3    H263396   5.550   4.654  14.247  0.3302 -0.1673  0.2475
13969TIP3   OH263397   0.407   5.682   3.177  0.2725 -0.4786  0.2525
13969TIP3    H163398   0.438   5.624   3.247 -0.4668 -2.0797 -0.6979
13969TIP3    H263399   0.355   5.749   3.222  0.2847 -1.1529  1.2904
13970TIP3   OH263400   3.162   1.306   2.863 -0.3783  0.0382 -0.0454
13970TIP3    H163401   3.088   1.361   2.838  1.5767  2.5893 -0.5217
13970TIP3    H263402   3.170   1.318   2.957  0.4401  1.1670 -0.2381
13971TIP3   OH263403   0.874   3.069   5.192 -0.7049 -0.1613  0.0738
13971TIP3    H163404   0.824   3.017   5.255 -1.0382 -0.4389 -0.4151
13971TIP3    H263405   0.871   3.018   5.111 -0.3014  0.2051 -0.1729
13972TIP3   OH263406   6.432   1.703  14.416 -0.2788 -0.0740  0.4754
13972TIP3    H163407   6.456   1.710  14.324  0.9969  0.2540  0.8225
13972TIP3    H263408   6.474   1.623  14.446 -0.7595 -0.2239  0.7555
13973TIP3   OH263409   5.502   5.333   1.681  0.1214  0.0381 -0.3854
13973TIP3    H163410   5.525   5.250   1.723 -0.0078  0.5938  0.8067
13973TIP3    H263411   5.537   5.325   1.592  0.4707 -1.1289 -0.1555
13974TIP3   OH263412   2.769   3.858  11.510  0.3017  0.9787 -0.0221
13974TIP3    H163413   2.819   3.777  11.505 -0.9258  0.2887 -1.4835
13974TIP3    H263414   2.741   3.863  11.602 -1.1129 -1.1849 -0.2987
13975TIP3   OH263415   3.452   2.742  13.759 -0.6348 -0.1356 -0.0118
13975TIP3    H163416   3.480   2.818  13.810  0.1900  1.4074 -2.6991
13975TIP3    H263417   3.534   2.702  13.729 -1.0993 -1.3560  0.3066
13976TIP3   OH263418   4.206   0.496   2.837  0.0408  0.6860 -0.0141
13976TIP3    H163419   4.206   0.557   2.911  0.3629  0.7616 -0.0753
13976TIP3    H263420   4.168   0.416   2.873  1.1618  0.3902  0.5206
13977TIP3   OH263421   1.606   2.175   2.733  0.4223 -0.2936  0.1208
13977TIP3    H163422   1.675   2.135   2.681 -0.5162 -0.7474 -0.7946
13977TIP3    H263423   1.535   2.191   2.671 -0.6990 -0.7989  1.2381
13978TIP3   OH263424   5.620   6.383   3.322  0.4114  0.2648  0.4902
13978TIP3    H163425   5.665   6.366   3.405  0.1662 -1.4201  0.2973
13978TIP3    H263426   5.528   6.367   3.342  0.1915  1.1699  0.2192
13979TIP3   OH263427   3.446   3.415  12.492 -0.7349 -0.2796 -0.0629
13979TIP3    H163428   3.377   3.368  12.540 -0.4267 -0.9963 -0.3179
13979TIP3    H263429   3.452   3.499  12.537 -3.2721  0.6510 -1.3613
13980TIP3   OH263430   6.515   3.122  12.450 -0.1275  0.2448 -1.1815
13980TIP3    H163431   6.610   3.111  12.445 -0.0317  0.7547 -0.5008
13980TIP3    H263432   6.479   3.037  12.423  0.5263 -0.0632 -1.0795
13981TIP3   OH263433   2.017   1.928  12.415 -0.4460  0.2828  0.0787
13981TIP3    H163434   2.028   2.022  12.409  0.1403  0.1851 -0.3795
13981TIP3    H263435   2.045   1.894  12.330  0.3203 -0.3956  0.5882
13982TIP3   OH263436   2.320   5.317  14.558 -0.3944  0.4450 -0.2366
13982TIP3    H163437   2.392   5.262  14.529 -1.0226 -0.5036 -0.0393
13982TIP3    H263438   2.361   5.399  14.582  0.7999 -0.5359  1.1600
13983TIP3   OH263439   5.244   1.704   1.185  0.2054  0.3881 -0.1346
13983TIP3    H163440   5.331   1.674   1.158 -0.7962 -2.3414 -0.4713
13983TIP3    H263441   5.184   1.662   1.124 -1.5448  0.2717  1.6140
13984TIP3   OH263442   4.046   5.895   0.167  0.4114  0.0620 -0.1496
13984TIP3    H163443   4.139   5.883   0.145 -0.1944 -1.4285 -1.9778
13984TIP3    H263444   4.024   5.980   0.128  0.9689  0.3673  0.1830
13985TIP3   OH263445   2.248   5.290  12.347  0.2819  0.2353 -0.3105
13985TIP3    H163446   2.169   5.303  12.400 -0.5231 -0.9371 -1.2059
13985TIP3    H263447   2.219   5.305  12.257  1.1466  0.0310 -0.6267
13986TIP3   OH263448   4.372   3.852  14.766 -0.4957 -0.4907 -0.0464
13986TIP3    H163449   4.386   3.938  14.806 -1.7782 -0.4114  0.2419
13986TIP3    H263450   4.448   3.839  14.709 -0.2319  0.7750  0.0152
13987TIP3   OH263451   3.253   6.568  14.820  0.0831 -0.6035  0.2281
13987TIP3    H163452   3.289   6.531  14.739 -0.4126 -1.1122  0.2416
13987TIP3    H263453   3.158   6.567  14.806 -0.0445 -1.4656  1.1589
13988TIP3   OH263454   2.572   1.897   2.072  0.7248  0.2506 -0.3911
13988TIP3    H163455   2.477   1.893   2.071  0.7317  0.1187 -0.4806
13988TIP3    H263456   2.595   1.955   2.000  0.7864 -1.0938 -1.4569
13989TIP3   OH263457   5.912   0.178   3.868  0.7783  0.3172  0.0144
13989TIP3    H163458   5.861   0.142   3.796  1.4441 -0.0971 -0.2560
13989TIP3    H263459   5.987   0.220   3.826  2.5091 -2.1067  0.5703
13990TIP3   OH263460   6.300   2.579  15.437 -0.0874 -0.4121 -0.5370
13990TIP3    H163461   6.280   2.497  15.392  1.2541 -0.4837 -1.0118
13990TIP3    H263462   6.394   2.591  15.424  0.2243 -0.1482  1.7385
13991TIP3   OH263463   1.061   2.154   5.871 -0.2543  0.0835 -0.4466
13991TIP3    H163464   1.017   2.160   5.956 -1.5991 -0.6526 -1.0786
13991TIP3    H263465   1.153   2.169   5.891 -0.8144  2.0667  0.8496
13992TIP3   OH263466   2.472   5.606  12.102 -0.6482 -0.2058 -0.0552
13992TIP3    H163467   2.405   5.625  12.168 -0.9479 -0.5065 -0.2678
13992TIP3    H263468   2.422   5.584  12.023 -0.2987 -0.5000 -0.1960
13993TIP3   OH263469   2.083   6.406   2.533  0.5210  0.2411 -0.2323
13993TIP3    H163470   2.008   6.346   2.543  0.2018  0.6769 -0.0062
13993TIP3    H263471   2.124   6.379   2.451 -1.3434  1.6104 -1.6725
13994TIP3   OH263472   1.354   1.661  15.416  0.0935 -0.3815 -0.2934
13994TIP3    H163473   1.289   1.595  15.393 -0.5574  0.3481 -0.5850
13994TIP3    H263474   1.329   1.690  15.504  0.4477 -0.6037 -0.1182
13995TIP3   OH263475   5.774   0.297   4.905  0.2336  0.1265  0.3377
13995TIP3    H163476   5.731   0.247   4.835  0.7525  0.2491 -0.0743
13995TIP3    H263477   5.852   0.246   4.926 -0.1852 -0.1742  1.1898
13996TIP3   OH263478   5.124   5.080   0.335 -0.0469 -0.4535  0.4246
13996TIP3    H163479   5.164   5.166   0.348  0.1186 -0.1816 -1.7033
13996TIP3    H263480   5.030   5.097   0.336 -0.0135 -0.2549 -0.0044
13997TIP3   OH263481   3.426   5.010  13.112  0.4437 -0.4886  0.0995
13997TIP3    H163482   3.412   5.098  13.148 -2.6768 -0.5712 -0.8343
13997TIP3    H263483   3.499   5.021  13.051  0.1138  1.4606  0.0057
13998TIP3   OH263484   0.907   4.794  16.502 -0.2993 -0.3832  0.1355
13998TIP3    H163485   0.985   4.742  16.522  0.4883  0.9642  0.5986
13998TIP3    H263486   0.846   4.774  16.573 -0.0786 -0.8348  0.2007
13999TIP3   OH263487   2.538   1.619  16.805 -0.0057  0.6375 -0.1963
13999TIP3    H163488   2.537   1.570  16.723  0.0386  1.3948 -0.6537
13999TIP3    H263489   2.562   1.555  16.871  0.3025  0.1028 -0.8261
14000TIP3   OH263490   1.815   2.220   3.735 -0.0644 -0.1147  0.1561
14000TIP3    H163491   1.739   2.211   3.792  0.4248 -1.1379  0.6564
14000TIP3    H263492   1.867   2.142   3.752  1.5381  1.0060  0.4473
14001TIP3   OH263493   5.910   5.608  12.703 -0.5846  0.4830 -0.1066
14001TIP3    H163494   5.922   5.652  12.787 -1.1177 -1.6222  1.1058
14001TIP3    H263495   5.963   5.658  12.642  1.3069  0.9693  1.8628
14002TIP3   OH263496   0.208   6.074  16.677  0.1102  0.6454  0.1577
14002TIP3    H163497   0.160   6.053  16.597  1.8145  1.3790 -1.0664
14002TIP3    H263498   0.231   6.166  16.669 -0.7919  1.0876  2.0971
14003TIP3   OH263499   2.211   2.020   6.281 -0.0060 -0.9530  0.1630
14003TIP3    H163500   2.179   2.032   6.192  1.1803 -1.1320 -0.3036
14003TIP3    H263501   2.161   1.945   6.315 -1.0017 -0.4015 -0.0770
14004TIP3   OH263502   1.308   5.518   4.495 -0.9164  0.8509 -0.1007
14004TIP3    H163503   1.322   5.508   4.401 -1.4447 -2.1119  0.0823
14004TIP3    H263504   1.217   5.490   4.509 -1.1468  2.1606  1.1810
14005TIP3   OH263505   4.597   6.492  11.109 -0.3559 -0.1879 -0.4344
14005TIP3    H163506   4.591   6.423  11.043  0.3814 -0.0454 -0.6574
14005TIP3    H263507   4.524   6.551  11.089 -0.1016 -0.1082 -1.1715
14006TIP3   OH263508   6.495   2.222   3.735 -0.2496  0.7750 -0.5030
14006TIP3    H163509   6.469   2.138   3.771  1.0253  1.3883  1.9876
14006TIP3    H263510   6.422   2.249   3.681 -1.8738 -0.6270  0.9366
14007TIP3   OH263511   3.807   3.685  11.708 -0.3557 -0.1649 -0.2543
14007TIP3    H163512   3.755   3.763  11.726 -1.7770 -0.7799 -1.6110
14007TIP3    H263513   3.784   3.624  11.779 -2.5095 -0.9194 -1.5615
14008TIP3   OH263514   1.739   4.181  11.572  0.9399 -0.4587 -0.9908
14008TIP3    H163515   1.684   4.223  11.638  2.6711  0.0595  0.1457
14008TIP3    H263516   1.736   4.239  11.497  1.4616  0.5273 -0.2534
14009TIP3   OH263517   0.173   6.760   2.428  0.0409  0.4061 -0.2612
14009TIP3    H163518   0.213   6.674   2.413 -1.4938 -0.6057  1.3204
14009TIP3    H263519   0.243   6.812   2.469  1.5645  0.5534 -2.8955
14010TIP3   OH263520   0.056   5.859   4.186 -0.0601 -0.7523 -0.0593
14010TIP3    H163521   0.058   5.868   4.091  2.2979  1.0799  0.0955
14010TIP3    H263522   0.046   5.949   4.219 -0.6971 -1.3431  1.4237
14011TIP3   OH263523   2.664   6.365  16.635  0.5414 -0.1850 -0.0955
14011TIP3    H163524   2.702   6.439  16.588  1.1406 -1.3217 -1.4269
14011TIP3    H263525   2.728   6.294  16.625 -0.1178 -0.9598  0.9837
14012TIP3   OH263526   3.310   4.792  16.749 -0.1146 -0.1230 -0.1345
14012TIP3    H163527   3.245   4.781  16.679 -0.3557 -1.9793  0.3452
14012TIP3    H263528   3.296   4.716  16.806  2.4344 -0.5022  0.0126
14013TIP3   OH263529   6.677   5.325   3.551  0.3749 -0.0360 -0.3005
14013TIP3    H163530   6.597   5.335   3.499  0.5201 -1.5168 -0.8568
14013TIP3    H263531   6.675   5.397   3.614 -1.5557 -0.2455 -0.0994
14014TIP3   OH263532   1.077   1.828   4.702 -0.1129 -0.3480 -0.1347
14014TIP3    H163533   0.989   1.791   4.712 -0.2458 -0.1449 -0.5235
14014TIP3    H263534   1.082   1.852   4.609  0.5352 -0.8070 -0.2165
14015TIP3   OH263535   4.099   5.339  16.352  0.2592  0.2310  0.6330
14015TIP3    H163536   4.092   5.246  16.332  1.2802  0.2025  0.4251
14015TIP3    H263537   4.183   5.366  16.315 -1.1028  1.7803 -1.4392
14016TIP3   OH263538   1.460   1.871  13.812  0.2410 -0.4647  0.4735
14016TIP3    H163539   1.518   1.894  13.740 -0.1966 -0.8758 -0.0138
14016TIP3    H263540   1.444   1.954  13.857 -0.1783 -0.0443 -0.4245
14017TIP3   OH263541   4.926   6.138   4.823 -0.1056 -0.0528 -0.0764
14017TIP3    H163542   5.006   6.189   4.813 -1.3416  2.2750  1.4130
14017TIP3    H263543   4.952   6.061   4.873  1.4003  0.1143 -0.5765
14018TIP3   OH263544   5.426   2.300   2.087  0.6629  0.2908  0.0895
14018TIP3    H163545   5.513   2.305   2.126  1.7249 -1.2400 -2.0047
14018TIP3    H263546   5.406   2.207   2.085 -1.6870  0.7293  1.9283
14019TIP3   OH263547   3.893   0.591   6.133  0.0327 -0.0338  0.6975
14019TIP3    H163548   3.911   0.671   6.084  0.0730 -0.6206 -0.2428
14019TIP3    H263549   3.882   0.621   6.224  0.6982  0.9514  0.4581
14020TIP3   OH263550   4.705   0.252   5.983 -0.6791  0.1164 -0.2896
14020TIP3    H163551   4.616   0.284   5.964 -0.1881  1.5835 -0.1984
14020TIP3    H263552   4.755   0.331   6.002  0.7176 -0.6789 -0.5829
14021TIP3   OH263553   0.079   2.030   0.909  0.0884  0.8189 -0.4967
14021TIP3    H163554   0.090   1.944   0.950  0.1863  1.4285  0.7816
14021TIP3    H263555   0.022   2.014   0.835 -1.4741 -0.0264  0.8562
14022TIP3   OH263556   4.844   1.224  14.641 -0.2670  0.5086  0.2582
14022TIP3    H163557   4.886   1.268  14.567 -0.1432  0.4951  0.3201
14022TIP3    H263558   4.885   1.137  14.644  0.9315  1.1031  1.3874
14023TIP3   OH263559   0.190   0.241  16.994  0.3710  0.1493  0.3616
14023TIP3    H163560   0.222   0.241  16.903  1.9700 -2.3666  0.8890
14023TIP3    H263561   0.123   0.173  16.996 -0.5138  1.0289  0.7940
14024TIP3   OH263562   6.736   1.680   5.840  0.1582 -0.0588 -0.4351
14024TIP3    H163563   6.743   1.602   5.785  0.4859 -0.7810  0.6187
14024TIP3    H263564   6.665   1.660   5.901 -0.5689  0.9550 -0.9275
14025TIP3   OH263565   2.919   1.209  13.479  0.1762  0.2900  0.3785
14025TIP3    H163566   2.831   1.243  13.465  0.0712 -0.3653 -0.6061
14025TIP3    H263567   2.906   1.120  13.511  0.4678 -0.8263 -2.4458
14026TIP3   OH263568   1.459   4.064  13.921  0.4166  0.5824 -0.2816
14026TIP3    H163569   1.456   4.032  13.830  1.7995  2.9284 -1.1987
14026TIP3    H263570   1.438   4.157  13.914 -1.1371  0.4244  2.0421
14027TIP3   OH263571   4.274   4.279  16.534 -0.4947  0.3486 -0.4838
14027TIP3    H163572   4.232   4.197  16.558 -0.0251  0.2491  0.0283
14027TIP3    H263573   4.214   4.320  16.471 -0.8828 -0.2319 -0.4926
14028TIP3   OH263574   1.882   0.798   6.228  0.0249  0.0057 -0.3989
14028TIP3    H163575   1.944   0.729   6.251 -1.3985 -1.3691 -0.6827
14028TIP3    H263576   1.815   0.795   6.296 -1.2203 -0.3746 -1.6232
14029TIP3   OH263577   5.029   5.633   5.044 -1.2071 -0.0094  0.1689
14029TIP3    H163578   5.015   5.712   5.097  1.8645  1.3006 -0.8128
14029TIP3    H263579   5.094   5.583   5.093  0.0078  0.1437 -1.2436
14030TIP3   OH263580   3.998   1.742  14.931  0.1472  0.4239 -0.5730
14030TIP3    H163581   3.957   1.675  14.985  0.4528 -0.1081 -1.0011
14030TIP3    H263582   4.088   1.713  14.922 -0.0072  0.2897 -1.7189
14031TIP3   OH263583   4.180   5.504  13.362 -0.5152 -0.1500  1.0803
14031TIP3    H163584   4.135   5.426  13.393  0.3449 -0.8276  0.6340
14031TIP3    H263585   4.261   5.472  13.323 -0.7341  0.8579 -0.2257
14032TIP3   OH263586   1.602   4.530  13.716  0.0030  0.3912 -0.9295
14032TIP3    H163587   1.560   4.478  13.647  0.8802  1.5296 -2.3544
14032TIP3    H263588   1.530   4.573  13.761 -0.6172 -0.7644 -0.8139
14033TIP3   OH263589   2.286   5.590  13.672  0.4674 -0.0989 -1.1030
14033TIP3    H163590   2.368   5.613  13.629  1.4004 -0.4726  0.4465
14033TIP3    H263591   2.254   5.672  13.709  0.7908 -0.1684 -0.6530
14034TIP3   OH263592   2.859   0.100  11.370  0.2083 -0.4400 -0.6719
14034TIP3    H163593   2.881   0.007  11.361 -0.0319 -0.3647 -2.1396
14034TIP3    H263594   2.899   0.142  11.294  0.2814  0.6603 -0.0351
14035TIP3   OH263595   4.257   4.565  16.204 -0.6297  0.4081 -0.4373
14035TIP3    H163596   4.293   4.630  16.264 -1.7560  2.1488 -1.6400
14035TIP3    H263597   4.316   4.567  16.129  0.5300 -1.4680  0.3813
14036TIP3   OH263598   2.426   2.109  12.650 -0.1741  0.2923  0.7073
14036TIP3    H163599   2.489   2.105  12.722  1.5324 -0.2666 -0.7888
14036TIP3    H263600   2.375   2.027  12.658  1.1237 -0.5650  0.2917
14037TIP3   OH263601   1.556   6.494  11.027 -0.0718  0.1183  0.0266
14037TIP3    H163602   1.586   6.496  11.118  0.6782  0.6931 -0.2330
14037TIP3    H263603   1.460   6.500  11.033 -0.0390 -0.0740  0.7820
14038TIP3   OH263604   3.605   5.425   0.880  0.2864  0.0650  0.2732
14038TIP3    H163605   3.613   5.415   0.975 -1.9037 -2.2275  0.2794
14038TIP3    H263606   3.673   5.367   0.844 -0.2527 -0.6822  0.4444
14039TIP3   OH263607   3.261   2.156  11.959  0.2005  0.1160 -0.3542
14039TIP3    H163608   3.223   2.072  11.984 -0.1618 -0.0533 -1.4578
14039TIP3    H263609   3.338   2.165  12.015  1.0827 -1.6414 -1.2424
14040TIP3   OH263610   3.121   2.242  11.389 -0.0856  0.1309 -0.3928
14040TIP3    H163611   3.183   2.216  11.320 -1.3308  0.3280 -1.6067
14040TIP3    H263612   3.176   2.282  11.456  1.0999  0.4100 -1.5012
14041TIP3   OH263613   0.586   4.499  11.764  0.7618 -0.3085 -0.1189
14041TIP3    H163614   0.668   4.457  11.738  0.9155 -0.3967  0.5073
14041TIP3    H263615   0.592   4.588  11.728  0.3248 -0.8897 -1.6669
14042TIP3   OH263616   0.189   6.276   6.796 -0.1952  0.7353 -0.2436
14042TIP3    H163617   0.094   6.274   6.807 -0.1290  0.5236  0.2761
14042TIP3    H263618   0.222   6.212   6.859  0.1614 -0.6082 -1.7441
14043TIP3   OH263619   3.527   5.620   3.993  0.5484  0.0038  0.5862
14043TIP3    H163620   3.561   5.538   4.031  0.5639  0.3085  1.2309
14043TIP3    H263621   3.543   5.610   3.899  1.1779 -0.4447  0.7313
14044TIP3   OH263622   4.830   6.734  14.427 -0.1816 -0.7697  1.0379
14044TIP3    H163623   4.834   6.795  14.501 -0.6925 -0.3656  0.7310
14044TIP3    H263624   4.756   6.677  14.447 -0.2220 -0.7617  0.9136
14045TIP3   OH263625   3.100   1.108  13.938  0.0062  0.1941  0.1623
14045TIP3    H163626   3.104   1.183  13.998 -0.5814  0.4247 -0.0816
14045TIP3    H263627   3.170   1.126  13.874 -1.4365  1.5731 -1.0720
14046TIP3   OH263628   4.559   4.922   2.588 -0.0242 -0.2844 -0.1606
14046TIP3    H163629   4.634   4.866   2.567 -0.0114 -0.2357 -0.2395
14046TIP3    H263630   4.496   4.862   2.629  1.1141  0.1677  2.3786
14047TIP3   OH263631   2.529   0.089  13.927  0.5480  0.0714 -0.2520
14047TIP3    H163632   2.524   0.100  14.022 -0.6456 -0.2461 -0.2761
14047TIP3    H263633   2.532   0.178  13.892 -2.7226  0.2845 -0.0991
14048TIP3   OH263634   4.403   3.456  11.458 -0.1355 -0.2989  0.3853
14048TIP3    H163635   4.462   3.386  11.430  1.1221 -0.4333  3.2358
14048TIP3    H263636   4.377   3.431  11.547  0.9736  3.2427  1.7766
14049TIP3   OH263637   0.920   4.896   4.319 -0.1997 -0.0030 -0.3655
14049TIP3    H163638   0.982   4.955   4.278 -0.8451  1.9892  1.4478
14049TIP3    H263639   0.974   4.831   4.364  0.5818  1.4515  0.8114
14050TIP3   OH263640   3.837   5.477   3.941 -0.2612 -0.4902 -0.2488
14050TIP3    H163641   3.871   5.404   3.992 -2.3658 -0.9456  0.5513
14050TIP3    H263642   3.831   5.549   4.005  1.7441  0.3920 -1.0158
14051TIP3   OH263643   2.570   2.408  14.710 -0.2531 -0.4408  0.3927
14051TIP3    H163644   2.612   2.463  14.776  0.5588 -1.9615  1.1872
14051TIP3    H263645   2.533   2.469  14.647 -0.2958  1.0276  1.8088
14052TIP3   OH263646   4.177   6.685   5.746 -0.0149  0.0500 -0.5546
14052TIP3    H163647   4.204   6.593   5.743 -2.4671 -0.6883 -1.4670
14052TIP3    H263648   4.156   6.702   5.838 -1.7757 -1.0130 -0.7404
14053TIP3   OH263649   4.805   2.886   1.971  0.0590 -0.7167 -0.3837
14053TIP3    H163650   4.851   2.903   2.053 -2.3110 -2.4199  1.3559
14053TIP3    H263651   4.736   2.953   1.968  0.6671 -0.1298 -1.4211
14054TIP3   OH263652   1.416   1.661   1.107  0.0894 -0.6450  0.1121
14054TIP3    H163653   1.511   1.671   1.112 -0.0813  0.7039  0.9662
14054TIP3    H263654   1.398   1.646   1.014  1.1086 -0.6059 -0.0942
14055TIP3   OH263655   6.154   6.383  13.481  0.2024 -0.5755 -0.0365
14055TIP3    H163656   6.113   6.343  13.405 -0.3025 -1.1028  0.5030
14055TIP3    H263657   6.247   6.391  13.457  0.3560 -2.2557 -0.0954
14056TIP3   OH263658   3.395   2.186  12.212 -0.4424  0.0368  0.2490
14056TIP3    H163659   3.309   2.168  12.250 -0.2884 -2.0621 -0.3394
14056TIP3    H263660   3.436   2.100  12.202  1.8049  1.0072  0.6709
14057TIP3   OH263661   2.359   5.039  12.422 -0.1134 -0.3873 -0.3690
14057TIP3    H163662   2.315   5.100  12.363  1.6093 -0.3112 -1.6102
14057TIP3    H263663   2.337   4.952  12.388  1.6679 -0.3312 -1.7739
14058TIP3   OH263664   5.599   3.954  16.804  0.3370  0.2170  0.5455
14058TIP3    H163665   5.593   3.985  16.714  0.3040 -0.8856  0.1499
14058TIP3    H263666   5.687   3.976  16.832  0.5206  0.0996  0.0647
14059TIP3   OH263667   4.046   0.765   3.968 -0.2710 -0.5143  0.5312
14059TIP3    H163668   4.082   0.767   4.056  1.3007 -2.8135 -0.0118
14059TIP3    H263669   4.009   0.677   3.959  1.3995 -1.0323 -1.7821
14060TIP3   OH263670   3.359   4.307  12.896  0.0420  0.1417 -0.4918
14060TIP3    H163671   3.373   4.329  12.988 -1.2642  1.6325 -0.6273
14060TIP3    H263672   3.346   4.212  12.896 -1.1972  0.2984  1.0344
14061TIP3   OH263673   6.571   0.136  12.097  0.3272 -0.2034 -0.3185
14061TIP3    H163674   6.622   0.196  12.041 -0.3171  0.9875  0.3652
14061TIP3    H263675   6.564   0.181  12.180 -1.5767 -0.5190 -0.3028
14062TIP3   OH263676   2.396   1.719  16.494  0.0509 -0.2619  0.2129
14062TIP3    H163677   2.492   1.722  16.492  0.0523 -0.6232 -0.3050
14062TIP3    H263678   2.375   1.678  16.578  0.3656 -0.9369 -0.0330
14063TIP3   OH263679   4.248   3.034   3.960 -0.6181 -0.5565  0.3330
14063TIP3    H163680   4.190   3.107   3.982 -0.5192 -0.4541  0.2479
14063TIP3    H263681   4.240   3.024   3.865 -0.4754 -0.5264  0.3183
14064TIP3   OH263682   2.913   2.960   5.063 -0.3101 -0.2431 -0.0142
14064TIP3    H163683   2.927   2.929   4.973  1.0346 -0.9591  0.4352
14064TIP3    H263684   2.886   3.051   5.052  1.4306  0.1611 -1.0717
14065TIP3   OH263685   3.364   2.691   0.146 -0.6013 -0.2206 -0.1907
14065TIP3    H163686   3.316   2.731   0.073  0.1036  1.7290  0.3922
14065TIP3    H263687   3.341   2.598   0.141 -3.6068  0.4925 -0.5509
14066TIP3   OH263688   6.221   0.517  13.296 -0.0068 -0.1612 -0.0351
14066TIP3    H163689   6.227   0.428  13.260 -0.1202 -0.5909  0.9867
14066TIP3    H263690   6.294   0.564  13.256 -1.0320 -0.1955 -1.9945
14067TIP3   OH263691   4.250   2.215   0.994  0.7985 -0.3803 -0.1833
14067TIP3    H163692   4.218   2.125   0.996 -1.7728  0.4777 -0.8251
14067TIP3    H263693   4.253   2.242   1.086 -2.4404  0.1972 -0.1983
14068TIP3   OH263694   4.015   1.084  13.632 -0.3006 -0.3426 -0.4834
14068TIP3    H163695   4.037   1.052  13.545 -1.5751  1.2175 -1.4111
14068TIP3    H263696   3.946   1.025  13.662  0.3405 -1.0562 -0.4032
14069TIP3   OH263697   4.708   4.079   4.395 -0.0484 -0.4291 -0.4978
14069TIP3    H163698   4.696   3.984   4.404 -0.7296 -0.2993  0.0679
14069TIP3    H263699   4.621   4.115   4.413 -0.4019  0.1631 -3.1386
14070TIP3   OH263700   0.570   1.847  15.925 -0.1114 -0.2226 -0.2970
14070TIP3    H163701   0.563   1.872  15.833 -0.3232 -0.5819 -0.3792
14070TIP3    H263702   0.518   1.912  15.972 -1.2745 -0.9324 -0.5817
14071TIP3   OH263703   3.299   1.770  15.974 -0.3530 -0.1158  0.1589
14071TIP3    H163704   3.224   1.767  15.915 -0.8799 -2.9600  0.8625
14071TIP3    H263705   3.273   1.714  16.048  2.0295 -0.2784  0.9201
14072TIP3   OH263706   6.058   6.167  15.045  0.2510  0.2434 -0.4492
14072TIP3    H163707   6.102   6.204  15.121 -0.9892 -0.2856  0.5548
14072TIP3    H263708   6.060   6.072  15.060 -1.2113  0.2038 -0.3563
14073TIP3   OH263709   2.241   3.846  14.441  0.2972  0.3354 -0.8789
14073TIP3    H163710   2.251   3.763  14.394 -1.6000  1.3410 -3.1615
14073TIP3    H263711   2.190   3.824  14.518  0.1756 -0.7040 -1.2513
14074TIP3   OH263712   6.370   6.755  13.152 -0.1763 -0.1817 -0.0144
14074TIP3    H163713   6.355   6.811  13.076 -0.8564 -0.9688 -0.4827
14074TIP3    H263714   6.326   6.799  13.224  0.4847  0.5789 -0.0686
14075TIP3   OH263715   4.132   6.578  16.454 -0.4426  0.6925  0.2431
14075TIP3    H163716   4.106   6.571  16.546 -1.3738  2.1725  0.1059
14075TIP3    H263717   4.171   6.665  16.446 -0.5137  0.6390 -0.7967
14076TIP3   OH263718   0.806   1.142   4.253 -0.0615  0.0454 -0.0943
14076TIP3    H163719   0.851   1.203   4.312 -0.0075 -0.2514  0.1767
14076TIP3    H263720   0.716   1.139   4.285 -0.2191  0.4682 -0.4989
14077TIP3   OH263721   6.238   3.085   6.473  0.0231 -0.2956 -0.0429
14077TIP3    H163722   6.251   2.990   6.470 -0.2301 -0.3033 -0.9844
14077TIP3    H263723   6.150   3.098   6.439 -0.1571  0.2382  0.6125
14078TIP3   OH263724   2.965   4.046   2.166 -0.2004  0.1455 -0.3687
14078TIP3    H163725   3.005   4.081   2.087 -0.1097 -1.5612 -1.1059
14078TIP3    H263726   3.024   3.976   2.193 -0.8075 -0.0097  0.5845
14079TIP3   OH263727   4.975   2.746   4.545 -0.3477  0.2961  0.1928
14079TIP3    H163728   4.964   2.689   4.621 -0.8859 -1.8676 -1.4630
14079TIP3    H263729   4.896   2.801   4.544 -0.9395 -0.5469  0.4459
14080TIP3   OH263730   2.475   5.054   0.619 -0.1990 -0.1709 -0.6202
14080TIP3    H163731   2.488   5.140   0.579  0.4344  0.0137 -0.0277
14080TIP3    H263732   2.564   5.021   0.634 -0.4358 -1.0314 -1.0484
14081TIP3   OH263733   3.789   2.763   1.830 -0.0087  0.1023 -0.0137
14081TIP3    H163734   3.855   2.735   1.892 -0.7296 -0.7890  0.3540
14081TIP3    H263735   3.836   2.821   1.769  1.1065 -0.5573  0.2168
14082TIP3   OH263736   2.199   6.313   4.134 -0.3226 -0.2434  0.0880
14082TIP3    H163737   2.191   6.390   4.191 -0.4636 -0.2499  0.0765
14082TIP3    H263738   2.184   6.239   4.193 -1.6135 -0.2078 -0.1739
14083TIP3   OH263739   6.632   3.791  10.716  0.2918 -0.5484 -0.1793
14083TIP3    H163740   6.673   3.845  10.784 -1.0334 -0.2322  0.3874
14083TIP3    H263741   6.560   3.746  10.762 -0.8368 -0.0555 -1.4485
14084TIP3   OH263742   4.260   5.020  12.110  0.3206 -0.0020  0.0656
14084TIP3    H163743   4.310   5.098  12.085 -0.2364 -0.1908 -1.7106
14084TIP3    H263744   4.226   4.987  12.028 -0.2815 -1.5642  0.9330
14085TIP3   OH263745   6.529   0.038   5.899 -0.6498  0.2052  0.1494
14085TIP3    H163746   6.461   0.091   5.858  1.0993  1.5568 -1.0861
14085TIP3    H263747   6.598   0.101   5.921  0.9714 -1.4000 -0.2504
14086TIP3   OH263748   4.622   1.654  11.438 -0.0342  0.0871 -0.2749
14086TIP3    H163749   4.636   1.559  11.438  0.1753  0.1147  0.0490
14086TIP3    H263750   4.705   1.690  11.470 -0.3044  0.3446  0.1475
14087TIP3   OH263751   1.890   3.709   4.007 -0.2089 -0.6272 -0.3313
14087TIP3    H163752   1.857   3.784   4.055  0.0706 -0.2977 -0.6518
14087TIP3    H263753   1.841   3.634   4.042  1.7808 -0.7695  2.2438
14088TIP3   OH263754   0.440   3.490  11.289 -0.4573  0.1840  0.0197
14088TIP3    H163755   0.519   3.511  11.240 -0.2359 -2.1339 -0.6761
14088TIP3    H263756   0.460   3.407  11.333 -1.7092  0.7068  1.6404
14089TIP3   OH263757   6.120   4.273   3.724 -0.0800  0.6932 -0.6770
14089TIP3    H163758   6.099   4.210   3.656  1.7212  0.3592 -0.9352
14089TIP3    H263759   6.079   4.237   3.803 -1.4339  0.6490 -1.3771
14090TIP3   OH263760   5.433   4.573  15.365 -0.6835 -0.6349  0.0866
14090TIP3    H163761   5.440   4.491  15.316  0.8008 -0.7254  0.4329
14090TIP3    H263762   5.378   4.629  15.311 -1.3009 -1.6859 -0.3915
14091TIP3   OH263763   6.358   3.137   5.413  0.1691  0.3485 -0.0810
14091TIP3    H163764   6.365   3.043   5.394  0.4904  0.5297 -0.8922
14091TIP3    H263765   6.449   3.168   5.410 -0.1796  1.1849 -2.4402
14092TIP3   OH263766   0.095   6.296   2.196  0.3778 -0.0670  0.4170
14092TIP3    H163767   0.003   6.272   2.190  0.2093  0.8071 -0.6213
14092TIP3    H263768   0.123   6.307   2.105  1.8527 -1.5803  0.6522
14093TIP3   OH263769   1.183   3.427   4.005  0.2504 -0.6672  0.3680
14093TIP3    H163770   1.131   3.478   4.068  1.2276 -0.3127  0.8967
14093TIP3    H263771   1.182   3.480   3.925  0.2838 -0.3879  0.5521
14094TIP3   OH263772   3.171   2.234  14.072  0.5482 -0.5976  0.1183
14094TIP3    H163773   3.229   2.243  13.998  0.2559 -0.1519 -0.0581
14094TIP3    H263774   3.102   2.174  14.042 -0.4150  0.7869 -0.5001
14095TIP3   OH263775   1.511   2.085   0.548  0.1253  0.4529  0.2989
14095TIP3    H163776   1.506   1.999   0.507 -0.4436 -0.1420  1.5798
14095TIP3    H263777   1.587   2.127   0.507  0.8870 -0.9658  0.2411
14096TIP3   OH263778   0.817   6.567   3.006  0.2914  0.0128  0.0892
14096TIP3    H163779   0.910   6.568   2.984 -0.0145 -0.6881 -1.2724
14096TIP3    H263780   0.773   6.600   2.928 -0.6295  0.1214  0.6403
14097TIP3   OH263781   2.334   2.810  15.003 -0.0858 -0.1762  0.2471
14097TIP3    H163782   2.346   2.847  14.915 -1.4793  2.1472  1.0028
14097TIP3    H263783   2.421   2.815  15.043 -0.1879  2.1786  0.2548
14098TIP3   OH263784   5.239   0.019   3.781  0.1264  0.5931 -0.3126
14098TIP3    H163785   5.303  -0.047   3.808  1.0054  0.8669 -1.6711
14098TIP3    H263786   5.233   0.078   3.856 -0.3786 -0.8055  0.7660
14099TIP3   OH263787   0.287   0.348  13.285  0.1268 -0.4390  0.3774
14099TIP3    H163788   0.381   0.351  13.265 -0.4880  1.2415 -2.4621
14099TIP3    H263789   0.266   0.437  13.314 -1.0346 -0.1876 -1.2023
14100TIP3   OH263790   3.102   4.190   3.835  0.4043 -0.2160 -0.0442
14100TIP3    H163791   3.195   4.185   3.857  0.3751  0.7497  0.3029
14100TIP3    H263792   3.099   4.190   3.739  0.8140  0.5851 -0.0604
14101TIP3   OH263793   4.091   1.720   3.146  0.4972 -0.1625 -0.2981
14101TIP3    H163794   4.047   1.731   3.062  0.5945 -1.1073 -0.4768
14101TIP3    H263795   4.069   1.631   3.173 -0.2304  0.4232  1.0807
14102TIP3   OH263796   1.621   6.050   4.599 -0.1120  0.2767  0.2732
14102TIP3    H163797   1.634   6.105   4.676  0.6739  0.4988 -0.0073
14102TIP3    H263798   1.691   6.076   4.539 -0.9410  0.3775 -0.6706
14103TIP3   OH263799   4.405   6.048   5.426  0.1535 -0.4852 -0.1921
14103TIP3    H163800   4.437   6.052   5.335  0.8116  0.3740  0.0723
14103TIP3    H263801   4.478   6.011   5.475 -0.0858 -0.6355  0.0526
14104TIP3   OH263802   1.343   0.656  12.555 -0.5218 -0.1261 -0.3785
14104TIP3    H163803   1.253   0.624  12.567 -0.7789 -0.1067 -2.1088
14104TIP3    H263804   1.332   0.744  12.520  0.1793  0.3206  0.5227
14105TIP3   OH263805   6.122   6.607  13.057  0.0025  0.0656 -0.2232
14105TIP3    H163806   6.216   6.620  13.071 -0.2274  1.6682 -0.0783
14105TIP3    H263807   6.082   6.625  13.142 -0.5621  0.8295 -0.6444
14106TIP3   OH263808   6.315   6.735   0.592  0.3086 -0.4821  0.0013
14106TIP3    H163809   6.303   6.694   0.678 -0.2875 -0.5744 -0.1260
14106TIP3    H263810   6.258   6.811   0.594  0.1819 -0.5661 -0.3664
14107TIP3   OH263811   2.418   2.254  13.552 -0.4681  0.1342  0.4021
14107TIP3    H163812   2.366   2.221  13.626 -0.7423  0.5546  0.3996
14107TIP3    H263813   2.394   2.346  13.545  0.5124  0.4038  0.5862
14108TIP3   OH263814   6.491   6.051  15.565 -0.1969  0.7459  0.4981
14108TIP3    H163815   6.478   6.003  15.646  1.0644 -1.7025 -0.6817
14108TIP3    H263816   6.586   6.059  15.557 -0.1240 -1.7326 -2.1544
14109TIP3   OH263817   4.551   0.744  11.370  0.2292 -0.2239  0.1502
14109TIP3    H163818   4.492   0.734  11.295 -3.3176 -2.2463  3.0021
14109TIP3    H263819   4.624   0.685  11.352 -0.7165 -0.8969 -1.5951
14110TIP3   OH263820   4.570   5.105   2.375 -0.1031  0.8126  0.3678
14110TIP3    H163821   4.592   5.030   2.430  1.9295  0.9278 -0.2702
14110TIP3    H263822   4.527   5.166   2.434 -0.4771 -0.2333  1.2038
14111TIP3   OH263823   4.532   0.698   4.383 -0.2158 -0.2364 -0.6386
14111TIP3    H163824   4.533   0.632   4.314  2.1107 -0.6452 -0.2518
14111TIP3    H263825   4.467   0.762   4.354 -0.4081 -1.2115 -2.4396
14112TIP3   OH263826   5.054   5.319   1.906 -0.1620 -0.0171 -0.3632
14112TIP3    H163827   5.049   5.314   2.002  1.3488 -1.2881 -0.3309
14112TIP3    H263828   5.067   5.411   1.887 -1.6227  0.4076  0.5789
14113TIP3   OH263829   5.876   1.380   0.582 -0.3731 -0.1341  0.0375
14113TIP3    H163830   5.864   1.340   0.496 -2.0632  0.2160  0.1041
14113TIP3    H263831   5.796   1.430   0.597 -0.1026 -0.2170  1.8378
14114TIP3   OH263832   6.422   0.921  16.217 -0.3144 -0.3068 -0.8847
14114TIP3    H163833   6.344   0.920  16.274 -0.5287 -0.2699 -1.1754
14114TIP3    H263834   6.480   0.855  16.255  0.7267  1.6118  1.0178
14115TIP3   OH263835   2.038   3.720  12.531  0.9836  0.0011 -0.1905
14115TIP3    H163836   2.044   3.790  12.465  0.4623  0.2056 -0.0199
14115TIP3    H263837   2.014   3.642  12.480  1.2389  0.0155 -0.3343
14116TIP3   OH263838   0.085   0.939  11.112  0.0852  0.4572 -0.2680
14116TIP3    H163839   0.079   0.941  11.017  0.5104 -3.1384 -0.4154
14116TIP3    H263840   0.175   0.910  11.130 -0.6766 -1.0905  1.1705
14117TIP3   OH263841   5.724   0.095   4.726  0.1150 -0.3315  0.2448
14117TIP3    H163842   5.816   0.116   4.708  0.8468 -2.4414  1.3960
14117TIP3    H263843   5.699   0.032   4.659 -0.3692 -0.1535  0.2496
14118TIP3   OH263844   2.398   0.789  11.389  0.5747  0.6901  0.0873
14118TIP3    H163845   2.356   0.869  11.419  2.1092  1.0887  1.2444
14118TIP3    H263846   2.330   0.722  11.394 -0.6204  1.8426 -0.5562
14119TIP3   OH263847   3.994   1.449   4.172 -0.5387 -0.4821 -0.3541
14119TIP3    H163848   3.960   1.440   4.261 -0.7671  1.3214 -0.2450
14119TIP3    H263849   4.046   1.369   4.158 -0.0853 -0.5457  1.5643
14120TIP3   OH263850   0.049   6.430  12.005 -0.2814 -0.0113  0.3317
14120TIP3    H163851  -0.010   6.498  12.041  0.8005  1.3912 -0.4866
14120TIP3    H263852   0.124   6.431  12.064  0.0551  0.0009 -0.0969
14121TIP3   OH263853   6.167   4.767  16.354 -0.1277 -0.1644 -0.3278
14121TIP3    H163854   6.183   4.739  16.444 -0.1620 -1.1019 -0.6061
14121TIP3    H263855   6.121   4.693  16.314 -2.0252  1.0909 -0.5159
14122TIP3   OH263856   0.138   3.554  12.702  0.8188  0.0092 -0.2215
14122TIP3    H163857   0.071   3.557  12.633  0.1797  3.0854  0.4677
14122TIP3    H263858   0.221   3.565  12.656  0.5452  0.0614 -0.7050
14123TIP3   OH263859   2.753   5.066   1.061 -0.0678 -0.0301 -0.4334
14123TIP3    H163860   2.670   5.093   1.099  1.2483  1.3930  1.5872
14123TIP3    H263861   2.755   5.107   0.975 -0.7848  1.2414  0.1426
14124TIP3   OH263862   2.155   1.640  13.436  0.4163 -0.2385 -0.3361
14124TIP3    H163863   2.082   1.580  13.452  0.3714 -0.7098 -2.2209
14124TIP3    H263864   2.118   1.709  13.381  0.7565  0.9305  0.8703
14125TIP3   OH263865   2.754   1.098  12.812  0.3639  0.2890  0.4491
14125TIP3    H163866   2.748   1.183  12.767 -0.2923  0.1447  0.2648
14125TIP3    H263867   2.772   1.121  12.903  1.5288  0.5885  0.1639
14126TIP3   OH263868   0.594   0.513   1.120 -0.3114  0.1909  0.1878
14126TIP3    H163869   0.618   0.451   1.188 -2.2777  0.1910  0.9141
14126TIP3    H263870   0.533   0.465   1.064 -0.5674  0.9393 -0.1834
14127TIP3   OH263871   0.232   2.602  13.145  0.7703  0.1780  0.3155
14127TIP3    H163872   0.235   2.638  13.057  0.2958 -1.4573 -0.3885
14127TIP3    H263873   0.287   2.524  13.141 -0.8458 -1.0191  0.9250
14128TIP3   OH263874   0.446   1.061   1.624 -0.2149  0.1153 -0.2878
14128TIP3    H163875   0.382   1.086   1.690 -1.9683 -3.2278 -0.5661
14128TIP3    H263876   0.524   1.036   1.674 -0.2904  1.0183  0.2840
14129TIP3   OH263877   2.383   0.511   5.077  0.1652  0.3238 -0.5686
14129TIP3    H163878   2.444   0.526   5.150  0.6342  2.9238 -1.4384
14129TIP3    H263879   2.435   0.465   5.012 -0.5573 -3.0053  1.1183
14130TIP3   OH263880   3.123   6.502  14.304  0.6675 -0.4005  0.6456
14130TIP3    H163881   3.070   6.433  14.265  1.9948 -0.1167 -1.7636
14130TIP3    H263882   3.081   6.583  14.275  2.4641 -0.1731 -1.4372
14131TIP3   OH263883   2.040   4.575  16.267  0.0108 -0.7863  0.0038
14131TIP3    H163884   1.989   4.654  16.283  1.4758  0.5701 -1.7757
14131TIP3    H263885   2.130   4.600  16.288  0.1906 -2.6757  1.6194
14132TIP3   OH263886   0.229   5.698   0.102  0.3380 -0.1661 -0.0730
14132TIP3    H163887   0.262   5.612   0.127 -1.0063 -1.2564 -1.9155
14132TIP3    H263888   0.135   5.684   0.086  0.2840  1.4170 -1.2695
14133TIP3   OH263889   2.577   3.692   3.416  0.2995 -0.2313 -0.2388
14133TIP3    H163890   2.563   3.651   3.330 -0.4394 -0.2173 -0.1269
14133TIP3    H263891   2.509   3.654   3.472 -0.4454  1.2108 -0.1555
14134TIP3   OH263892   6.285   4.505   3.732 -0.0333  0.5868 -0.5677
14134TIP3    H163893   6.221   4.444   3.696 -1.3998  1.8370 -0.2969
14134TIP3    H263894   6.296   4.478   3.823 -0.2512  0.4201 -0.5915
14135TIP3   OH263895   2.255   0.923   1.355 -0.7848  0.1433  0.1245
14135TIP3    H163896   2.245   1.000   1.299 -1.6720 -0.0944 -0.0485
14135TIP3    H263897   2.293   0.857   1.297 -0.1168  0.4179  0.2471
14136TIP3   OH263898   0.510   1.007  12.462  0.1417 -0.6534  0.2658
14136TIP3    H163899   0.581   0.997  12.398 -1.7462 -1.3474 -1.7560
14136TIP3    H263900   0.471   1.092  12.441 -0.4881 -0.8833  0.4888
14137TIP3   OH263901   3.840   2.188   6.090  0.2942 -0.0604  0.1035
14137TIP3    H163902   3.780   2.154   6.024  0.0761  1.1617 -0.3394
14137TIP3    H263903   3.922   2.204   6.043  0.2069  0.5974  0.1696
14138TIP3   OH263904   5.027   6.384  11.192  0.2547 -0.1543  0.6799
14138TIP3    H163905   4.974   6.463  11.185 -1.3066 -1.2070  0.4944
14138TIP3    H263906   5.075   6.381  11.109  0.2650  0.5483  0.6532
14139TIP3   OH263907   2.591   2.061  13.106 -0.6893 -0.0876  0.5110
14139TIP3    H163908   2.583   2.148  13.145 -2.4307  1.3177 -2.8272
14139TIP3    H263909   2.562   2.001  13.175 -1.2232  2.0998  2.2378
14140TIP3   OH263910   4.704   5.758   4.604 -0.0188  0.4812 -0.1356
14140TIP3    H163911   4.610   5.763   4.621  0.0565  0.2704  0.3468
14140TIP3    H263912   4.713   5.790   4.514 -0.7726 -1.3100 -0.8881
14141TIP3   OH263913   6.482   3.882  13.310 -0.1944  0.5679  0.2261
14141TIP3    H163914   6.424   3.867  13.236  1.3249 -2.0977 -0.4997
14141TIP3    H263915   6.541   3.952  13.281 -2.6441  2.9294  0.7811
14142TIP3   OH263916   0.185   0.131   0.452 -0.0248  0.3517 -0.1588
14142TIP3    H163917   0.214   0.071   0.521  1.2598  1.6894  0.4866
14142TIP3    H263918   0.144   0.074   0.387  2.1374 -1.3450 -0.0929
14143TIP3   OH263919   0.001   6.709  16.144  1.1679 -0.0259  0.3613
14143TIP3    H163920   0.060   6.757  16.085  1.1515  0.8066  0.9977
14143TIP3    H263921  -0.061   6.665  16.086  2.0536 -0.4305 -0.2955
14144TIP3   OH263922   1.141   6.369   0.183  0.1865 -0.0630  0.2172
14144TIP3    H163923   1.126   6.343   0.274 -0.1712  1.9785  0.7449
14144TIP3    H263924   1.061   6.414   0.157  1.1430  1.3233 -0.3913
14145TIP3   OH263925   4.459   0.211   6.294  0.3252 -0.3712 -0.0857
14145TIP3    H163926   4.419   0.189   6.210  0.1034 -2.9764  0.6547
14145TIP3    H263927   4.385   0.229   6.352  0.4972  2.2180 -0.6044
14146TIP3   OH263928   1.631   6.265   3.002  0.3803 -0.2041  0.9421
14146TIP3    H163929   1.574   6.212   2.947 -0.8686 -0.5518  2.5114
14146TIP3    H263930   1.618   6.355   2.970 -1.9163 -0.1353  1.9622
14147TIP3   OH263931   6.404   1.448   6.503 -0.1250  0.1829 -0.4696
14147TIP3    H163932   6.461   1.405   6.566 -0.7543  1.2191  0.8329
14147TIP3    H263933   6.333   1.486   6.556 -1.4948 -0.2475 -1.9568
14148TIP3   OH263934   1.959   1.372   3.568  0.7637 -0.5915  0.0897
14148TIP3    H163935   1.961   1.290   3.617 -1.1785 -1.0866 -0.5920
14148TIP3    H263936   2.007   1.434   3.623  1.0719 -1.8469  1.2576
14149TIP3   OH263937   0.346   2.855  15.713 -0.2506 -0.2720  0.1455
14149TIP3    H163938   0.408   2.928  15.713  0.2444 -0.6837 -0.7284
14149TIP3    H263939   0.270   2.888  15.761  0.6490  0.2317  1.2319
14150TIP3   OH263940   3.744   5.467  14.054  0.1064  0.2763  0.0493
14150TIP3    H163941   3.697   5.395  14.012 -1.8210  1.3544  0.3081
14150TIP3    H263942   3.728   5.454  14.147  0.0324  0.8602  0.1152
14151TIP3   OH263943   1.361   4.747  11.264  0.2177 -0.4571 -0.3041
14151TIP3    H163944   1.404   4.702  11.192  1.0073 -0.9793  0.4736
14151TIP3    H263945   1.325   4.827  11.225  2.4667  0.3297 -0.8666
14152TIP3   OH263946   4.037   1.505  15.298  0.4630  0.0508 -0.0494
14152TIP3    H163947   3.958   1.454  15.279  0.4795  0.3247 -0.8640
14152TIP3    H263948   4.006   1.594  15.313  0.6732  0.3021 -1.0428
14153TIP3   OH263949   3.946   3.271  16.891  0.1268 -0.2899 -0.4513
14153TIP3    H163950   3.889   3.198  16.868 -1.2834  0.9099 -0.8623
14153TIP3    H263951   3.972   3.309  16.806  1.8013 -1.0140 -0.2788
14154TIP3   OH263952   1.198   3.465   4.373 -0.1717  0.0482  0.1350
14154TIP3    H163953   1.156   3.546   4.400  0.5878  0.2902  0.6051
14154TIP3    H263954   1.139   3.396   4.406 -0.1318  0.3770  0.9102
14155TIP3   OH263955   0.890   3.233   3.238 -0.6392 -0.1217  0.7555
14155TIP3    H163956   0.803   3.221   3.200 -0.2485  0.8603 -0.4574
14155TIP3    H263957   0.935   3.150   3.223 -0.5012  0.2388 -0.9105
14156TIP3   OH263958   2.726   3.849  16.654  0.0037 -0.0827 -0.4812
14156TIP3    H163959   2.673   3.808  16.587 -0.4869 -0.2331 -0.0027
14156TIP3    H263960   2.743   3.779  16.718 -0.5632  0.3681  0.1713
14157TIP3   OH263961   0.698   0.867   6.153 -0.3442 -0.0013  0.7267
14157TIP3    H163962   0.697   0.782   6.109  0.8872  1.3378 -2.0538
14157TIP3    H263963   0.776   0.866   6.207  1.1155  0.2902 -1.3296
14158TIP3   OH263964   4.848   0.023  16.088  0.2457 -0.2959  0.0741
14158TIP3    H163965   4.882   0.053  16.004  0.4433  3.1402  1.3119
14158TIP3    H263966   4.925  -0.005  16.137  0.3856 -0.0835 -0.0243
14159TIP3   OH263967   6.538   4.853   2.457 -0.4979 -0.1245  0.3342
14159TIP3    H163968   6.459   4.860   2.510  0.2722  1.1481  1.3352
14159TIP3    H263969   6.551   4.759   2.447 -0.8890 -0.3876  2.0783
14160TIP3   OH263970   2.204   1.295  15.358 -0.0991  0.5085 -0.4469
14160TIP3    H163971   2.253   1.349  15.297  0.5867 -1.6203 -1.8435
14160TIP3    H263972   2.266   1.228  15.386 -1.0529  0.1729  0.9264
14161TIP3   OH263973   3.150   5.440  11.514 -0.0609  0.3446 -0.2738
14161TIP3    H163974   3.094   5.389  11.573 -0.8167  0.6508 -0.7232
14161TIP3    H263975   3.208   5.375  11.474 -1.7862 -0.3304 -1.7027
14162TIP3   OH263976   1.108   6.669  13.380 -0.1894  0.2820 -0.2612
14162TIP3    H163977   1.100   6.580  13.414  0.4387  0.2961 -0.0755
14162TIP3    H263978   1.180   6.665  13.318  0.1805  0.7753  0.1317
14163TIP3   OH263979   6.480   1.755  14.131 -0.2936 -0.4452  0.1180
14163TIP3    H163980   6.397   1.802  14.119 -0.0783 -0.4967 -1.7095
14163TIP3    H263981   6.518   1.750  14.043  0.5117 -2.5258  0.5422
14164TIP3   OH263982   2.501   0.364  13.323 -0.0588 -0.1289  0.6712
14164TIP3    H163983   2.510   0.439  13.382 -1.4313  0.3368  0.3094
14164TIP3    H263984   2.407   0.348  13.319  0.0780 -0.5923 -0.8471
14165TIP3   OH263985   6.416   1.959  11.713  0.0528 -0.3138 -0.0375
14165TIP3    H163986   6.432   1.966  11.619  1.5730 -0.3147  0.2110
14165TIP3    H263987   6.439   1.869  11.735  0.8331  0.0178  0.5346
14166TIP3   OH263988   6.103   5.144  16.854 -0.0360  0.1487  0.3667
14166TIP3    H163989   6.016   5.122  16.888 -0.1452 -2.3126 -1.3715
14166TIP3    H263990   6.160   5.076  16.889  0.6566  0.1221 -0.8033
14167TIP3   OH263991   2.039   4.341   5.141  0.0410  0.1973  0.4242
14167TIP3    H163992   2.008   4.386   5.220 -1.0538  1.6062 -0.7784
14167TIP3    H263993   2.134   4.351   5.144 -0.2066  3.1114 -0.0926
14168TIP3   OH263994   2.730   2.445   6.103 -0.3094 -0.6048 -0.7687
14168TIP3    H163995   2.702   2.362   6.142 -1.9984  0.2339 -0.1456
14168TIP3    H263996   2.800   2.476   6.160 -0.1989 -1.2241 -0.5620
14169TIP3   OH263997   1.911   4.792  12.701 -0.3398  0.1174  0.1215
14169TIP3    H163998   1.833   4.744  12.672 -1.0525  1.0267  0.5159
14169TIP3    H263999   1.980   4.725  12.705 -1.3359 -0.8823  0.7065
14170TIP3   OH264000   3.061   3.598  16.798  0.1351  0.8375  0.1324
14170TIP3    H164001   3.138   3.582  16.853 -0.8210  1.2703  1.6151
14170TIP3    H264002   3.089   3.668  16.738  2.0565 -1.4922 -1.7945
14171TIP3   OH264003   2.520   4.083  13.634 -0.0561  0.1668 -0.2012
14171TIP3    H164004   2.615   4.071  13.641  0.0500  0.4030 -1.1385
14171TIP3    H264005   2.504   4.172  13.664 -0.0380 -0.0304  0.3966
14172TIP3   OH264006   5.291   0.231  16.234  0.1066  0.0184 -0.0449
14172TIP3    H164007   5.320   0.169  16.301 -1.5855 -0.2070  0.4931
14172TIP3    H264008   5.355   0.302  16.238  0.8650 -0.6913  0.7794
14173TIP3   OH264009   6.234   4.405  15.686 -0.4392  0.4970 -0.0250
14173TIP3    H164010   6.298   4.405  15.757  0.8911  1.0298 -1.2211
14173TIP3    H264011   6.249   4.322  15.641 -1.8029 -0.1987  0.7475
14174TIP3   OH264012   5.451   3.854   3.928 -0.0387 -0.0570 -0.0283
14174TIP3    H164013   5.441   3.887   4.018 -0.0348 -1.5458  0.5351
14174TIP3    H264014   5.475   3.931   3.877 -0.7483  0.9452  1.1185
14175TIP3   OH264015   3.531   6.432   0.256 -0.4548  0.0356 -0.4234
14175TIP3    H164016   3.606   6.469   0.209 -1.2656 -0.0965 -1.8768
14175TIP3    H264017   3.496   6.505   0.307  0.0928  0.3401 -0.4765
14176TIP3   OH264018   3.282   2.386   3.462 -1.1998 -0.1342 -0.2613
14176TIP3    H164019   3.199   2.362   3.503 -1.2689 -1.2130 -1.0106
14176TIP3    H264020   3.282   2.482   3.462 -3.0895 -0.1130 -1.5356
14177TIP3   OH264021   1.193   5.300   5.104 -0.4429 -0.0238 -0.3038
14177TIP3    H164022   1.233   5.326   5.187 -0.2455  1.0553 -0.7384
14177TIP3    H264023   1.266   5.279   5.047 -0.5716 -0.4559 -0.3126
14178TIP3   OH264024   3.782   2.530  11.648  0.5709  0.3838  0.1515
14178TIP3    H164025   3.849   2.596  11.633 -0.5667  1.3637 -0.7556
14178TIP3    H264026   3.767   2.492  11.561  0.6052 -0.4644  0.5192
14179TIP3   OH264027   2.114   1.426   2.447  0.4555  0.0086  0.2421
14179TIP3    H164028   2.144   1.359   2.508  1.6681  1.8564  1.7500
14179TIP3    H264029   2.187   1.439   2.387 -0.0322 -0.5000 -0.4599
14180TIP3   OH264030   3.336   1.147  16.720 -0.2922 -0.1182  0.0479
14180TIP3    H164031   3.253   1.132  16.674  0.0495 -0.8054 -0.3451
14180TIP3    H264032   3.379   1.215  16.669  0.9284 -2.1876 -1.7790
14181TIP3   OH264033   0.185   2.314  16.101  0.2003  0.2030 -0.4979
14181TIP3    H164034   0.146   2.279  16.021  1.2693 -1.1274 -0.4673
14181TIP3    H264035   0.244   2.383  16.071  2.6525 -2.0688 -1.1749
14182TIP3   OH264036   1.183   0.386   1.793 -0.0073  0.0064  0.3470
14182TIP3    H164037   1.101   0.406   1.838  0.6200 -0.2841  1.6661
14182TIP3    H264038   1.187   0.447   1.720 -1.9754 -0.7956 -0.4572
14183TIP3   OH264039   1.871   5.943   1.485 -0.0063 -0.1258 -0.3677
14183TIP3    H164040   1.919   5.912   1.561 -0.2663  1.3441  0.4136
14183TIP3    H264041   1.924   5.914   1.410  1.9798  1.2027  0.4693
14184TIP3   OH264042   0.860   1.696   0.765  0.0528  0.0072 -0.1877
14184TIP3    H164043   0.783   1.654   0.802  0.0901 -0.6501 -0.8674
14184TIP3    H264044   0.884   1.643   0.689 -0.9117  2.1895 -2.0900
14185TIP3   OH264045   1.578   6.424   4.034 -0.3021 -0.0334  0.2540
14185TIP3    H164046   1.652   6.363   4.039  0.1314  0.4251 -0.5766
14185TIP3    H264047   1.600   6.493   4.096  0.0884  0.2332 -0.1782
14186TIP3   OH264048   4.065   2.091  11.462  0.3792 -0.2545  0.9741
14186TIP3    H164049   4.031   2.175  11.492 -1.0373 -0.9010  1.1869
14186TIP3    H264050   4.131   2.114  11.396  0.2898  1.0323  1.3287
14187TIP3   OH264051   4.469   2.376  15.063 -0.0790 -0.1782  0.0438
14187TIP3    H164052   4.533   2.435  15.100 -0.0913 -0.3003  0.2602
14187TIP3    H264053   4.401   2.368  15.130 -0.2091 -0.2220 -0.0920
14188TIP3   OH264054   6.700   2.116   2.708  0.2992  0.3625  0.2234
14188TIP3    H164055   6.727   2.072   2.789 -0.4695 -0.1803  0.1987
14188TIP3    H264056   6.782   2.147   2.669  0.6308  1.0406  1.4378
14189TIP3   OH264057   4.946   1.597   6.073 -0.5947  0.7167 -0.0417
14189TIP3    H164058   4.972   1.625   6.161 -0.9791  0.2176  0.2328
14189TIP3    H264059   4.937   1.502   6.080  0.9653  0.4769 -1.0391
14190TIP3   OH264060   1.447   5.286   3.952  0.3377  0.0616 -0.0195
14190TIP3    H164061   1.533   5.307   3.988  0.3819  0.2450 -0.2311
14190TIP3    H264062   1.464   5.270   3.859  0.0786  0.4958 -0.1418
14191TIP3   OH264063   1.368   5.013   3.606  0.5913  0.1206  0.5695
14191TIP3    H164064   1.326   4.928   3.605 -0.0029  0.4052  1.1224
14191TIP3    H264065   1.372   5.039   3.514 -1.3618  0.5391  0.5859
14192TIP3   OH264066   6.416   5.981   6.293  0.0043 -0.1742  0.3710
14192TIP3    H164067   6.401   5.990   6.387 -1.3228 -1.9980  0.3599
14192TIP3    H264068   6.338   6.019   6.252  0.4133  0.2836  0.0086
14193TIP3   OH264069   5.942   2.747   0.734 -0.0519 -0.2388 -0.1038
14193TIP3    H164070   6.032   2.777   0.748 -0.7031  1.5838  0.3593
14193TIP3    H264071   5.889   2.801   0.793 -1.3224 -2.1538  0.5450
14194TIP3   OH264072   0.493   0.197   4.848 -0.1367  0.3121 -0.0424
14194TIP3    H164073   0.538   0.145   4.914 -0.0259  0.0278 -0.3428
14194TIP3    H264074   0.488   0.140   4.771  0.5008  0.9446 -0.5624
14195TIP3   OH264075   6.154   3.764  14.111 -0.3174  0.3478  0.3763
14195TIP3    H164076   6.201   3.800  14.187  0.3512  2.2109 -0.8618
14195TIP3    H264077   6.134   3.841  14.058 -2.7640 -0.7020 -0.2539
14196TIP3   OH264078   4.802   5.889   3.558 -0.2363 -0.1944 -0.1682
14196TIP3    H164079   4.778   5.828   3.628 -0.4173  0.8584  0.7033
14196TIP3    H264080   4.887   5.924   3.586 -0.7952  0.9966  0.0356
14197TIP3   OH264081   0.173   0.669  11.516 -0.2560 -0.1995 -0.2291
14197TIP3    H164082   0.246   0.730  11.520  1.3090 -1.8335 -2.2763
14197TIP3    H264083   0.095   0.724  11.520  1.0950  1.7884 -0.4797
14198TIP3   OH264084   2.190   2.987   1.870  0.0251 -0.0014  0.5281
14198TIP3    H164085   2.188   2.940   1.787  0.2246 -0.4975  0.8007
14198TIP3    H264086   2.218   2.921   1.934  2.9044  1.1103  0.5012
14199TIP3   OH264087   3.172   2.561   2.663 -0.7233  0.2251  0.0777
14199TIP3    H164088   3.146   2.635   2.609  0.3550  0.1173 -0.6016
14199TIP3    H264089   3.194   2.600   2.748  0.6795  0.7995 -0.5429
14200TIP3   OH264090   1.733   3.478  14.460 -0.1157 -0.4241 -0.1116
14200TIP3    H164091   1.797   3.421  14.501  1.2810  1.4015  0.3128
14200TIP3    H264092   1.649   3.436  14.478  0.9339 -2.8989 -0.7845
14201TIP3   OH264093   1.273   0.457   4.807 -0.3242  0.2671  0.5364
14201TIP3    H164094   1.207   0.471   4.739  0.7001  2.5198 -0.0538
14201TIP3    H264095   1.351   0.430   4.760 -0.5129 -1.3213  1.1300
14202TIP3   OH264096   5.561   5.698  16.653 -0.2576  0.3238 -0.0015
14202TIP3    H164097   5.601   5.666  16.572 -0.2814  0.9968 -0.2827
14202TIP3    H264098   5.470   5.668  16.649 -0.0478 -0.3320  0.1556
14203TIP3   OH264099   5.162   2.993  12.027 -0.4710 -0.2687  0.0143
14203TIP3    H164100   5.201   3.074  12.060  1.0894 -0.7903 -0.5225
14203TIP3    H264101   5.075   3.019  11.997 -0.6119  0.8712  1.4023
14204TIP3   OH264102   3.823   0.280   4.088 -0.4056  0.0754 -0.5440
14204TIP3    H164103   3.844   0.373   4.093  0.5106  0.0222 -2.8611
14204TIP3    H264104   3.908   0.236   4.093 -0.8703 -0.6783  1.0048
14205TIP3   OH264105   3.329   3.827   5.591 -0.2520 -0.6355  0.1145
14205TIP3    H164106   3.414   3.786   5.578 -0.3066 -0.3851 -1.0833
14205TIP3    H264107   3.340   3.881   5.669  1.1937  0.7185 -0.9887
14206TIP3   OH264108   1.100   1.714  16.870 -0.5246  0.5086 -0.5868
14206TIP3    H164109   1.020   1.661  16.866 -0.6423  0.5570  0.9816
14206TIP3    H264110   1.160   1.662  16.923 -0.6065  1.8711  0.8891
14207TIP3   OH264111   0.155   2.945  14.631  0.7457  0.4690 -0.3635
14207TIP3    H164112   0.151   3.036  14.659  2.7402  0.4720 -0.0011
14207TIP3    H264113   0.198   2.948  14.545  0.8852 -0.1288 -0.3194
14208TIP3   OH264114   4.936   6.531   1.985 -0.4609 -0.1278 -0.0542
14208TIP3    H164115   4.893   6.500   1.905 -0.0363 -0.3537 -0.1957
14208TIP3    H264116   5.015   6.478   1.991 -1.6383 -1.7252  1.7393
14209TIP3   OH264117   2.703   4.445  12.753  0.3770  0.5706 -0.6334
14209TIP3    H164118   2.678   4.434  12.662  0.2857 -0.8131 -0.4490
14209TIP3    H264119   2.669   4.368  12.798  0.2006  1.3482  0.6233
14210TIP3   OH264120   1.090   3.798  13.330  0.1486  0.0612  0.1132
14210TIP3    H164121   1.110   3.704  13.337  0.2883 -0.0297 -1.3021
14210TIP3    H264122   1.110   3.820  13.239  0.9602  1.6766  0.6632
14211TIP3   OH264123   0.393   2.480   2.547  0.2396  0.1180 -1.0476
14211TIP3    H164124   0.463   2.439   2.598 -1.6349 -0.4342  1.1601
14211TIP3    H264125   0.427   2.566   2.525  1.9656 -0.4795 -0.7753
14212TIP3   OH264126   1.600   5.043   2.898 -0.2095  0.1065 -0.3944
14212TIP3    H164127   1.608   5.136   2.879 -0.6297  0.2396  0.0793
14212TIP3    H264128   1.508   5.023   2.885 -0.3065 -0.0261  0.4596
14213TIP3   OH264129   0.365   5.906   0.011  0.3662 -0.1470  0.1571
14213TIP3    H164130   0.300   5.844   0.045  0.4534 -0.1039  0.3982
14213TIP3    H264131   0.354   5.983   0.066 -0.7404  0.5886 -1.0532
14214TIP3   OH264132   0.724   4.566   3.118  0.3621  0.3910  0.2020
14214TIP3    H164133   0.691   4.484   3.083  0.3225 -1.1061  3.5572
14214TIP3    H264134   0.653   4.629   3.103 -0.9870 -1.0028  0.6686
14215TIP3   OH264135   4.463   4.455  11.949 -0.3951 -0.0254  0.1181
14215TIP3    H164136   4.492   4.441  11.859  3.4422 -1.5323  1.5045
14215TIP3    H264137   4.446   4.549  11.955  1.9703  0.5182 -1.4299
14216TIP3   OH264138   3.086   0.701   4.986 -0.5021 -0.3500 -0.5547
14216TIP3    H164139   3.157   0.641   5.008  0.4116  0.9719  0.1061
14216TIP3    H264140   3.075   0.755   5.064 -0.8632  0.8010 -1.4003
14217TIP3   OH264141   6.627   6.779   5.343  0.2489  0.0248  0.0897
14217TIP3    H164142   6.661   6.739   5.423  0.5006 -0.1802 -0.1169
14217TIP3    H264143   6.539   6.807   5.366  0.4926  0.4037  0.5791
14218TIP3   OH264144   4.148   2.087  13.920 -0.5877  0.6800 -0.2406
14218TIP3    H164145   4.079   2.023  13.906  1.9704 -2.1256 -0.3956
14218TIP3    H264146   4.164   2.085  14.014 -1.8105  2.5406  0.0307
14219TIP3   OH264147   4.772   0.584  13.635 -0.7905  0.1399  0.2576
14219TIP3    H164148   4.688   0.540  13.647 -0.9108  0.0775 -0.7006
14219TIP3    H264149   4.790   0.573  13.541  0.8065 -0.7824  0.6636
14220TIP3   OH264150   4.915   6.622   4.430  0.5907  0.3156  0.0551
14220TIP3    H164151   4.947   6.701   4.386 -0.1008  1.2782  1.2563
14220TIP3    H264152   4.824   6.616   4.404  0.4788  0.2613  0.4564
14221TIP3   OH264153   4.681   1.402   6.255 -0.0436  0.0083  0.0885
14221TIP3    H164154   4.588   1.411   6.235  0.1491 -0.0405 -0.8758
14221TIP3    H264155   4.685   1.333   6.321 -0.5908 -0.9404 -0.8417
14222TIP3   OH264156   1.918   2.439  16.702 -0.1680  0.3831  0.0817
14222TIP3    H164157   1.891   2.470  16.788  0.8132  1.1527  0.1256
14222TIP3    H264158   1.837   2.431  16.652 -0.7721 -0.4108  1.1820
14223TIP3   OH264159   0.715   1.008   1.683  0.1248 -0.0766 -0.3318
14223TIP3    H164160   0.739   0.956   1.760 -0.1287  0.4674  0.1232
14223TIP3    H264161   0.771   1.086   1.689 -1.6716  1.1623  0.6940
14224TIP3   OH264162   1.809   0.190   3.301 -0.2796  0.2459 -0.2020
14224TIP3    H164163   1.790   0.122   3.237 -3.1268  0.8646 -0.1008
14224TIP3    H264164   1.725   0.236   3.312  0.7681  1.6813  2.1454
14225TIP3   OH264165   1.783   5.237  13.520 -0.6386 -0.1364  0.2503
14225TIP3    H164166   1.698   5.216  13.481 -1.4294  2.7805  0.3019
14225TIP3    H264167   1.795   5.171  13.588 -2.1163 -1.5482 -0.8090
14226TIP3   OH264168   3.088   5.160  15.697  0.6810 -0.1231 -0.3279
14226TIP3    H164169   3.172   5.180  15.737 -0.8088  0.1938  2.7614
14226TIP3    H264170   3.072   5.068  15.718 -0.9994  0.5675  1.5314
14227TIP3   OH264171   5.521   5.140  13.850  0.2613  0.0979  0.6662
14227TIP3    H164172   5.580   5.206  13.813  0.4074 -0.5963 -0.3552
14227TIP3    H264173   5.478   5.185  13.923  0.0284  1.4608 -0.2992
14228TIP3   OH264174   6.096   3.288   4.089 -0.4072 -0.1852 -0.1236
14228TIP3    H164175   6.154   3.212   4.095  0.3934  0.4064 -0.3533
14228TIP3    H264176   6.145   3.359   4.130 -0.5415  0.5613 -1.2395
14229TIP3   OH264177   1.497   3.082  13.633  0.3362  0.1016  0.2041
14229TIP3    H164178   1.517   3.095  13.541 -1.1516  0.5535 -0.0767
14229TIP3    H264179   1.456   2.996  13.637  2.9423 -1.1604  0.8825
14230TIP3   OH264180   0.651   3.639  11.108  0.0888 -0.4554 -0.5342
14230TIP3    H164181   0.659   3.730  11.137  1.9731 -0.3868 -1.1630
14230TIP3    H264182   0.567   3.635  11.063 -1.9871 -0.0848  3.1449
14231TIP3   OH264183   2.096   2.781  16.338 -0.4247  0.5767  0.2318
14231TIP3    H164184   2.137   2.843  16.278 -1.2798 -0.6491 -1.6681
14231TIP3    H264185   2.002   2.798  16.330 -0.5021  1.1680  2.1074
14232TIP3   OH264186   2.241   3.022  13.603 -0.4332 -0.1842  0.2978
14232TIP3    H164187   2.266   3.110  13.573  1.3432 -0.5055  0.7552
14232TIP3    H264188   2.146   3.021  13.596 -0.3112  0.8544 -2.2402
14233TIP3   OH264189   0.973   3.863  16.740  0.1179 -0.1645  0.1724
14233TIP3    H164190   0.896   3.823  16.780  1.2445 -3.0686 -0.3976
14233TIP3    H264191   0.938   3.929  16.681 -2.0676 -2.4682 -1.2167
14234TIP3   OH264192   5.957   6.108   5.710  0.0757  0.5770  0.0947
14234TIP3    H164193   5.972   6.126   5.618 -0.1545 -1.0605 -0.2804
14234TIP3    H264194   6.022   6.041   5.732 -0.9944 -0.2716  0.6819
14235TIP3   OH264195   5.744   3.178   5.733  0.1823 -0.9360 -0.3199
14235TIP3    H164196   5.652   3.154   5.747  0.0068  0.5845  1.2272
14235TIP3    H264197   5.753   3.264   5.774  1.9556 -0.4413 -1.6999
14236TIP3   OH264198   0.651   1.475  16.535 -0.0020  0.7263 -0.3287
14236TIP3    H164199   0.638   1.390  16.575  3.6688  1.3951  2.5780
14236TIP3    H264200   0.707   1.458  16.459 -0.5127  0.3879 -0.6319
14237TIP3   OH264201   2.098   4.903  15.031  0.4948 -0.2568 -0.3152
14237TIP3    H164202   2.016   4.935  15.069  0.4140 -0.3575 -0.4041
14237TIP3    H264203   2.106   4.949  14.948  1.1205  0.6242  0.2282
14238TIP3   OH264204   4.224   1.513  14.397  0.0038 -0.0382 -0.2214
14238TIP3    H164205   4.317   1.529  14.381  0.4382 -0.4592  1.7647
14238TIP3    H264206   4.180   1.544  14.318  1.8321  0.1788 -1.1664
14239TIP3   OH264207   1.184   5.473  16.520  0.2130  0.5652 -0.2344
14239TIP3    H164208   1.190   5.542  16.586  0.4171  0.4480 -0.1312
14239TIP3    H264209   1.111   5.500  16.464 -0.3830  0.3352  0.4237
14240TIP3   OH264210   5.061   5.757   2.348 -0.1632 -0.6088  0.4466
14240TIP3    H164211   5.067   5.792   2.259 -0.0521  0.7527  0.9716
14240TIP3    H264212   4.968   5.743   2.363 -0.1462 -1.2475 -0.0320
14241TIP3   OH264213   0.756   6.094  11.196  0.2177  0.1611  0.6670
14241TIP3    H164214   0.850   6.112  11.204  0.0638  0.4653  1.9855
14241TIP3    H264215   0.750   6.029  11.127  1.4182  0.0409  0.6574
14242TIP3   OH264216   0.326   6.759  15.567  0.0800 -0.1928 -0.6985
14242TIP3    H164217   0.279   6.827  15.518  0.4133  0.4708 -0.1008
14242TIP3    H264218   0.323   6.789  15.658  0.9722 -0.5467 -0.5503
14243TIP3   OH264219   5.081   6.714  13.086  0.2347 -0.5719  0.2249
14243TIP3    H164220   5.143   6.765  13.033  0.6166 -0.2022  1.0179
14243TIP3    H264221   4.997   6.724  13.041 -0.1265  2.3874  1.4117
14244TIP3   OH264222   4.489   4.898  15.166 -0.0033  0.7153 -0.5653
14244TIP3    H164223   4.537   4.873  15.245 -1.7246  0.4547  0.4178
14244TIP3    H264224   4.555   4.897  15.096  1.1086 -1.0346  0.4858
14245TIP3   OH264225   6.560   6.304   0.085  0.8893 -0.2118 -0.6010
14245TIP3    H164226   6.568   6.346  -0.000  0.7693 -0.4142 -0.7114
14245TIP3    H264227   6.467   6.281   0.092  1.2987 -2.2030 -1.3677
14246TIP3   OH264228   4.866   5.115   0.446 -0.4301  0.1712  0.2159
14246TIP3    H164229   4.803   5.044   0.434  1.7080 -1.4133 -2.2889
14246TIP3    H264230   4.826   5.190   0.402 -1.1556 -0.4510 -0.2022
14247TIP3   OH264231   3.487   2.288  15.731 -0.3338  0.9031  0.3440
14247TIP3    H164232   3.482   2.266  15.824  0.0711  0.8939  0.3642
14247TIP3    H264233   3.407   2.336  15.714 -0.8990  0.0176  0.4601
14248TIP3   OH264234   0.375   4.121   2.195 -0.0467 -0.5135  0.8518
14248TIP3    H164235   0.355   4.143   2.104  0.1935 -1.6464  0.5211
14248TIP3    H264236   0.402   4.204   2.235  1.3002 -0.2917 -0.4933
14249TIP3   OH264237   4.632   0.384  11.033 -0.0872  0.0226  0.1132
14249TIP3    H164238   4.668   0.467  11.004  0.0636  0.0599  0.4122
14249TIP3    H264239   4.538   0.402  11.046  0.1422  0.4278  1.2416
14250TIP3   OH264240   5.476   6.781   5.184  0.4040 -0.3303 -0.4796
14250TIP3    H164241   5.532   6.847   5.144  0.6453  0.6848  1.4341
14250TIP3    H264242   5.423   6.747   5.113  0.4454  1.7767 -1.5485
14251TIP3   OH264243   6.702   2.808  14.934 -0.4502 -0.3245  0.0678
14251TIP3    H164244   6.694   2.748  14.861  0.4543 -0.5536  0.1561
14251TIP3    H264245   6.656   2.887  14.906  1.3387  0.2095 -1.4172
14252TIP3   OH264246   3.710   2.758   5.279  0.2700  0.7685  0.4263
14252TIP3    H164247   3.805   2.763   5.289  0.6069 -0.7030 -1.9308
14252TIP3    H264248   3.688   2.666   5.294 -0.4274  0.5385 -1.8370
14253TIP3   OH264249   5.410   5.408  13.832  0.2081  0.1110 -0.7552
14253TIP3    H164250   5.448   5.434  13.748 -0.1918  0.9365 -0.6875
14253TIP3    H264251   5.372   5.489  13.867  1.6947  0.1319  0.9238
14254TIP3   OH264252   6.091   1.886   3.758  0.1317  0.3274  0.3490
14254TIP3    H164253   6.044   1.807   3.786  1.9081 -0.6603  0.6373
14254TIP3    H264254   6.034   1.927   3.694 -1.0378 -0.9542  0.5488
14255TIP3   OH264255   5.577   2.424  14.443  0.2602 -0.2058  0.3292
14255TIP3    H164256   5.564   2.470  14.526  1.6783 -1.6842  1.4149
14255TIP3    H264257   5.499   2.370  14.433  0.8019 -1.2445  1.5503
14256TIP3   OH264258   1.350   1.556  16.556  0.0331  0.0526  0.1571
14256TIP3    H164259   1.292   1.625  16.523 -0.2552  0.3022  1.1558
14256TIP3    H264260   1.434   1.599  16.570  0.3866 -0.2429 -1.0163
14257TIP3   OH264261   6.669   5.725  11.758  0.1835  0.3412 -0.2940
14257TIP3    H164262   6.741   5.678  11.716 -0.4471 -0.4105 -0.5549
14257TIP3    H264263   6.591   5.673  11.738 -0.8224  2.4413 -2.0910
14258TIP3   OH264264   5.659   5.278  11.793  0.1421  0.2066  0.3025
14258TIP3    H164265   5.681   5.370  11.804  0.0008  0.2085  0.5799
14258TIP3    H264266   5.573   5.279  11.751  0.9348  0.1990 -1.3829
14259TIP3   OH264267   2.966   1.629   2.311 -0.2084 -0.2628  0.1904
14259TIP3    H164268   2.968   1.549   2.260  2.2934  0.2863 -0.6518
14259TIP3    H264269   2.906   1.687   2.264  1.5078 -0.0247 -1.7611
14260TIP3   OH264270   4.556   2.826  11.250 -0.1560 -0.0516  0.6547
14260TIP3    H164271   4.527   2.908  11.211  1.2765  0.6728  1.1254
14260TIP3    H264272   4.524   2.759  11.189 -1.8276  0.7884  0.5620
14261TIP3   OH264273   3.184   4.117  14.921 -0.4163 -0.2811  0.1682
14261TIP3    H164274   3.275   4.125  14.893 -0.7499 -0.3173 -0.9316
14261TIP3    H264275   3.158   4.029  14.895 -1.1511  0.1770 -0.6670
14262TIP3   OH264276   2.412   3.423  17.211 -0.1667  0.0889 -0.1979
14262TIP3    H164277   2.399   3.408  17.117  3.3880 -1.6358 -0.4945
14262TIP3    H264278   2.500   3.462  17.216 -0.4850  0.5148  2.3846
14263TIP3   OH264279   4.569   6.286   0.415  0.7143 -0.3182 -0.6021
14263TIP3    H164280   4.518   6.337   0.352  0.3017 -0.1710 -0.1483
14263TIP3    H264281   4.505   6.251   0.477  0.9545 -1.6392 -1.0720
14264TIP3   OH264282   4.161   5.581   0.944  0.8027 -0.3306  0.2437
14264TIP3    H164283   4.145   5.650   0.880  3.6278  0.2366  0.0646
14264TIP3    H264284   4.117   5.504   0.909  0.2825  0.5860 -1.1511
14265TIP3   OH264285   1.438   4.309  11.478  0.1005  0.4224  0.3584
14265TIP3    H164286   1.432   4.300  11.383 -1.5651 -0.5965  0.5369
14265TIP3    H264287   1.454   4.403  11.492 -0.2458  0.6817 -0.9100
14266TIP3   OH264288   5.940   0.769   4.234  0.1351  0.1604  0.4284
14266TIP3    H164289   5.867   0.708   4.226  1.2218 -0.8130 -2.9190
14266TIP3    H264290   5.898   0.855   4.243 -1.4412 -0.4197 -1.0453
14267TIP3   OH264291   3.998   4.379  14.955  0.6147  0.0687 -0.2855
14267TIP3    H164292   3.963   4.468  14.953 -0.7263 -0.3868  1.6895
14267TIP3    H264293   4.088   4.389  14.984  1.1544  0.9538 -2.1820
14268TIP3   OH264294   0.712   1.587   5.822 -0.4345 -0.1258 -0.1052
14268TIP3    H164295   0.754   1.520   5.768  0.5709 -0.6881  1.3589
14268TIP3    H264296   0.724   1.557   5.912 -0.2116  1.8909  0.5657
14269TIP3   OH264297   5.492   3.182   0.682  0.1421  0.1986  0.7442
14269TIP3    H164298   5.411   3.131   0.678  0.7083 -0.5577 -2.0866
14269TIP3    H264299   5.560   3.124   0.649  1.6376  1.2722  1.8443
14270TIP3   OH264300   0.361   1.569   0.606 -0.1094 -0.7467  0.4874
14270TIP3    H164301   0.369   1.567   0.510  0.7930 -2.1854  0.5900
14270TIP3    H264302   0.285   1.625   0.622 -0.5195 -0.8315 -1.0907
14271TIP3   OH264303   5.509   4.971  12.459 -0.6043  0.5415 -0.1098
14271TIP3    H164304   5.443   4.915  12.419 -2.0105  0.4225  2.2625
14271TIP3    H264305   5.512   5.048  12.402 -2.3977  0.3049 -0.5652
14272TIP3   OH264306   5.679   5.090   6.373 -0.2105  0.2865 -0.2361
14272TIP3    H164307   5.746   5.154   6.347 -1.9642  2.5124  0.5353
14272TIP3    H264308   5.605   5.109   6.316 -0.4789 -1.6561 -0.5637
14273TIP3   OH264309   1.270   4.008   1.592 -0.3156  0.1988  0.7018
14273TIP3    H164310   1.345   4.015   1.652  0.4664  1.9507 -0.4275
14273TIP3    H264311   1.309   3.994   1.506 -1.3424 -0.0728  0.2736
14274TIP3   OH264312   4.777   6.435  15.001  0.0427  0.3208  0.1903
14274TIP3    H164313   4.777   6.341  14.981  1.1243  0.0940  1.2197
14274TIP3    H264314   4.865   6.464  14.979  0.0779  0.8442  0.9920
14275TIP3   OH264315   6.527   6.519   2.852  0.5541  0.2851 -0.1011
14275TIP3    H164316   6.529   6.452   2.784  0.9014  1.2428 -1.0481
14275TIP3    H264317   6.506   6.471   2.932 -1.0481 -0.7024 -1.0731
14276TIP3   OH264318   5.065   4.568   3.972  0.4072  0.1848  0.1411
14276TIP3    H164319   5.103   4.549   3.886  1.7605  1.4389  0.4289
14276TIP3    H264320   5.033   4.484   4.004  0.1018 -0.3323 -1.4942
14277TIP3   OH264321   0.837   0.632   1.668  0.0793  0.2153 -0.1618
14277TIP3    H164322   0.857   0.602   1.757 -1.9345  0.0222  0.2413
14277TIP3    H264323   0.757   0.683   1.678 -0.4610 -0.2708 -1.9675
14278TIP3   OH264324   5.507   1.829  17.031 -0.1313  0.9147 -0.3454
14278TIP3    H164325   5.510   1.764  16.961 -0.4886 -0.2653  0.7260
14278TIP3    H264326   5.571   1.895  17.005  0.7794 -0.2406 -1.0793
14279TIP3   OH264327   2.895   1.824  12.607 -0.9901  0.0193  0.1763
14279TIP3    H164328   2.888   1.739  12.650 -0.2840 -0.5909 -0.9064
14279TIP3    H264329   2.970   1.866  12.650 -1.1780 -0.0053  0.5314
14280TIP3   OH264330   3.509   2.274  16.695  0.1982 -0.9059  0.2155
14280TIP3    H164331   3.584   2.250  16.641  0.2872 -0.6373  0.2172
14280TIP3    H264332   3.479   2.191  16.732 -1.2025 -1.4287 -1.9713
14281TIP3   OH264333   3.023   6.430  17.196 -0.2436 -0.0946  0.4606
14281TIP3    H164334   2.952   6.369  17.175 -1.6058  1.3439  0.7404
14281TIP3    H264335   2.983   6.493  17.256  0.6877  1.9829 -1.0323
14282TIP3   OH264336   5.147   3.937  14.475  0.0197 -0.0834  0.1872
14282TIP3    H164337   5.078   3.987  14.432  0.6511  0.1309 -0.5912
14282TIP3    H264338   5.125   3.846  14.457 -0.4698 -0.0432  0.5780
14283TIP3   OH264339   3.899   3.921  11.319  0.3404  0.0814  0.1371
14283TIP3    H164340   3.900   3.965  11.234 -0.3112  0.7539  0.4725
14283TIP3    H264341   3.865   3.987  11.380  1.6753 -0.0718  1.0929
14284TIP3   OH264342   4.430   6.595  17.285 -0.1376 -0.4559 -0.1077
14284TIP3    H164343   4.485   6.611  17.208  0.0807  2.0582  0.5261
14284TIP3    H264344   4.351   6.646  17.269 -0.4351 -0.5704  0.9579
14285TIP3   OH264345   0.549   4.869   0.453 -0.3624 -1.0336  0.8551
14285TIP3    H164346   0.600   4.868   0.372 -1.0503  0.4588  0.3890
14285TIP3    H264347   0.596   4.809   0.511  0.0970 -2.1816 -0.6623
14286TIP3   OH264348   3.404   5.584   0.972  0.0670 -0.5764  0.0190
14286TIP3    H164349   3.386   5.535   1.052  1.5954 -0.8508  0.1994
14286TIP3    H264350   3.471   5.534   0.927  0.4919  0.5109 -0.5803
14287TIP3   OH264351   5.840   2.935  11.945  0.1856  0.3686  0.5746
14287TIP3    H164352   5.823   2.844  11.967  1.6738  0.1161  0.6949
14287TIP3    H264353   5.908   2.932  11.879 -0.1565  1.3806  0.1597
14288TIP3   OH264354   4.713   3.573   4.253  0.0468 -0.5008 -0.0672
14288TIP3    H164355   4.776   3.507   4.280  1.1444  0.0802 -1.1974
14288TIP3    H264356   4.737   3.595   4.163 -0.8692  0.7737 -0.0169
14289TIP3   OH264357   3.756   1.230  11.663 -0.2673 -0.4436 -0.0316
14289TIP3    H164358   3.667   1.202  11.643 -0.6754  0.0192  1.0687
14289TIP3    H264359   3.767   1.209  11.756 -0.3198  2.2602  0.6267
14290TIP3   OH264360   1.575   1.426  14.332 -0.4294  0.2062  0.0099
14290TIP3    H164361   1.546   1.371  14.406  1.2754 -0.8807 -0.0850
14290TIP3    H264362   1.644   1.481  14.369 -0.4605  0.5730 -0.4770
14291TIP3   OH264363   0.081   2.185  11.789  0.3363  0.3450 -0.1229
14291TIP3    H164364   0.039   2.261  11.749  1.3749  2.2815  2.3826
14291TIP3    H264365   0.009   2.124  11.806 -0.5872  0.9781 -1.6294
14292TIP3   OH264366   3.677   4.407   6.798 -0.7197 -0.3851 -0.3380
14292TIP3    H164367   3.600   4.428   6.851 -1.1228  1.3619 -1.5821
14292TIP3    H264368   3.688   4.483   6.741  0.2404 -1.8536 -2.1517
14293TIP3   OH264369   1.955   5.965   2.026  0.1614  0.3654  0.1326
14293TIP3    H164370   2.044   5.929   2.028  0.2649  0.4992 -1.4056
14293TIP3    H264371   1.925   5.960   2.117  0.7911 -2.1029  0.2608
14294TIP3   OH264372   6.080   0.552  11.355  0.0090  0.2883 -0.7974
14294TIP3    H164373   6.012   0.618  11.349  0.2187  0.5765 -0.1126
14294TIP3    H264374   6.037   0.478  11.400 -0.0066  0.2631 -0.8544
14295TIP3   OH264375   4.997   5.065   1.339  0.2890 -0.4471  0.6910
14295TIP3    H164376   5.005   5.125   1.413 -0.0726  0.3563  0.0858
14295TIP3    H264377   4.941   5.111   1.276 -0.3680 -1.5997  0.4045
14296TIP3   OH264378   5.581   2.658  14.260 -0.3903 -0.0587  0.4149
14296TIP3    H164379   5.672   2.688  14.266 -0.2085 -0.6805  0.8172
14296TIP3    H264380   5.575   2.585  14.322 -1.8632  1.6764  2.3934
14297TIP3   OH264381   5.609   5.225  13.101  0.1373 -0.5443 -0.3065
14297TIP3    H164382   5.544   5.258  13.163 -0.5936  0.0255 -1.3578
14297TIP3    H264383   5.572   5.142  13.070 -0.0945 -0.2167 -0.9104
14298TIP3   OH264384   1.724   0.403   0.229  0.2505  0.2818  0.1976
14298TIP3    H164385   1.687   0.330   0.179  0.7961 -0.0530  0.2777
14298TIP3    H264386   1.818   0.399   0.211  0.5978 -0.4341  1.9924
14299TIP3   OH264387   1.566   2.409  14.160 -0.5348  0.0481  0.0783
14299TIP3    H164388   1.472   2.410  14.142 -0.5036  1.9481 -0.1595
14299TIP3    H264389   1.574   2.443  14.249 -0.0258  0.8846 -0.2765
14300TIP3   OH264390   6.508   4.445   1.624 -0.0464  0.4483  0.9053
14300TIP3    H164391   6.531   4.422   1.714  2.7328 -0.8640 -0.0864
14300TIP3    H264392   6.558   4.525   1.605  1.0507 -0.4485 -0.1149
14301TIP3   OH264393   2.651   2.880  11.039  0.4576 -0.1847  0.7108
14301TIP3    H164394   2.694   2.914  11.117  0.0492  1.2113  0.3368
14301TIP3    H264395   2.629   2.790  11.062  2.0270 -0.3878  1.5194
14302TIP3   OH264396   3.136   6.566  12.670  0.0537 -0.2356 -0.3630
14302TIP3    H164397   3.126   6.612  12.754  0.5504 -1.2777  0.2715
14302TIP3    H264398   3.182   6.485  12.692 -1.3164 -1.3214 -1.3720
14303TIP3   OH264399   1.617   2.294   2.999 -0.0776  0.4272  0.2854
14303TIP3    H164400   1.710   2.312   3.013  0.1493 -0.4894 -0.0639
14303TIP3    H264401   1.611   2.261   2.910 -0.7750  0.7051  0.2212
14304TIP3   OH264402   2.089   1.892  16.227 -0.3245 -0.2287 -0.0828
14304TIP3    H164403   2.090   1.979  16.266  3.4310  0.5369 -1.7222
14304TIP3    H264404   2.038   1.902  16.146 -0.4391  0.2728  0.0504
14305TIP3   OH264405   5.798   4.391   4.309 -0.2804  1.0376 -0.1746
14305TIP3    H164406   5.890   4.365   4.310 -0.2922  0.9643 -1.0165
14305TIP3    H264407   5.750   4.310   4.293 -0.5072  1.0381  0.4868
14306TIP3   OH264408   5.642   4.209  11.419  0.5576 -0.1819 -0.4810
14306TIP3    H164409   5.673   4.152  11.349  1.6321  1.1929 -1.1553
14306TIP3    H264410   5.601   4.283  11.373 -3.0054 -1.5271  0.3662
14307TIP3   OH264411   0.700   0.817  15.183  0.1163 -0.0005  0.2596
14307TIP3    H164412   0.743   0.901  15.194  0.2119 -0.0309  0.1122
14307TIP3    H264413   0.766   0.752  15.207  0.2313 -0.0567 -0.1943
14308TIP3   OH264414   4.677   1.236   1.485  0.6052  0.9913 -0.2888
14308TIP3    H164415   4.590   1.257   1.451  0.3419 -0.0726 -0.2712
14308TIP3    H264416   4.723   1.320   1.482  0.0739  1.2670 -1.7329
14309TIP3   OH264417   4.668   2.189  14.473 -0.1179 -0.2960  0.2101
14309TIP3    H164418   4.747   2.241  14.459 -0.4151  0.4271  1.1848
14309TIP3    H264419   4.642   2.160  14.385  0.6837  0.2625 -0.2115
14310TIP3   OH264420   3.608   1.138  15.806 -0.5536  0.3284 -0.5465
14310TIP3    H164421   3.699   1.118  15.786 -0.2004  0.8248  0.5304
14310TIP3    H264422   3.597   1.229  15.779 -0.3349  0.7062  0.6308
14311TIP3   OH264423   1.655   5.241   3.412  0.4549  0.5455  0.1240
14311TIP3    H164424   1.647   5.269   3.321  0.8339  0.7296  0.1456
14311TIP3    H264425   1.701   5.157   3.407 -1.4557 -0.5179 -0.0034
14312TIP3   OH264426   1.879   1.234  16.983  0.0668  0.6231  0.3882
14312TIP3    H164427   1.801   1.234  16.928  1.1260 -0.5523 -1.1524
14312TIP3    H264428   1.946   1.276  16.930  0.3109  2.3117  1.9959
14313TIP3   OH264429   2.451   4.293   4.038 -0.0077  0.3316  0.2674
14313TIP3    H164430   2.469   4.377   4.079 -1.8765  1.6877 -1.6291
14313TIP3    H264431   2.486   4.301   3.949  2.2528 -1.8934  0.8713
14314TIP3   OH264432   6.072   4.261   1.180 -0.2852 -0.0433  0.2876
14314TIP3    H164433   6.044   4.215   1.101  0.0571  1.3414 -0.6490
14314TIP3    H264434   5.998   4.254   1.240 -0.5982 -0.9666 -0.1997
14315TIP3   OH264435   4.208   3.410   1.946  0.4038  0.6589  0.5699
14315TIP3    H164436   4.121   3.441   1.970 -0.5367 -1.3120 -0.1712
14315TIP3    H264437   4.264   3.439   2.018 -1.4882 -1.0120  2.8277
14316TIP3   OH264438   2.899   4.014   4.368 -0.0630  0.2477  0.0991
14316TIP3    H164439   2.908   4.087   4.307  1.6800 -0.8070 -0.9644
14316TIP3    H264440   2.886   4.055   4.453  1.3844  1.8352 -0.4085
14317TIP3   OH264441   1.285   2.603  17.191  0.2207 -0.0239 -0.3500
14317TIP3    H164442   1.248   2.644  17.268  0.5382  1.4646 -0.9736
14317TIP3    H264443   1.311   2.676  17.134 -0.8623 -1.0780 -2.2666
14318TIP3   OH264444   5.954   5.754  15.539 -0.2219  0.2039 -0.4803
14318TIP3    H164445   5.998   5.828  15.581  0.4102  0.1864 -1.1191
14318TIP3    H264446   5.942   5.690  15.610  0.9437  0.1272 -0.3469
14319TIP3   OH264447   3.616   3.232  11.408  0.6344  0.5573  0.3544
14319TIP3    H164448   3.623   3.269  11.496  1.0617 -0.0049  0.5636
14319TIP3    H264449   3.633   3.305  11.349 -1.4835  1.3735  0.6959
14320TIP3   OH264450   0.199   0.092  13.305  1.1305  0.2566  0.6851
14320TIP3    H164451   0.214   0.177  13.347  0.1626  0.4715  0.6115
14320TIP3    H264452   0.273   0.082  13.245  2.6893 -0.1937  2.6273
14321TIP3   OH264453   6.537   1.738   5.102  0.0615 -0.2268 -0.2742
14321TIP3    H164454   6.544   1.817   5.048 -0.8050 -1.5028 -2.3196
14321TIP3    H264455   6.444   1.715   5.099  0.5864 -2.3527 -1.2379
14322TIP3   OH264456   0.136   3.416   0.176  0.4475  0.5144 -0.4111
14322TIP3    H164457   0.049   3.383   0.155  0.7008 -0.3030 -0.1894
14322TIP3    H264458   0.193   3.378   0.110  0.9546 -0.6198  0.6451
14323TIP3   OH264459   2.945   3.519   0.094 -0.0990 -0.0405 -0.3558
14323TIP3    H164460   2.956   3.555   0.182 -1.7144 -1.4805  0.4525
14323TIP3    H264461   3.034   3.512   0.060  0.4233  2.3190  0.4135
14324TIP3   OH264462   0.854   2.862   6.273  0.3565 -0.1821  0.0869
14324TIP3    H164463   0.770   2.831   6.239 -0.0928  0.4070  0.6411
14324TIP3    H264464   0.831   2.920   6.345  1.2914 -1.2505  1.2694
14325TIP3   OH264465   6.774   1.500  15.619  0.5642 -0.3980  0.0958
14325TIP3    H164466   6.835   1.554  15.569  0.0437  0.5451  0.4773
14325TIP3    H264467   6.707   1.474  15.555  1.1272 -1.1024 -0.2289
14326TIP3   OH264468   2.994   0.441  12.469  0.7852  0.2983  0.3015
14326TIP3    H164469   3.044   0.363  12.491 -0.3156  0.0524  2.0241
14326TIP3    H264470   2.985   0.488  12.552 -1.2151  0.6966 -0.1070
14327TIP3   OH264471   5.448   0.749  13.187  0.3861 -0.3250  0.2736
14327TIP3    H164472   5.448   0.667  13.238  3.1054 -1.1432 -0.9332
14327TIP3    H264473   5.434   0.817  13.253  3.1378 -1.4118  2.0941
14328TIP3   OH264474   1.787   2.393   5.016  0.0395 -0.2102 -0.5974
14328TIP3    H164475   1.877   2.361   5.008 -0.3507 -1.7367  0.7811
14328TIP3    H264476   1.737   2.342   4.952 -0.4625 -2.0122  1.1470
14329TIP3   OH264477   6.189   5.764   0.198  0.3494  0.2437  0.5833
14329TIP3    H164478   6.252   5.805   0.258  1.6201 -0.9146  0.0749
14329TIP3    H264479   6.164   5.683   0.241 -2.0127  1.4193  1.4923
14330TIP3   OH264480   6.136   3.888  17.008 -0.0730 -0.1531  0.0074
14330TIP3    H164481   6.174   3.881  16.921 -0.8219  1.1206 -0.4275
14330TIP3    H264482   6.110   3.979  17.016 -0.8344 -0.4648  1.2216
14331TIP3   OH264483   6.714   1.402  15.136 -1.1481  0.1420  0.2373
14331TIP3    H164484   6.760   1.472  15.182 -0.2815 -0.9102  0.9935
14331TIP3    H264485   6.775   1.328  15.136 -1.4556 -0.1488 -1.8775
14332TIP3   OH264486   4.005   3.956  11.794 -0.3290 -0.0583 -0.0413
14332TIP3    H164487   4.095   3.962  11.827 -0.0737 -2.6009 -0.1485
14332TIP3    H264488   3.975   3.870  11.822 -1.7690 -0.3547 -2.3456
14333TIP3   OH264489   4.995   2.325  14.393  0.3413 -0.5125 -0.0703
14333TIP3    H164490   5.022   2.333  14.485  1.0653  1.0475 -0.4062
14333TIP3    H264491   5.055   2.382  14.345 -0.0706 -1.2735 -1.5180
14334TIP3   OH264492   6.084   0.232  14.562 -0.3631 -0.2914 -0.0088
14334TIP3    H164493   6.031   0.163  14.601  0.3857 -0.8940 -0.0532
14334TIP3    H264494   6.047   0.313  14.596 -0.1438 -0.7816  1.4082
14335TIP3   OH264495   0.382   4.399   4.576  0.0696  0.7254 -0.0455
14335TIP3    H164496   0.415   4.488   4.581  0.2738  0.6669 -0.3608
14335TIP3    H264497   0.432   4.358   4.506 -0.2816  0.4730 -0.1534
14336TIP3   OH264498   3.798   3.619   2.912  0.2722  0.3445 -0.4345
14336TIP3    H164499   3.805   3.551   2.845  0.3923 -1.0504  0.9501
14336TIP3    H264500   3.814   3.701   2.866  0.4166 -0.6033 -2.0879
14337TIP3   OH264501   6.564   0.236  16.296  0.3590 -0.0825 -0.0785
14337TIP3    H164502   6.517   0.260  16.376  0.2287  1.1930 -0.5132
14337TIP3    H264503   6.538   0.146  16.278 -2.7727  0.9367 -0.8857
14338TIP3   OH264504   3.639   6.218  17.181  0.1127  0.0046  0.1343
14338TIP3    H164505   3.696   6.165  17.237 -0.3038 -0.4133  0.1708
14338TIP3    H264506   3.557   6.223  17.229 -0.7197 -1.5666 -1.0760
14339TIP3   OH264507   2.603   5.499   0.750 -0.5571  0.0642  0.2128
14339TIP3    H164508   2.587   5.585   0.789 -1.8856 -0.8522  1.7898
14339TIP3    H264509   2.672   5.461   0.804 -1.6911 -0.8125  1.0613
14340TIP3   OH264510   5.885   2.655  13.971 -0.3768 -0.1515 -0.0183
14340TIP3    H164511   5.936   2.700  13.905 -0.3754  1.1258  0.8421
14340TIP3    H264512   5.797   2.691  13.963 -0.8112 -1.3090 -0.5387
14341TIP3   OH264513   0.314   4.421   2.654 -0.1386 -0.3614 -0.3764
14341TIP3    H164514   0.334   4.404   2.746  0.7044  0.1528 -0.4592
14341TIP3    H264515   0.234   4.473   2.656  0.2125  0.1697  0.1011
14342TIP3   OH264516   2.835   1.313  17.168 -0.0341 -0.5994 -0.0267
14342TIP3    H164517   2.925   1.346  17.168  0.5839 -2.2640 -0.2405
14342TIP3    H264518   2.782   1.391  17.152  1.2817  0.6134  1.3830
14343TIP3   OH264519   3.090   4.277  12.333  0.1713 -0.1730 -0.5327
14343TIP3    H164520   3.142   4.313  12.405 -0.7122 -0.3360  0.1903
14343TIP3    H264521   3.152   4.269  12.261  0.9913  0.2922  0.1132
14344TIP3   OH264522   6.247   1.759   3.040  0.6728  0.5918  0.0285
14344TIP3    H164523   6.166   1.800   3.070  0.7581  0.3410  0.6087
14344TIP3    H264524   6.218   1.684   2.989  0.5424  0.4647  0.2898
14345TIP3   OH264525   4.968   0.190  11.853  0.6564 -0.4999  0.3745
14345TIP3    H164526   5.024   0.159  11.782  0.8028 -2.2800  1.2513
14345TIP3    H264527   4.918   0.114  11.880  1.9938 -0.3687  3.4596
14346TIP3   OH264528   0.373   3.069   0.244  0.0421 -0.2393  0.0996
14346TIP3    H164529   0.408   3.033   0.162 -1.3877  1.0600 -1.1091
14346TIP3    H264530   0.325   2.996   0.283  0.2294 -0.7013 -0.5148
14347TIP3   OH264531   3.908   1.955  12.041  0.2927  0.1679  0.4712
14347TIP3    H164532   3.992   2.001  12.045 -0.0269  0.8108 -0.1825
14347TIP3    H264533   3.873   1.976  11.954 -0.4473 -0.2624  0.6635
14348TIP3   OH264534   5.411   3.787   5.136 -0.3187 -0.0514  0.0828
14348TIP3    H164535   5.343   3.727   5.167 -0.0354 -0.5585 -0.2741
14348TIP3    H264536   5.383   3.873   5.167 -1.1536 -0.2523 -0.0953
14349TIP3   OH264537   0.791   4.250  15.527 -0.1310  0.2158  0.7495
14349TIP3    H164538   0.843   4.199  15.589  1.2979 -0.8801 -1.2979
14349TIP3    H264539   0.703   4.251  15.565  0.8133  0.0177  3.0317
14350TIP3   OH264540   1.450   5.558   3.483  0.0482 -0.3442 -0.1541
14350TIP3    H164541   1.424   5.493   3.418 -0.8112  1.3015 -1.5159
14350TIP3    H264542   1.371   5.611   3.496 -0.2267 -1.5037  3.3369
14351TIP3   OH264543   3.368   1.425  15.392 -0.0720 -0.6591  0.1429
14351TIP3    H164544   3.455   1.465  15.394  0.1270 -1.0720 -0.1118
14351TIP3    H264545   3.308   1.496  15.416  0.3755 -0.4919  0.7760
14352TIP3   OH264546   6.535   3.149  16.115  0.1305 -0.1734  0.2421
14352TIP3    H164547   6.511   3.205  16.040 -0.5946 -1.5291 -0.5666
14352TIP3    H264548   6.552   3.063  16.076 -1.5693 -1.2475  1.7913
14353TIP3   OH264549   4.550   3.247  15.073 -0.1323 -0.2363  0.0747
14353TIP3    H164550   4.531   3.339  15.089  0.1824  0.0218 -1.0195
14353TIP3    H264551   4.559   3.209  15.160 -2.1207  0.3774  0.5772
14354TIP3   OH264552   6.618   6.677   0.392 -0.6630  0.6695  0.0197
14354TIP3    H164553   6.627   6.763   0.350 -1.1710  0.3567 -0.7356
14354TIP3    H264554   6.533   6.645   0.364 -0.0680 -0.4992 -0.4829
14355TIP3   OH264555   2.993   2.462  13.365  0.2870  0.2338 -0.0211
14355TIP3    H164556   2.966   2.539  13.315  1.8410  0.5871 -0.3393
14355TIP3    H264557   2.960   2.387  13.315 -4.0034  0.7066  1.9023
14356TIP3   OH264558   1.740   1.208  15.051  0.2806 -0.0838 -0.2710
14356TIP3    H164559   1.827   1.169  15.059 -0.0508 -0.7474  0.0581
14356TIP3    H264560   1.757   1.303  15.057  1.4568  0.0592 -4.2905
14357TIP3   OH264561   6.155   0.925   1.120  0.0199  0.6244  0.6885
14357TIP3    H164562   6.140   0.833   1.142 -1.7245  1.1923  1.8807
14357TIP3    H264563   6.237   0.923   1.069 -1.0651 -1.8219 -1.0872
14358TIP3   OH264564   4.499   4.230   2.448 -0.2804  0.0960 -0.6446
14358TIP3    H164565   4.568   4.164   2.453  0.4579  0.8336 -1.0459
14358TIP3    H264566   4.514   4.287   2.523 -1.4858 -0.7427  0.2333
14359TIP3   OH264567   4.219   4.908  13.257 -1.1288 -0.2642  0.3594
14359TIP3    H164568   4.189   4.824  13.222 -2.4215  0.8080 -1.1292
14359TIP3    H264569   4.277   4.943  13.190 -0.7071  0.1163  0.9175
14360TIP3   OH264570   1.792   4.863  14.789  0.2605  0.0549 -0.3452
14360TIP3    H164571   1.723   4.807  14.826  0.4745  1.5444  2.4075
14360TIP3    H264572   1.841   4.804  14.732 -0.6632 -2.1387  1.0174
14361TIP3   OH264573   5.614   6.408  13.737  0.2307 -0.1715  0.3212
14361TIP3    H164574   5.589   6.498  13.755 -0.8255 -0.3746 -0.0607
14361TIP3    H264575   5.670   6.383  13.810 -1.5144 -0.0134  1.7465
14362TIP3   OH264576   2.339   4.136  14.249 -0.2822  0.0639  0.1224
14362TIP3    H164577   2.312   4.223  14.275 -0.6497 -0.4170  1.3684
14362TIP3    H264578   2.257   4.088  14.236 -0.0773 -0.3126  0.2046
14363TIP3   OH264579   0.321   4.921   1.230 -0.0623 -0.2002 -0.2821
14363TIP3    H164580   0.405   4.965   1.244 -0.4708  0.2210  0.9687
14363TIP3    H264581   0.256   4.991   1.237 -0.7472 -1.0060  2.0182
14364TIP3   OH264582   0.734   5.952   0.043  0.3842 -1.0586 -0.2549
14364TIP3    H164583   0.815   5.920   0.004  1.7178  0.3061  1.3568
14364TIP3    H264584   0.745   5.939   0.137  0.4116  2.7817  0.3628
14365TIP3   OH264585   4.790   3.517  15.624  0.1706  0.2777  0.3182
14365TIP3    H164586   4.870   3.472  15.596 -0.4772 -0.4672 -0.3578
14365TIP3    H264587   4.807   3.542  15.715  0.4429 -1.6191  0.8191
14366TIP3   OH264588   1.206   6.135   1.505 -0.4895  0.2268 -0.3915
14366TIP3    H164589   1.163   6.167   1.583 -0.4940  2.1283 -1.1502
14366TIP3    H264590   1.277   6.197   1.489  0.9574 -1.4304 -0.5988
14367TIP3   OH264591   4.640   4.174  10.842 -0.8693  0.1110  0.1058
14367TIP3    H164592   4.581   4.116  10.792 -0.0459 -0.3713 -0.3138
14367TIP3    H264593   4.657   4.247  10.784  1.6910 -1.4106 -1.1435
14368TIP3   OH264594   2.068   0.626  17.208 -0.0680 -0.3847 -0.0302
14368TIP3    H164595   2.109   0.566  17.271 -1.1610  0.0380  1.0996
14368TIP3    H264596   2.134   0.694  17.192  0.4074 -0.7805  0.2438
14369TIP3   OH264597   2.394   4.127   2.722  0.1374  0.2025  0.7075
14369TIP3    H164598   2.394   4.082   2.637  0.9704 -0.8335  1.2358
14369TIP3    H264599   2.364   4.060   2.784 -1.3004  1.2012  1.1124
14370TIP3   OH264600   1.360   2.625   4.395  0.2767  0.1678  0.3931
14370TIP3    H164601   1.421   2.577   4.451  1.4455  0.5999 -0.5152
14370TIP3    H264602   1.298   2.558   4.365 -0.1472 -0.1430  1.8767
14371TIP3   OH264603   3.513   3.775   5.353  0.1320  0.3062 -0.2508
14371TIP3    H164604   3.562   3.716   5.296  0.1314  0.8759 -0.8477
14371TIP3    H264605   3.540   3.751   5.442 -1.3925 -1.9366 -0.3842
14372TIP3   OH264606   6.495   5.352   0.788  0.1953 -0.0799 -0.4258
14372TIP3    H164607   6.584   5.376   0.760 -0.2994  0.9755 -1.1316
14372TIP3    H264608   6.461   5.432   0.829 -0.5026 -0.4192 -0.3540
14373TIP3   OH264609   1.027   1.842   4.429 -0.4504 -0.4123 -0.4870
14373TIP3    H164610   0.981   1.895   4.364 -1.2434 -2.0881 -1.3339
14373TIP3    H264611   1.102   1.806   4.383 -0.0596 -0.2346  0.0070
14374TIP3   OH264612   4.045   0.136   5.207 -0.4642  0.1651  0.0541
14374TIP3    H164613   4.003   0.080   5.141 -1.8687 -1.2110  2.0380
14374TIP3    H264614   3.972   0.182   5.249  0.4458  1.2816  0.4373
14375TIP3   OH264615   1.667   2.254   1.659  0.2869  0.1029  0.0159
14375TIP3    H164616   1.600   2.285   1.720  0.2972 -0.6658  0.4353
14375TIP3    H264617   1.618   2.226   1.581 -0.0700 -1.9453  0.9263
14376TIP3   OH264618   1.776   2.343   4.034 -0.3535 -0.6056  0.5221
14376TIP3    H164619   1.796   2.409   3.968 -0.9489 -0.7455  0.1971
14376TIP3    H264620   1.713   2.284   3.991 -1.2587 -0.3058  1.4378
14377TIP3   OH264621   2.515   5.062   2.128  0.0288  0.5077  0.4069
14377TIP3    H164622   2.454   5.064   2.054 -0.2993  0.4802  0.6778
14377TIP3    H264623   2.581   5.128   2.106 -0.1051  0.5482  0.1208
14378TIP3   OH264624   0.715   3.027  12.025 -0.2155  0.8466 -0.2108
14378TIP3    H164625   0.664   3.097  12.065 -1.4315  0.3766 -0.9221
14378TIP3    H264626   0.738   3.061  11.939 -1.8950 -0.1333 -1.0465
14379TIP3   OH264627   3.425   0.840   1.837  0.4528 -0.1621  0.6894
14379TIP3    H164628   3.485   0.914   1.826  0.5959 -0.3924 -0.1446
14379TIP3    H264629   3.412   0.833   1.931  3.0158 -1.0937  1.0280
14380TIP3   OH264630   0.153   4.405   1.902 -0.2310  0.5432 -0.2386
14380TIP3    H164631   0.159   4.499   1.885  0.4249  0.8793  1.7708
14380TIP3    H264632   0.092   4.398   1.975  0.3129 -0.5416  0.1167
14381TIP3   OH264633   1.573   3.058  17.106  0.3353  0.3096 -0.2177
14381TIP3    H164634   1.606   3.141  17.072 -2.6798  1.5461 -0.3574
14381TIP3    H264635   1.599   3.058  17.198 -0.4211  1.8696  0.0103
14382TIP3   OH264636   0.577   2.043  12.710 -0.2153  0.5117 -0.3462
14382TIP3    H164637   0.618   2.029  12.625 -1.5813 -0.4546 -0.8806
14382TIP3    H264638   0.563   1.955  12.745  0.4012  0.9053  0.9102
14383TIP3   OH264639   2.730   1.622   1.630 -0.0011  0.4432 -0.5121
14383TIP3    H164640   2.772   1.681   1.693  0.9608  0.1873 -0.8966
14383TIP3    H264641   2.795   1.611   1.561 -0.0761 -1.2238 -0.3520
14384TIP3   OH264642   2.552   2.829  10.493 -0.1766 -1.1677 -0.3619
14384TIP3    H164643   2.559   2.798  10.403  0.0632 -2.4279  0.0766
14384TIP3    H264644   2.631   2.882  10.506  0.1351 -1.5426 -0.6907
14385TIP3   OH264645   1.399   0.446   1.980 -0.7035 -0.3563 -0.2304
14385TIP3    H164646   1.338   0.448   1.906  0.3191 -0.8415 -1.1106
14385TIP3    H264647   1.388   0.531   2.023 -1.7112 -0.2913 -0.6133
14386TIP3   OH264648   1.120   6.278  15.368 -0.1654 -0.5813  0.0860
14386TIP3    H164649   1.184   6.257  15.436  2.0636  2.0839 -1.0579
14386TIP3    H264650   1.048   6.321  15.415 -0.5760 -2.4469  1.2225
14387TIP3   OH264651   5.862   4.779  12.816 -0.7112 -0.3169  0.5835
14387TIP3    H164652   5.876   4.696  12.772 -0.8767 -0.7533  1.3555
14387TIP3    H264653   5.776   4.808  12.786 -1.9864 -1.8800  2.6117
14388TIP3   OH264654   0.570   4.842  15.978  0.2018 -0.0220  0.5675
14388TIP3    H164655   0.549   4.857  16.070  0.0391  0.1123  0.5102
14388TIP3    H264656   0.510   4.900  15.930  1.1001  0.7924  0.4127
14389TIP3   OH264657   6.116   4.345  10.787 -0.0696  0.1564  0.4904
14389TIP3    H164658   6.033   4.316  10.825 -0.8835  0.9693 -0.6564
14389TIP3    H264659   6.125   4.436  10.817 -0.1200  0.4131 -0.2865
14390TIP3   OH264660   5.760   0.580   1.927 -0.0601 -0.1995 -0.4726
14390TIP3    H164661   5.804   0.654   1.968  1.2727 -1.5607  0.6078
14390TIP3    H264662   5.793   0.503   1.974 -2.7321 -1.3603 -0.3791
14391TIP3   OH264663   3.260   6.773  16.564  0.0593  0.0371 -0.9675
14391TIP3    H164664   3.232   6.732  16.646  0.0664  0.9457 -0.5054
14391TIP3    H264665   3.350   6.743  16.553  1.0751  2.2611  0.9082
14392TIP3   OH264666   2.991   1.836  13.138  0.4412  0.1606 -0.1597
14392TIP3    H164667   2.995   1.762  13.078 -1.0290 -1.5069  1.7180
14392TIP3    H264668   2.904   1.873  13.124  0.6062  0.6085 -0.0097
14393TIP3   OH264669   1.926   5.400  10.562 -0.4108  0.3306  0.0022
14393TIP3    H164670   2.021   5.395  10.566 -0.3343  1.7974  0.7000
14393TIP3    H264671   1.906   5.490  10.588 -1.8493  0.8500 -2.7026
14394TIP3   OH264672   2.371   1.334  15.655 -0.3656 -0.1109  0.7401
14394TIP3    H164673   2.331   1.248  15.660 -2.0424  0.4328 -2.0819
14394TIP3    H264674   2.321   1.388  15.717 -2.3653 -0.0753 -0.8598
14395TIP3   OH264675   5.417   5.339  12.126 -0.0384  0.2228  0.4654
14395TIP3    H164676   5.445   5.427  12.098  1.9577 -0.8197 -0.9482
14395TIP3    H264677   5.399   5.292  12.045 -1.4558 -0.5904  1.2276
14396TIP3   OH264678   6.345   2.183  14.027 -0.2366 -0.3128 -0.1450
14396TIP3    H164679   6.410   2.203  14.095 -0.7264 -0.2373  0.2994
14396TIP3    H264680   6.390   2.205  13.945 -0.5561  2.1502  0.2931
14397TIP3   OH264681   1.200   1.662  15.670 -0.5215 -0.1738 -0.2306
14397TIP3    H164682   1.175   1.726  15.736  1.9511  2.3266 -1.5889
14397TIP3    H264683   1.269   1.610  15.712 -0.0564  0.3800 -0.3037
14398TIP3   OH264684   5.769   1.176  13.154 -0.3479 -0.5300 -0.5894
14398TIP3    H164685   5.703   1.178  13.223 -1.5709  1.1447 -1.7740
14398TIP3    H264686   5.813   1.261  13.161 -0.1359 -0.5587 -1.5357
14399TIP3   OH264687   3.962   0.305  16.148 -0.2563  0.2509  0.4454
14399TIP3    H164688   3.878   0.260  16.152 -0.0589 -0.2710 -0.8674
14399TIP3    H264689   4.027   0.235  16.145  0.1369  0.6291 -0.0735
14400TIP3   OH264690   5.045   4.399  13.168  0.3317 -0.3346  0.3113
14400TIP3    H164691   4.988   4.381  13.093  1.4529 -1.4241 -0.3034
14400TIP3    H264692   5.081   4.486  13.150  0.7057 -0.6487 -0.5067
14401TIP3   OH264693   3.684   3.012  11.236  0.2207 -0.5860 -0.3350
14401TIP3    H164694   3.613   2.977  11.182  0.2632  0.7329 -1.2861
14401TIP3    H264695   3.648   3.092  11.274  1.3537  0.3668 -1.2287
14402TIP3   OH264696   5.254   0.762  16.424 -0.3758  0.8176  0.4119
14402TIP3    H164697   5.233   0.780  16.332 -0.8404  1.9987  0.7475
14402TIP3    H264698   5.264   0.848  16.464  0.3106  0.3036  1.3664
14403TIP3   OH264699   5.632   0.640   4.509  0.0319  0.0230 -0.3661
14403TIP3    H164700   5.716   0.648   4.554 -0.3733  0.5775  0.3047
14403TIP3    H264701   5.595   0.728   4.512 -0.7424 -0.2990 -0.3090
14404TIP3   OH264702   3.111   6.014  14.320 -0.1816 -0.1270 -0.5464
14404TIP3    H164703   3.138   6.069  14.247 -0.5389  0.3154 -0.3526
14404TIP3    H264704   3.015   6.022  14.321 -0.0507  1.8042  1.4504
14405TIP3   OH264705   1.818   5.259   3.115 -0.2417  0.1955  0.1144
14405TIP3    H164706   1.792   5.326   3.178 -0.8512 -1.7359  2.0029
14405TIP3    H264707   1.896   5.294   3.073 -0.8865  2.3266  0.6236
14406TIP3   OH264708   5.624   4.371   3.931  0.1100 -0.4184  0.0607
14406TIP3    H164709   5.647   4.387   4.023 -0.4978 -0.0695  0.1554
14406TIP3    H264710   5.631   4.457   3.890  1.4553 -0.7641 -0.4674
14407TIP3   OH264711   0.690   6.557   3.891  0.6261 -0.5858 -0.1012
14407TIP3    H164712   0.676   6.622   3.960  0.5989 -0.6777 -0.0192
14407TIP3    H264713   0.613   6.564   3.836  0.1499 -1.2510  0.4764
14408TIP3   OH264714   5.809   1.206  15.367  0.2442 -0.8343 -0.1338
14408TIP3    H164715   5.822   1.274  15.433  0.2128 -0.4235 -0.5491
14408TIP3    H264716   5.892   1.203  15.319 -0.5503  0.4925 -1.5881
14409TIP3   OH264717   5.101   6.415  15.865 -0.1157 -0.4227 -0.4900
14409TIP3    H164718   5.089   6.331  15.910 -0.4242 -0.2352 -0.2262
14409TIP3    H264719   5.013   6.442  15.840 -0.4091  1.4771  2.3885
14410TIP3   OH264720   1.576   5.991  12.690 -0.0346 -0.0798  0.1259
14410TIP3    H164721   1.551   6.064  12.747 -1.0255 -0.6191  0.4014
14410TIP3    H264722   1.669   6.005  12.672 -0.1236  1.0360  0.4855
14411TIP3   OH264723   0.262   3.049   6.064 -0.0774 -0.3507  0.6739
14411TIP3    H164724   0.169   3.036   6.082 -0.7598  1.6151 -1.2956
14411TIP3    H264725   0.299   2.960   6.067 -1.9942 -1.1517  1.4889
14412TIP3   OH264726   6.675   4.786  16.752  0.0342 -0.0902 -0.2437
14412TIP3    H164727   6.609   4.784  16.822 -1.6079  1.6208 -1.6615
14412TIP3    H264728   6.742   4.845  16.785 -0.6165  0.5175  0.0226
14413TIP3   OH264729   3.036   4.919  12.010 -0.4764  0.1989 -0.7088
14413TIP3    H164730   3.033   4.957  11.922 -3.9086  1.1808 -0.2431
14413TIP3    H264731   3.065   4.990  12.066  1.4486 -0.3511 -0.9775
14414TIP3   OH264732   1.788   3.066   4.108 -0.3147  0.7042 -0.2566
14414TIP3    H164733   1.827   3.090   4.024  1.9781  0.8854  0.8351
14414TIP3    H264734   1.837   3.117   4.172 -0.9558 -0.6641  1.3349
14415TIP3   OH264735   6.103   5.804   4.600  0.1243 -0.4083  1.0236
14415TIP3    H164736   6.123   5.896   4.615  0.8036 -0.7431  2.3693
14415TIP3    H264737   6.167   5.757   4.655 -1.1348 -1.6390  1.4702
14416TIP3   OH264738   1.834   3.169   1.364 -0.1357  0.0420  0.7512
14416TIP3    H164739   1.831   3.085   1.409  0.6767 -0.0098  0.7217
14416TIP3    H264740   1.773   3.225   1.413  0.7071 -0.0234  1.8912
14417TIP3   OH264741   6.664   2.463   5.699 -0.4417 -0.0988  0.2121
14417TIP3    H164742   6.678   2.409   5.620 -1.8708 -0.4765  0.2140
14417TIP3    H264743   6.632   2.401   5.764 -0.2270  0.4080  0.7962
14418TIP3   OH264744   5.906   4.871  16.682 -0.1982  0.2293  0.1834
14418TIP3    H164745   5.835   4.892  16.621 -0.1383 -1.1608 -0.3711
14418TIP3    H264746   5.986   4.884  16.631 -0.0475  1.5820  0.7400
14419TIP3   OH264747   3.401   4.046   0.264  0.0216  0.6009 -0.0817
14419TIP3    H164748   3.356   3.970   0.227 -1.5441  0.7905  1.3831
14419TIP3    H264749   3.405   4.028   0.358  0.2320  2.0306  0.1909
14420TIP3   OH264750   5.213   0.460  14.187 -0.2833 -0.2345 -0.1534
14420TIP3    H164751   5.268   0.389  14.153  0.5495 -0.3503  1.3682
14420TIP3    H264752   5.163   0.490  14.111  1.8220 -0.1886 -1.5628
14421TIP3   OH264753   0.857   3.698  12.440 -0.2268 -0.8480  0.2251
14421TIP3    H164754   0.867   3.603  12.439 -0.9037 -0.9326  0.9446
14421TIP3    H264755   0.773   3.714  12.395 -0.4791 -0.6426  0.7686
14422TIP3   OH264756   6.665   1.354   4.690 -0.1565  0.3422 -0.2556
14422TIP3    H164757   6.635   1.267   4.716  3.3662 -0.6828  0.7407
14422TIP3    H264758   6.647   1.410   4.766 -1.6114  0.2702 -0.5503
14423TIP3   OH264759   4.140   1.006  14.467  0.8998 -0.3394  0.7880
14423TIP3    H164760   4.066   1.017  14.528  0.1714  0.5382 -0.2429
14423TIP3    H264761   4.138   1.084  14.412  1.6714 -1.0378 -0.2498
14424TIP3   OH264762   2.206   6.118   5.157 -0.6869 -0.6821 -0.2063
14424TIP3    H164763   2.118   6.084   5.168 -0.5850 -0.1383  2.9167
14424TIP3    H264764   2.245   6.113   5.245  2.1370 -0.2634 -1.3718
14425TIP3   OH264765   3.466   3.940   4.345 -0.4197  0.0548 -0.3841
14425TIP3    H164766   3.523   3.931   4.268  1.0503 -0.4274  0.7290
14425TIP3    H264767   3.461   3.852   4.382  2.4384  0.9609  2.4876
14426TIP3   OH264768   4.055   6.618  16.015  0.0759  0.1694  0.0612
14426TIP3    H164769   3.985   6.675  16.044 -0.2983  0.2616 -1.0067
14426TIP3    H264770   4.134   6.671  16.021  0.2187 -0.2189  2.1506
14427TIP3   OH264771   3.092   6.214  14.513  0.0707 -0.1301  0.1094
14427TIP3    H164772   3.133   6.173  14.589 -0.0314 -0.1473  0.1561
14427TIP3    H264773   3.093   6.147  14.445  0.8017  0.1197 -0.1226
14428TIP3   OH264774   6.599   6.184   6.597 -0.4822  0.1116 -0.4730
14428TIP3    H164775   6.532   6.126   6.563  0.7848 -1.5675 -0.1534
14428TIP3    H264776   6.680   6.134   6.592  0.5170  1.5571  0.5466
14429TIP3   OH264777   2.172   0.297  16.519  0.5375 -0.1342  0.3101
14429TIP3    H164778   2.122   0.317  16.440  2.7406  0.4500 -0.9939
14429TIP3    H264779   2.137   0.357  16.586 -1.0473 -0.3319 -0.3244
14430TIP3   OH264780   2.552   0.390   4.889  0.3064 -0.6374  0.1429
14430TIP3    H164781   2.531   0.301   4.859  1.0199 -0.9093  0.4487
14430TIP3    H264782   2.644   0.386   4.913  0.1193 -0.0288  0.9739
14431TIP3   OH264783   5.998   4.649   1.165 -0.0193  0.1854  0.1815
14431TIP3    H164784   5.925   4.617   1.218 -0.3027 -0.8082 -0.7676
14431TIP3    H264785   5.961   4.659   1.077  0.9087 -0.0533 -0.2451
14432TIP3   OH264786   2.020   1.362   1.041 -0.1225 -0.3511 -0.2507
14432TIP3    H164787   1.998   1.455   1.037 -0.1773 -0.2782  1.3557
14432TIP3    H264788   2.090   1.350   0.977 -1.2447  0.4549 -1.6571
14433TIP3   OH264789   4.320   4.898  17.251 -0.1523 -0.2104  0.3619
14433TIP3    H164790   4.228   4.916  17.268  0.1733  1.1331  0.7888
14433TIP3    H264791   4.325   4.884  17.156 -0.7908 -0.2886  0.3416
14434TIP3   OH264792   5.259   4.223   5.991 -0.5506  0.2142  0.3048
14434TIP3    H164793   5.353   4.241   5.995 -0.5273  0.1287  0.1119
14434TIP3    H264794   5.253   4.128   5.990 -0.6676  0.2090  1.0674
14435TIP3   OH264795   2.920   3.320  15.510  0.1432 -0.0944 -0.0038
14435TIP3    H164796   2.829   3.309  15.483 -0.5419  1.2906  1.6480
14435TIP3    H264797   2.968   3.259  15.455 -1.7052 -0.4318 -1.3148
14436TIP3   OH264798   4.919   5.007  11.921 -0.2433 -0.1001 -0.5175
14436TIP3    H164799   4.919   4.977  11.830 -0.5973 -0.0786 -0.5245
14436TIP3    H264800   4.998   5.062  11.928  1.0092 -1.8716 -0.2278
14437TIP3   OH264801   1.676   5.438   6.432  0.1569  0.1333  0.0084
14437TIP3    H164802   1.609   5.370   6.446  1.9157 -1.8321 -0.8716
14437TIP3    H264803   1.639   5.494   6.364 -1.4728  0.2860  0.9857
14438TIP3   OH264804   4.270   2.736   3.826 -0.5290 -0.3383  0.0527
14438TIP3    H164805   4.231   2.818   3.795  2.3519  0.9441 -0.3190
14438TIP3    H264806   4.349   2.762   3.872  0.9126 -2.9621 -0.8202
14439TIP3   OH264807   2.322   2.013  13.640 -0.5726 -0.3206  0.5070
14439TIP3    H164808   2.412   2.019  13.671 -0.1583  0.1522 -0.7470
14439TIP3    H264809   2.294   1.925  13.665  0.1983 -0.4355  0.9962
14440TIP3   OH264810   1.102   5.799  17.061  0.7030 -0.3342  0.3969
14440TIP3    H164811   1.151   5.872  17.100  0.7314 -1.6425  2.9155
14440TIP3    H264812   1.114   5.810  16.967  1.2161  2.5494  0.7565
14441TIP3   OH264813   5.923   5.028   4.306  0.7685  0.5508  0.2037
14441TIP3    H164814   6.004   4.997   4.265  0.5732 -0.0719  0.2847
14441TIP3    H264815   5.904   4.962   4.373  0.3511  0.8513  0.3817
14442TIP3   OH264816   2.622   2.436  11.284 -0.1436  0.4859  0.2231
14442TIP3    H164817   2.710   2.423  11.251 -0.6886 -0.0740 -1.0317
14442TIP3    H264818   2.626   2.407  11.376  0.7784 -0.2968 -0.0649
14443TIP3   OH264819   1.667   0.779   0.370 -0.4567  0.0069 -0.5465
14443TIP3    H164820   1.690   0.714   0.304  0.3911  0.2827 -0.5360
14443TIP3    H264821   1.656   0.860   0.320  1.8061  0.5760 -0.1800
14444TIP3   OH264822   0.806   5.293  11.884  0.0073 -0.4923 -0.1659
14444TIP3    H164823   0.746   5.250  11.824 -0.1624  1.1318 -1.1912
14444TIP3    H264824   0.757   5.368  11.918  0.9558  0.0191  0.0982
14445TIP3   OH264825   2.842   6.021  14.286  0.4636  0.1578  0.2642
14445TIP3    H164826   2.774   6.047  14.224  0.3522 -0.1087  0.2759
14445TIP3    H264827   2.812   5.938  14.321 -0.1708  0.9675  1.7069
14446TIP3   OH264828   1.785   4.001   3.969 -0.4479  0.1635  0.1350
14446TIP3    H164829   1.802   4.005   3.875 -1.7955 -1.3918 -0.2018
14446TIP3    H264830   1.696   4.034   3.979  0.0838  1.3826  1.0140
14447TIP3   OH264831   1.904   1.354   0.362  0.3018  0.0244 -0.5377
14447TIP3    H164832   1.935   1.393   0.444 -0.4617  0.8425 -0.6267
14447TIP3    H264833   1.814   1.329   0.380  0.9186 -2.1589 -0.3477
14448TIP3   OH264834   5.826   0.419  16.895  0.7049 -0.5376 -0.9089
14448TIP3    H164835   5.877   0.426  16.976 -0.3389 -0.0009 -0.2883
14448TIP3    H264836   5.790   0.330  16.898 -1.5917  0.4047  0.6040
14449TIP3   OH264837   1.495   6.590   3.814 -0.4481  0.0119 -0.2073
14449TIP3    H164838   1.494   6.662   3.878 -1.7655  0.9072 -1.2261
14449TIP3    H264839   1.558   6.527   3.851  0.7613  1.6858  0.6835
14450TIP3   OH264840   1.075   6.172  10.814 -0.2825 -0.0136  0.0606
14450TIP3    H164841   1.048   6.116  10.741  1.3126 -4.5862  2.8333
14450TIP3    H264842   1.170   6.166  10.815  0.0547  3.8406 -0.2695
14451TIP3   OH264843   6.091   5.072  11.792 -0.6139  0.1522  0.2258
14451TIP3    H164844   6.168   5.126  11.807  0.3451 -1.1369  0.0131
14451TIP3    H264845   6.062   5.097  11.704  0.4482 -0.4175 -0.2978
14452TIP3   OH264846   5.256   0.011  15.775  0.0417  0.2832  0.3779
14452TIP3    H164847   5.162   0.017  15.760  0.2033 -0.2702 -0.9060
14452TIP3    H264848   5.279  -0.078  15.747  1.0696  0.6702 -0.0442
14453TIP3   OH264849   2.859   0.255   2.909  0.0842  0.0548 -0.6935
14453TIP3    H164850   2.786   0.281   2.964  0.7611  0.2336  0.1313
14453TIP3    H264851   2.916   0.332   2.908  1.8380 -1.1852  1.3018
14454TIP3   OH264852   3.118   0.534   0.535  0.0843  0.8527 -0.0077
14454TIP3    H164853   3.188   0.598   0.523 -0.6690  1.4464 -1.3113
14454TIP3    H264854   3.048   0.583   0.578  0.9145 -0.0525  2.4633
14455TIP3   OH264855   2.668   1.029   3.972  0.1217 -0.2521  0.1322
14455TIP3    H164856   2.573   1.032   3.968  0.1909  0.9655 -1.1994
14455TIP3    H264857   2.695   1.002   3.884  1.0278  0.9148  0.0305
14456TIP3   OH264858   2.625   4.967   5.124 -0.5863 -0.1049 -0.0932
14456TIP3    H164859   2.555   5.015   5.080  0.8932 -0.6613 -3.2530
14456TIP3    H264860   2.668   5.032   5.180 -2.3063  0.7344  0.2737
14457TIP3   OH264861   6.630   4.594  13.900 -0.0339 -0.8188  0.4746
14457TIP3    H164862   6.661   4.685  13.897  1.3842 -1.3160 -0.7528
14457TIP3    H264863   6.601   4.577  13.811 -2.2182 -0.9365  1.1964
14458TIP3   OH264864   6.550   6.335  15.825 -0.1575 -0.3222 -0.0468
14458TIP3    H164865   6.568   6.244  15.804  0.0530 -1.0926  3.2475
14458TIP3    H264866   6.475   6.332  15.885 -3.3351  2.0233 -3.6631
14459TIP3   OH264867   2.246   5.392   5.390  0.1003 -0.0470  0.3610
14459TIP3    H164868   2.161   5.431   5.410  0.9713  1.4499  1.1983
14459TIP3    H264869   2.282   5.370   5.476  1.4421  1.2306  0.1446
14460TIP3   OH264870   5.389   1.829  11.915 -0.9123 -0.7348  0.4902
14460TIP3    H164871   5.464   1.785  11.954 -0.3025 -0.2730 -0.1543
14460TIP3    H264872   5.319   1.764  11.920 -0.0196 -1.8000 -0.4314
14461TIP3   OH264873   4.617   6.375  13.513 -0.9167  0.0933 -0.7504
14461TIP3    H164874   4.529   6.377  13.478 -0.2805  1.2314 -2.3177
14461TIP3    H264875   4.644   6.283  13.506 -1.5172 -0.0286 -1.4129
14462TIP3   OH264876   4.620   5.777  16.555 -0.0793 -0.4684 -0.1176
14462TIP3    H164877   4.528   5.774  16.582  0.3851 -1.4637  1.3786
14462TIP3    H264878   4.647   5.867  16.574 -0.6801 -0.2162 -0.4131
14463TIP3   OH264879   5.418   1.685   0.489  0.0075  0.0835  0.3023
14463TIP3    H164880   5.342   1.737   0.518 -0.7633 -1.2311  0.7181
14463TIP3    H264881   5.419   1.611   0.550  0.9882 -0.4627 -0.3841
14464TIP3   OH264882   5.256   0.379  15.043 -0.3883 -0.3196 -0.0114
14464TIP3    H164883   5.252   0.322  14.966 -1.8331 -1.0887  0.6150
14464TIP3    H264884   5.172   0.368  15.086  0.3359  0.2225  1.6083
14465TIP3   OH264885   1.245   0.833   6.122 -0.7570 -0.1875  0.5906
14465TIP3    H164886   1.206   0.873   6.199 -1.3953  0.9365 -0.2981
14465TIP3    H264887   1.177   0.841   6.054  0.0544 -0.5186 -0.2692
14466TIP3   OH264888   1.330   6.168   4.129 -0.7741 -0.8300  0.4060
14466TIP3    H164889   1.236   6.159   4.111 -1.1046  0.1300  1.5581
14466TIP3    H264890   1.364   6.079   4.125 -1.3332 -0.9716 -2.1134
14467TIP3   OH264891   1.097   1.685  15.183  0.0793  0.0810 -0.2643
14467TIP3    H164892   1.122   1.617  15.121 -0.7391 -2.0802  1.6953
14467TIP3    H264893   1.122   1.767  15.141  3.4748 -1.5552 -1.5827
14468TIP3   OH264894   4.471   0.755   0.799 -0.2520  0.3500 -0.2036
14468TIP3    H164895   4.473   0.726   0.707 -0.8789  0.7439 -0.3509
14468TIP3    H264896   4.422   0.687   0.844  1.5676 -0.7420  0.1876
14469TIP3   OH264897   0.908   4.694   6.343 -0.2874 -0.1254 -0.0212
14469TIP3    H164898   0.850   4.618   6.344 -0.0478 -0.3076  0.4594
14469TIP3    H264899   0.877   4.750   6.414  1.3626 -1.1832  1.5793
14470TIP3   OH264900   1.419   3.893   5.407  0.0110 -0.7451 -0.1640
14470TIP3    H164901   1.441   3.931   5.322 -1.5972 -1.4339 -0.9131
14470TIP3    H264902   1.326   3.873   5.401  0.6436 -4.3316  0.3383
14471TIP3   OH264903   0.778   2.386   4.918  0.8605 -0.0323 -0.5517
14471TIP3    H164904   0.872   2.398   4.905  0.7409  1.2074 -0.2960
14471TIP3    H264905   0.737   2.454   4.866  0.1718  0.6314  0.8148
14472TIP3   OH264906   1.998   3.384  13.712  0.1440 -0.2488 -0.4506
14472TIP3    H164907   2.061   3.389  13.640 -0.3516 -0.8156 -0.9219
14472TIP3    H264908   1.926   3.331  13.678  0.1353 -0.9416  0.6270
14473TIP3   OH264909   4.202   5.279   4.534 -0.1866  0.2670 -0.2531
14473TIP3    H164910   4.294   5.263   4.511 -0.6401 -0.3440 -1.6899
14473TIP3    H264911   4.166   5.193   4.553 -0.0971  0.6510  1.8536
14474TIP3   OH264912   1.451   0.465  17.092  0.2908 -0.1908 -0.1567
14474TIP3    H164913   1.457   0.439  17.184  1.8220 -1.8807 -0.7008
14474TIP3    H264914   1.358   0.478  17.077  0.0736  0.6499  1.7771
14475TIP3   OH264915   1.515   0.314   4.750  0.0208  0.6697 -0.5056
14475TIP3    H164916   1.536   0.405   4.771 -1.5592  0.6645  1.2787
14475TIP3    H264917   1.598   0.275   4.721  0.9628  2.3283 -0.0635
14476TIP3   OH264918   6.511   4.150  15.315 -0.2373  0.2980 -0.1203
14476TIP3    H164919   6.590   4.203  15.303 -1.0521  1.3403 -0.9787
14476TIP3    H264920   6.442   4.201  15.273 -1.3873 -0.5547  0.7233
14477TIP3   OH264921   0.024   0.425   4.647 -0.1332  0.6318 -0.0024
14477TIP3    H164922   0.116   0.401   4.657 -0.6565 -1.4838 -0.0035
14477TIP3    H264923   0.026   0.505   4.594  1.6777  0.4576 -0.2430
14478TIP3   OH264924   0.759   2.543  15.798 -0.4312 -0.0484  0.0821
14478TIP3    H164925   0.665   2.553  15.782 -0.4642  2.0306  1.4154
14478TIP3    H264926   0.799   2.553  15.712 -1.2868  1.3446 -0.1684
14479TIP3   OH264927   3.035   6.582   1.876  0.3573  0.0544  0.4749
14479TIP3    H164928   3.120   6.595   1.918  1.0200 -0.8396 -0.5523
14479TIP3    H264929   3.054   6.581   1.782 -0.8314  0.1781  0.2234
14480TIP3   OH264930   2.967   5.869   1.160  0.6368 -0.1072  0.0030
14480TIP3    H164931   2.992   5.779   1.181  1.7558  0.0017 -0.8149
14480TIP3    H264932   2.933   5.864   1.071 -0.1070  0.1366  0.2721
14481TIP3   OH264933   1.878   2.924  12.022 -0.4137  0.6290  0.3421
14481TIP3    H164934   1.973   2.928  12.036 -0.2317  0.4711 -0.8082
14481TIP3    H264935   1.842   2.901  12.107  0.3657  3.3678  1.4860
14482TIP3   OH264936   5.028   0.766   5.071 -0.1466 -0.0903  0.5455
14482TIP3    H164937   5.081   0.704   5.020 -0.0333 -0.1918  0.7894
14482TIP3    H264938   4.939   0.753   5.039 -0.4747 -1.9632  2.1657
14483TIP3   OH264939   4.475   0.431   2.938  0.4484  0.0507  0.5816
14483TIP3    H164940   4.414   0.359   2.920 -0.4491  0.8057  0.5838
14483TIP3    H264941   4.464   0.448   3.032 -0.6206  1.3361  0.2407
14484TIP3   OH264942   2.002   6.133   4.978  0.2273 -0.1130  0.6705
14484TIP3    H164943   2.094   6.134   5.004 -0.0413 -0.4170  1.6814
14484TIP3    H264944   1.959   6.081   5.046 -0.7241  0.2002  0.3163
14485TIP3   OH264945   3.060   2.279   4.089 -0.0716 -0.0935  0.4313
14485TIP3    H164946   3.025   2.360   4.126 -0.4281 -0.0948  0.1012
14485TIP3    H264947   3.141   2.264   4.137 -0.4052  0.0365  1.0445
14486TIP3   OH264948   3.833   5.791   2.352  0.1764 -0.0938  0.4133
14486TIP3    H164949   3.801   5.864   2.405 -0.9881  0.1544 -0.6035
14486TIP3    H264950   3.755   5.736   2.339  0.7895 -0.9160  0.2060
14487TIP3   OH264951   4.358   5.914  13.394  0.2320 -0.1578 -0.0250
14487TIP3    H164952   4.319   5.829  13.374 -1.0975  0.3975  0.1657
14487TIP3    H264953   4.397   5.903  13.481 -0.1070 -0.5170  0.0807
14488TIP3   OH264954   3.234   4.763   6.454 -0.3363 -0.3178  0.1202
14488TIP3    H164955   3.194   4.682   6.486 -0.1471 -0.4888 -0.0706
14488TIP3    H264956   3.204   4.770   6.364  0.7497 -0.9072 -0.3071
14489TIP3   OH264957   0.695   5.364   2.879  0.2480  0.0672  0.1279
14489TIP3    H164958   0.784   5.352   2.912  0.0552  1.2654  1.1162
14489TIP3    H264959   0.639   5.346   2.954 -0.2191  2.0937  0.2859
14490TIP3   OH264960   6.788   6.598   4.376  0.2408  0.1316 -0.0475
14490TIP3    H164961   6.722   6.662   4.349  0.0679  0.5441  1.3161
14490TIP3    H264962   6.822   6.632   4.459  1.9617 -0.2256 -0.5907
14491TIP3   OH264963   1.160   2.870  10.794 -0.3011 -0.3571 -0.1144
14491TIP3    H164964   1.100   2.905  10.729  0.4699 -0.5823 -0.9551
14491TIP3    H264965   1.126   2.782  10.814  0.3421 -0.9032 -1.3730
14492TIP3   OH264966   3.990   1.655   2.095 -0.1468 -0.0423 -0.4199
14492TIP3    H164967   4.036   1.695   2.021 -0.2975 -0.6323 -0.8363
14492TIP3    H264968   4.046   1.582   2.121 -1.4943 -1.5863 -1.7870
14493TIP3   OH264969   5.091   0.416   2.939 -0.0389 -0.3822 -0.0216
14493TIP3    H164970   5.035   0.486   2.972  1.7946  0.1746  2.1233
14493TIP3    H264971   5.104   0.359   3.015  2.7475 -0.1418 -0.2603
14494TIP3   OH264972   5.308   0.835  14.008  0.2722  0.6072  0.1368
14494TIP3    H164973   5.251   0.879  13.945 -0.3549  2.3893  1.9121
14494TIP3    H264974   5.256   0.761  14.039 -0.0968  0.7579 -0.1135
14495TIP3   OH264975   4.471   6.586   5.457  0.3515 -0.4665 -0.1303
14495TIP3    H164976   4.385   6.622   5.436  0.3719 -0.8927 -1.0048
14495TIP3    H264977   4.514   6.654   5.507 -0.1516  0.1347 -0.5036
14496TIP3   OH264978   0.259   1.950  13.285 -0.0139  0.0686 -0.3867
14496TIP3    H164979   0.324   1.915  13.224 -0.6271  0.5720 -1.3540
14496TIP3    H264980   0.302   2.024  13.327 -0.1761  0.8467 -1.5452
14497TIP3   OH264981   6.377   0.038   5.407  0.3329 -0.2848  0.0400
14497TIP3    H164982   6.343   0.073   5.325  1.3431 -0.8887 -0.6652
14497TIP3    H264983   6.319  -0.035   5.428 -1.5994  1.5821  1.3629
14498TIP3   OH264984   5.841   1.447   1.261 -0.4737 -0.1598  0.3629
14498TIP3    H164985   5.852   1.410   1.174 -1.0892  0.5338 -0.0099
14498TIP3    H264986   5.759   1.408   1.294 -1.6099  1.5271 -0.3854
14499TIP3   OH264987   5.085   5.112   3.996 -0.4175  0.4259 -0.6086
14499TIP3    H164988   5.116   5.195   3.960 -1.0164  1.1535  0.4957
14499TIP3    H264989   5.141   5.045   3.957  1.3213  1.5311 -0.0356
14500TIP3   OH264990   2.479   2.985   1.603 -0.1556 -0.9213 -0.1496
14500TIP3    H164991   2.424   3.054   1.640  0.3326  0.3006 -1.6280
14500TIP3    H264992   2.550   2.975   1.666 -1.0817 -1.2025  0.8557
14501TIP3   OH264993   2.676   0.551  12.669  0.0916 -0.3528  0.2975
14501TIP3    H164994   2.614   0.517  12.733  1.6327 -0.5151  1.7495
14501TIP3    H264995   2.752   0.578  12.721  0.9394  0.5432 -1.3530
14502TIP3   OH264996   2.614   4.870   3.202  0.2828 -0.2432  0.5501
14502TIP3    H164997   2.669   4.841   3.275  0.9317  1.9060  0.9372
14502TIP3    H264998   2.545   4.922   3.243 -0.8243 -1.1344 -0.1464
14503TIP3   OH264999   0.237   1.382  11.408 -0.3171  0.2014  1.0160
14503TIP3    H165000   0.327   1.404  11.385 -0.6252  1.4621  0.9955
14503TIP3    H265001   0.209   1.452  11.468 -0.9520 -0.7146  1.8204
14504TIP3   OH265002   0.136   0.497   4.992  0.2095 -0.3912  0.0052
14504TIP3    H165003   0.096   0.410   4.989  0.3972 -0.4738 -0.1775
14504TIP3    H265004   0.066   0.557   4.966 -0.2879 -0.3517  1.4487
14505TIP3   OH265005   4.988   4.985   2.383  0.0855 -0.5535  0.2333
14505TIP3    H165006   4.985   5.047   2.311  0.6196  0.5356  1.1339
14505TIP3    H265007   5.021   4.904   2.344  0.5958  0.0911 -0.6832
14506TIP3   OH265008   5.190   3.620  12.761 -0.4884  0.4929  0.2274
14506TIP3    H165009   5.138   3.680  12.707 -1.7654 -0.9003 -0.1347
14506TIP3    H265010   5.143   3.617  12.844  0.1741  0.8155  0.6166
14507TIP3   OH265011   3.287   0.082   2.612 -0.2712  0.1147  0.4368
14507TIP3    H165012   3.204   0.059   2.573 -0.0319  1.3788 -0.8565
14507TIP3    H265013   3.266   0.099   2.704 -1.5386  0.9645  0.0030
14508TIP3   OH265014   1.729   6.752   6.130 -0.2032 -0.3611 -0.3676
14508TIP3    H165015   1.697   6.677   6.180  0.2287 -0.4475 -0.2190
14508TIP3    H265016   1.748   6.818   6.197  0.8178 -0.6408 -0.3793
14509TIP3   OH265017   3.411   4.420   4.463  0.1497  0.3265  0.6188
14509TIP3    H165018   3.354   4.400   4.537 -0.4264  1.8547  0.6111
14509TIP3    H265019   3.494   4.379   4.484 -1.8086 -4.7757 -0.8361
14510TIP3   OH265020   1.408   0.642  11.385  0.3409 -0.0188 -0.4634
14510TIP3    H165021   1.390   0.616  11.476 -0.6074 -1.5941 -1.0856
14510TIP3    H265022   1.495   0.681  11.388 -0.1535  1.0332  1.3263
14511TIP3   OH265023   0.675   2.294  12.220 -0.0361 -0.0435  0.1539
14511TIP3    H165024   0.655   2.383  12.189  0.8405  1.2402  3.0692
14511TIP3    H265025   0.590   2.252  12.229 -0.4470  0.4221 -1.4833
14512TIP3   OH265026   0.504   5.756   4.521  0.7598  0.2229 -0.7165
14512TIP3    H165027   0.517   5.666   4.552 -0.5617 -0.3093 -1.6594
14512TIP3    H265028   0.521   5.751   4.427  1.0055  1.0351 -0.7167
14513TIP3   OH265029   1.680   6.671  14.801 -0.0859 -0.0330 -0.0656
14513TIP3    H165030   1.626   6.614  14.747 -0.7733  1.2304 -0.7191
14513TIP3    H265031   1.754   6.616  14.828 -1.4039 -1.6194  0.4006
14514TIP3   OH265032   1.322   6.543   2.863  0.5656  0.2719  0.0750
14514TIP3    H165033   1.259   6.566   2.794  0.4832 -0.7843 -0.2080
14514TIP3    H265034   1.403   6.524   2.815  1.2917  2.2045  0.4779
14515TIP3   OH265035   5.478   6.010  13.472 -0.6209  0.2620 -0.0516
14515TIP3    H165036   5.536   6.056  13.412 -1.2231  1.1175  0.0097
14515TIP3    H265037   5.390   6.038  13.447 -0.9892 -0.7032  0.1229
14516TIP3   OH265038   6.155   4.468   5.513 -0.2696  0.1439  0.6294
14516TIP3    H165039   6.185   4.504   5.597 -1.9394  0.0199  1.3078
14516TIP3    H265040   6.200   4.521   5.447  1.3389  0.0127  1.5913
14517TIP3   OH265041   5.398   1.848   6.705 -0.1750  0.2675  0.4311
14517TIP3    H165042   5.331   1.916   6.703 -0.9240 -0.4395  1.2509
14517TIP3    H265043   5.481   1.895   6.697 -0.4624  1.5778  4.2216
14518TIP3   OH265044   2.198   0.506   5.567  0.3161 -0.3905 -0.3339
14518TIP3    H165045   2.177   0.560   5.490  2.0927  1.4209  0.4064
14518TIP3    H265046   2.292   0.491   5.561  0.0152 -2.5840  0.0428
14519TIP3   OH265047   4.294   3.619   6.312  0.4935  0.2807 -0.0792
14519TIP3    H165048   4.330   3.655   6.393 -0.1712 -2.5784  1.5593
14519TIP3    H265049   4.211   3.665   6.300  1.4918  2.0940 -0.2244
14520TIP3   OH265050   5.666   3.351  14.184 -0.0351  0.1194 -0.7631
14520TIP3    H165051   5.619   3.348  14.268  0.3139  0.3665 -0.5568
14520TIP3    H265052   5.759   3.352  14.209  0.0830 -0.4311 -1.1671
14521TIP3   OH265053   1.867   6.576   0.621 -0.0480 -0.5629 -0.2100
14521TIP3    H165054   1.813   6.645   0.658  0.9038 -0.4695  1.0034
14521TIP3    H265055   1.948   6.619   0.594 -0.1646 -0.8850 -1.1076
14522TIP3   OH265056   6.693   6.391  12.799  0.1053  0.1044  0.4949
14522TIP3    H165057   6.628   6.386  12.728  0.2602 -1.4229  0.4447
14522TIP3    H265058   6.642   6.409  12.877 -0.2725 -0.1753  0.3114
14523TIP3   OH265059   1.226   4.942  13.215 -0.5278 -0.5394 -0.4150
14523TIP3    H165060   1.271   4.950  13.131 -0.8895  2.2994 -0.3907
14523TIP3    H265061   1.136   4.968  13.197 -0.1198  2.2685  1.2075
14524TIP3   OH265062   6.186   0.786  17.177  0.3308 -0.4934 -0.3114
14524TIP3    H165063   6.221   0.769  17.090  0.4972 -1.2733 -0.0967
14524TIP3    H265064   6.103   0.739  17.180 -0.5278  0.9456 -0.6447
14525TIP3   OH265065   2.621   0.355  15.174 -0.2643  0.3429 -0.2866
14525TIP3    H165066   2.540   0.399  15.198 -0.3393  1.0801 -1.8007
14525TIP3    H265067   2.608   0.264  15.202 -1.6093  0.4607 -0.4929
14526TIP3   OH265068   3.780   5.165   4.426 -0.0505 -0.3410  0.2206
14526TIP3    H165069   3.852   5.224   4.448  0.8721 -1.0773 -0.8340
14526TIP3    H265070   3.777   5.102   4.498 -0.5889  0.5492  0.9950
14527TIP3   OH265071   2.926   5.632   1.313 -0.3082  0.4587 -0.9264
14527TIP3    H165072   2.835   5.646   1.287 -0.2823  0.9707 -0.7565
14527TIP3    H265073   2.928   5.543   1.348 -0.8429  0.6019 -0.5212
14528TIP3   OH265074   1.649   4.115   3.729 -0.1758  0.2610  0.1181
14528TIP3    H165075   1.598   4.035   3.743 -0.7636  0.6542  0.2286
14528TIP3    H265076   1.585   4.179   3.699  0.0120  1.1776  1.6771
14529TIP3   OH265077   6.403   3.864  12.763 -0.5663  0.2002  0.3696
14529TIP3    H165078   6.348   3.935  12.797  0.4226  1.5119 -0.6885
14529TIP3    H265079   6.435   3.897  12.679 -1.5844 -2.2880 -1.0407
14530TIP3   OH265080   5.475   0.538   0.030 -0.0892  0.0765  0.0734
14530TIP3    H165081   5.406   0.570   0.088 -0.5951 -2.6495  1.0745
14530TIP3    H265082   5.457   0.578  -0.055 -2.9458 -0.6173  0.3151
14531TIP3   OH265083   4.607   3.856   0.125  0.4667  0.0883 -0.5131
14531TIP3    H165084   4.668   3.922   0.158 -0.4740  1.2837 -1.1115
14531TIP3    H265085   4.634   3.774   0.168  1.9593  0.7543 -0.1435
14532TIP3   OH265086   3.973   2.325   4.007 -0.0872 -0.2005  0.8484
14532TIP3    H165087   4.039   2.312   4.074  1.1039  0.9799 -0.0894
14532TIP3    H265088   4.016   2.377   3.940 -1.5027 -0.6933 -0.4771
14533TIP3   OH265089   4.880   5.379  11.396  0.0934  0.2413 -0.1438
14533TIP3    H165090   4.801   5.433  11.397  0.7025  1.1183  0.7431
14533TIP3    H265091   4.922   5.399  11.312 -1.5980 -1.6840 -1.5182
14534TIP3   OH265092   4.591   2.998   0.327 -0.1242  0.0046 -0.3382
14534TIP3    H165093   4.626   2.986   0.239 -0.3704 -0.8615 -0.3234
14534TIP3    H265094   4.534   3.074   0.320 -0.4656 -0.3081 -1.0246
14535TIP3   OH265095   1.001   6.463   1.108  0.2934 -0.1977  0.1374
14535TIP3    H165096   0.975   6.498   1.193 -2.6831  0.6356 -1.0524
14535TIP3    H265097   1.086   6.503   1.090 -0.0843  1.3659  1.7285
14536TIP3   OH265098   5.181   2.002  10.304  0.1645 -0.2346  0.4533
14536TIP3    H165099   5.237   2.078  10.288  1.1723 -0.8586  0.9523
14536TIP3    H265100   5.233   1.927  10.275 -0.6827 -0.7708  0.2949
14537TIP3   OH265101   6.495   5.798   2.922  0.6479  0.0862  0.7335
14537TIP3    H165102   6.486   5.894   2.923  1.2181  0.1488  0.1849
14537TIP3    H265103   6.549   5.780   2.845  1.3248 -0.6117  1.3640
14538TIP3   OH265104   5.515   3.806   3.554  0.1111 -0.8323 -0.1870
14538TIP3    H165105   5.527   3.875   3.488  1.2223 -0.7061  0.1302
14538TIP3    H265106   5.431   3.765   3.531 -0.5907  0.6608 -0.3428
14539TIP3   OH265107   1.756   5.781   0.861 -0.3727  0.2514 -0.9459
14539TIP3    H165108   1.730   5.824   0.780 -0.2543 -0.1541 -1.2057
14539TIP3    H265109   1.679   5.785   0.917 -0.8131 -0.4331 -1.4906
14540TIP3   OH265110   4.586   1.417  13.050  0.1567 -0.0991  0.1749
14540TIP3    H165111   4.588   1.426  12.955 -1.7094 -0.4076  0.0898
14540TIP3    H265112   4.581   1.507  13.083 -3.2168 -0.0710 -0.1872
14541TIP3   OH265113   6.236   5.039   1.912 -0.0147  0.3771  0.7938
14541TIP3    H165114   6.215   5.098   1.841  0.4592  0.5431  0.7909
14541TIP3    H265115   6.161   5.044   1.971 -2.0574 -2.4168 -1.3875
14542TIP3   OH265116   0.170   0.739   1.776  0.2808  0.0467 -0.0179
14542TIP3    H165117   0.077   0.726   1.792 -0.0235  1.4953 -0.5584
14542TIP3    H265118   0.212   0.661   1.815 -1.1750 -0.8741 -0.2464
14543TIP3   OH265119   3.297   3.257   1.943 -0.3207 -0.1273  0.1052
14543TIP3    H165120   3.291   3.211   2.027  0.6087  0.7549  0.6683
14543TIP3    H265121   3.388   3.245   1.915 -0.5954 -0.3190 -0.7156
14544TIP3   OH265122   3.705   6.731  12.442 -0.0923 -0.1768  0.4783
14544TIP3    H165123   3.673   6.719  12.531 -1.4859  0.8208  0.1199
14544TIP3    H265124   3.638   6.690  12.386 -1.1365  2.4849 -0.3057
14545TIP3   OH265125   2.067   3.401   5.977  0.3484 -0.4746  0.5698
14545TIP3    H165126   2.042   3.332   5.916 -1.0474 -0.5899  1.2413
14545TIP3    H265127   2.162   3.406   5.970  0.5678 -3.1208  1.2062
14546TIP3   OH265128   5.850   5.048   3.391  0.4217  0.0550  0.1505
14546TIP3    H165129   5.931   5.007   3.361 -0.3710 -0.1391 -1.8041
14546TIP3    H265130   5.846   5.131   3.343 -0.9587 -0.3370 -0.4343
14547TIP3   OH265131   3.851   5.231  16.865 -0.1941 -0.3234 -0.2528
14547TIP3    H165132   3.826   5.307  16.919 -1.8909 -1.0135 -0.0243
14547TIP3    H265133   3.938   5.207  16.896  0.5481  1.8168 -0.6468
14548TIP3   OH265134   0.577   0.228  13.202  0.2156  0.2304  0.4006
14548TIP3    H165135   0.522   0.150  13.191  0.9447 -0.2682  0.2856
14548TIP3    H265136   0.550   0.286  13.131  1.3897 -0.9324 -1.0196
14549TIP3   OH265137   1.360   0.909   0.893 -0.4474  0.0729  0.0901
14549TIP3    H165138   1.313   0.989   0.915 -1.1609 -0.2963 -0.0873
14549TIP3    H265139   1.366   0.910   0.797  0.6572  0.5414  0.1509
14550TIP3   OH265140   3.470   5.904  16.730 -0.5786  0.0256 -0.8251
14550TIP3    H165141   3.471   5.951  16.813 -1.4233  1.0640 -1.3970
14550TIP3    H265142   3.418   5.959  16.671  1.3851  0.1095 -2.5204
14551TIP3   OH265143   0.680   0.640  14.236  0.3809  0.0767  0.5795
14551TIP3    H165144   0.694   0.694  14.313 -1.4672 -0.0866  1.0545
14551TIP3    H265145   0.625   0.693  14.178  0.4933 -0.3813  0.0478
14552TIP3   OH265146   2.147   5.968  11.936 -0.0174  0.1338  0.0769
14552TIP3    H165147   2.228   6.018  11.947  0.0710  0.3234 -1.3104
14552TIP3    H265148   2.078   6.035  11.931  0.0522  0.1183 -1.3560
14553TIP3   OH265149   0.679   3.850  12.859  0.0456  0.0261 -0.3893
14553TIP3    H165150   0.757   3.876  12.908  0.5144 -0.2143 -0.9985
14553TIP3    H265151   0.701   3.764  12.823 -0.8920 -0.5207  0.2954
14554TIP3   OH265152   6.736   5.793   0.138  0.3814  0.0578  0.1585
14554TIP3    H165153   6.794   5.869   0.131  0.1359  0.3619  1.3161
14554TIP3    H265154   6.674   5.803   0.066  0.4727  0.8493  0.1929
14555TIP3   OH265155   2.527   3.940  14.865 -0.3916  0.0920 -0.1279
14555TIP3    H165156   2.565   3.861  14.825 -0.5522 -0.0398 -0.0193
14555TIP3    H265157   2.484   3.909  14.944  1.1054  0.5582  0.8886
14556TIP3   OH265158   6.388   0.183  15.109 -0.4903  0.7077 -0.6255
14556TIP3    H165159   6.471   0.202  15.153  0.4529 -0.8499 -1.6821
14556TIP3    H265160   6.392   0.234  15.028  1.0736 -2.1059 -2.4081
14557TIP3   OH265161   6.127   6.813   3.139 -0.4775  0.1843  0.2301
14557TIP3    H165162   6.173   6.889   3.174 -0.7826  0.2483  0.4958
14557TIP3    H265163   6.062   6.850   3.080 -0.6742  0.1377  0.4148
14558TIP3   OH265164   4.525   6.226  13.104  0.6807  0.2571  0.1862
14558TIP3    H165165   4.581   6.297  13.134 -1.6307  2.4521 -0.5856
14558TIP3    H265166   4.562   6.200  13.019  0.3100  2.0007 -0.5332
14559TIP3   OH265167   5.346   1.611   2.422 -0.0010 -0.2773  0.4272
14559TIP3    H165168   5.439   1.633   2.428  0.3592 -1.0565 -1.8499
14559TIP3    H265169   5.327   1.563   2.502  1.3837  0.4565  1.2104
14560TIP3   OH265170   0.329   6.106   4.481 -0.1621 -0.0371 -0.4219
14560TIP3    H165171   0.280   6.031   4.515  0.4234  0.2947  1.1986
14560TIP3    H265172   0.283   6.183   4.515 -0.2336  0.3308 -1.3351
14561TIP3   OH265173   3.713   0.739   4.163 -0.3257  0.0448  0.4263
14561TIP3    H165174   3.673   0.801   4.102  1.1712  1.3273  0.7129
14561TIP3    H265175   3.722   0.788   4.244  1.3939 -0.3597  0.5008
14562TIP3   OH265176   5.979   6.315  16.390 -0.6423  0.1953  0.0052
14562TIP3    H165177   5.936   6.234  16.420  0.7576 -0.4852  0.2141
14562TIP3    H265178   6.031   6.343  16.465 -0.4929  0.8497 -0.3467
14563TIP3   OH265179   4.991   1.157  14.087 -0.2233  0.7325 -0.1235
14563TIP3    H165180   5.060   1.110  14.134  0.1249  1.0356 -0.3380
14563TIP3    H265181   5.037   1.219  14.031 -0.7307  2.7172  1.6095
14564TIP3   OH265182   6.738   0.535   1.603  0.4127 -0.5016 -0.1909
14564TIP3    H165183   6.719   0.556   1.511  0.2424 -0.1311 -0.0686
14564TIP3    H265184   6.783   0.450   1.598  0.6397 -0.3630 -0.6369
14565TIP3   OH265185   3.693   5.972  11.090  0.0756 -0.6184  0.2320
14565TIP3    H165186   3.676   5.885  11.055  0.9884 -0.8837  0.4394
14565TIP3    H265187   3.775   5.999  11.048 -0.0538  0.0223  0.3867
14566TIP3   OH265188   2.507   6.279  12.406 -0.0150 -0.0672 -0.2613
14566TIP3    H165189   2.427   6.259  12.456  0.4353  0.5407  0.7161
14566TIP3    H265190   2.563   6.203  12.420 -0.0716 -0.1019 -0.2166
14567TIP3   OH265191   0.725   6.546  17.001 -0.1564 -0.3087 -0.0969
14567TIP3    H165192   0.788   6.595  16.949 -1.9749  1.8021 -0.3990
14567TIP3    H265193   0.701   6.605  17.073  0.2016 -2.1048  1.5544
14568TIP3   OH265194   2.762   4.759   0.148  0.1108 -0.3870  0.0777
14568TIP3    H165195   2.773   4.849   0.117  0.8326 -0.0977  1.1523
14568TIP3    H265196   2.851   4.728   0.165 -0.1165 -1.3964 -0.5377
14569TIP3   OH265197   6.501   4.798  12.391  0.0754  0.8312 -0.1231
14569TIP3    H165198   6.559   4.871  12.415  1.0766 -0.1711  0.5730
14569TIP3    H265199   6.545   4.757  12.316  2.1350 -1.9985  2.4759
14570TIP3   OH265200   3.776   2.941   4.889  0.0040  0.1273  0.4966
14570TIP3    H165201   3.760   2.862   4.837  0.4273  0.1713  0.2994
14570TIP3    H265202   3.699   2.949   4.945  0.4007 -0.9638  1.2000
14571TIP3   OH265203   3.031   6.566  12.039 -0.2397  0.3660  0.3075
14571TIP3    H165204   2.966   6.540  12.103 -0.3858  3.5107  1.5302
14571TIP3    H265205   2.987   6.556  11.954 -1.7982  1.0263  1.0220
14572TIP3   OH265206   5.378   3.868  16.556 -0.1765 -0.3691  0.0287
14572TIP3    H165207   5.465   3.902  16.580  0.1901 -1.5810  0.4511
14572TIP3    H265208   5.359   3.803  16.622 -0.4654 -1.6471 -1.2903
14573TIP3   OH265209   5.015   5.332  16.777 -0.3790 -0.1541 -0.1462
14573TIP3    H165210   5.013   5.321  16.872 -2.6252  1.2416  0.0086
14573TIP3    H265211   5.003   5.244  16.742  1.6195 -0.8392  0.8342
14574TIP3   OH265212   1.549   1.170   4.860 -0.2075 -0.2726 -0.1981
14574TIP3    H165213   1.630   1.151   4.908 -1.7776 -2.4640  1.7013
14574TIP3    H265214   1.575   1.168   4.768  2.6682  2.9320  0.4367
14575TIP3   OH265215   0.830   3.008  14.299 -0.8591 -0.8098 -0.2988
14575TIP3    H165216   0.836   2.946  14.226  1.9378  1.1868 -1.8515
14575TIP3    H265217   0.759   3.067  14.275 -0.5567 -0.7184 -0.9862
14576TIP3   OH265218   5.822   0.644   0.767 -0.1467 -0.3123  0.6104
14576TIP3    H165219   5.736   0.658   0.728  0.1183  0.7015  0.3571
14576TIP3    H265220   5.878   0.619   0.693 -0.0843 -0.3377  0.6665
14577TIP3   OH265221   5.721   5.463   3.769  0.7239 -0.0188  0.3244
14577TIP3    H165222   5.728   5.416   3.687 -0.8915  1.4757 -0.7049
14577TIP3    H265223   5.729   5.396   3.837 -0.5788 -1.6138 -1.0777
14578TIP3   OH265224   2.497   3.991  10.637  0.0681 -0.3351 -0.2922
14578TIP3    H165225   2.404   3.967  10.639 -0.0407  0.0776 -0.4928
14578TIP3    H265226   2.525   3.970  10.548  0.3566 -1.1781 -0.0073
14579TIP3   OH265227   6.443   3.055   1.008  0.4902 -0.0887 -0.4321
14579TIP3    H165228   6.454   2.965   0.978  0.1951 -0.0025 -0.8083
14579TIP3    H265229   6.360   3.083   0.970  1.5138  0.9803 -1.9250
14580TIP3   OH265230   1.365   3.766  12.645 -0.1842 -0.0900 -0.9853
14580TIP3    H165231   1.454   3.789  12.617  1.0649  0.7482  3.3194
14580TIP3    H265232   1.315   3.847  12.633  1.1141  1.2448  2.0155
14581TIP3   OH265233   2.369   2.195   0.635  0.0009 -0.4011  0.0356
14581TIP3    H165234   2.275   2.202   0.653 -0.4941 -2.8877 -1.3086
14581TIP3    H265235   2.383   2.250   0.558  0.0564  1.5692  1.4220
14582TIP3   OH265236   4.388   3.334   3.877  0.1090  0.0058  0.2046
14582TIP3    H165237   4.356   3.422   3.896  2.4448  0.4209  2.5462
14582TIP3    H265238   4.320   3.276   3.911  0.3550  0.9000  2.2987
14583TIP3   OH265239   5.572   3.834   5.490  0.4287  0.1052 -0.3071
14583TIP3    H165240   5.575   3.905   5.425 -1.3842  0.0434 -0.5016
14583TIP3    H265241   5.663   3.814   5.509  0.9731  1.8505 -0.9697
14584TIP3   OH265242   6.546   3.471   2.653  0.6130 -0.2673 -0.5447
14584TIP3    H165243   6.587   3.398   2.700  1.3079 -0.4795 -1.4646
14584TIP3    H265244   6.616   3.505   2.597 -0.1044  0.2149 -1.1562
14585TIP3   OH265245   3.834   5.649  14.732  0.0242 -0.3839  0.4668
14585TIP3    H165246   3.747   5.677  14.703  1.0259  2.9176  0.4463
14585TIP3    H265247   3.869   5.724  14.780  3.2154 -1.2984 -0.2763
14586TIP3   OH265248   1.029   3.020  14.496 -0.2640 -0.0358 -0.2293
14586TIP3    H165249   0.980   3.018  14.578 -0.5315 -0.1615 -0.3896
14586TIP3    H265250   0.962   3.027  14.428  0.0214  1.3085 -0.3761
14587TIP3   OH265251   0.445   0.769   4.354 -0.0550 -0.4437 -0.1046
14587TIP3    H165252   0.357   0.806   4.352 -0.7554 -2.0930 -0.6239
14587TIP3    H265253   0.478   0.782   4.265  0.3446  0.4383  0.1691
14588TIP3   OH265254   3.018   5.837  12.494  0.2356 -0.0043 -0.1076
14588TIP3    H165255   3.041   5.770  12.558 -1.2516  0.1978  0.6643
14588TIP3    H265256   3.025   5.920  12.542  2.2627  0.4431 -1.1095
14589TIP3   OH265257   2.278   4.512  11.724  0.0239  0.1808 -0.0883
14589TIP3    H165258   2.190   4.529  11.689  0.4063  1.2385 -0.5454
14589TIP3    H265259   2.262   4.456  11.800 -1.1510  1.3899  0.5875
14590TIP3   OH265260   3.602   1.034   5.179  0.3332 -0.1456 -0.3985
14590TIP3    H165261   3.641   1.029   5.267  0.2845 -1.5949 -0.4490
14590TIP3    H265262   3.645   0.963   5.130  0.5823  0.8509 -1.6393
14591TIP3   OH265263   5.832   1.259   1.551 -0.8097 -0.2280  0.4681
14591TIP3    H165264   5.850   1.183   1.606 -0.6257  0.3335  1.1913
14591TIP3    H265265   5.739   1.276   1.563 -0.6100  0.3779  1.2453
14592TIP3   OH265266   6.109   2.052   0.004  0.3261  0.7871  0.0275
14592TIP3    H165267   6.173   1.992  -0.034 -1.0028  0.1548 -1.2551
14592TIP3    H265268   6.094   2.118  -0.064 -0.0606  1.1850  0.4870
14593TIP3   OH265269   3.521   4.322  12.673  0.1154 -0.3160 -0.5053
14593TIP3    H165270   3.461   4.327  12.748  0.6019  1.3977 -0.2027
14593TIP3    H265271   3.594   4.268  12.704  0.1659  0.1300  0.1680
14594TIP3   OH265272   0.074   3.390  12.909  0.3895  0.5014 -0.0315
14594TIP3    H165273   0.135   3.317  12.894  2.8362  2.3409  0.5266
14594TIP3    H265274   0.100   3.455  12.844 -0.1339  1.8340  1.0909
14595TIP3   OH265275   3.808   6.205   3.586  0.1445 -0.2548  0.1594
14595TIP3    H165276   3.724   6.249   3.570  1.2081  0.9496 -2.2521
14595TIP3    H265277   3.794   6.116   3.554 -0.7589 -0.6043  1.4481
14596TIP3   OH265278   5.861   3.251  11.443  0.3141  0.2951 -0.2960
14596TIP3    H165279   5.947   3.261  11.402  1.1714 -1.4717  1.0233
14596TIP3    H265280   5.828   3.168  11.411 -1.3520  1.3929 -1.5286
14597TIP3   OH265281   5.283   5.299  16.622  0.2175 -0.1390 -0.6420
14597TIP3    H165282   5.245   5.237  16.560  1.3695 -1.5498  0.0209
14597TIP3    H265283   5.210   5.326  16.678 -0.2572 -1.0070 -0.8437
14598TIP3   OH265284   4.272   0.715  16.268  0.2277  0.3463  0.3514
14598TIP3    H165285   4.240   0.632  16.302 -1.4027  0.5044 -0.7564
14598TIP3    H265286   4.347   0.691  16.213  0.7140 -0.2282  1.2660
14599TIP3   OH265287   0.418   2.023   4.300 -0.4628 -0.5780  0.6093
14599TIP3    H165288   0.504   2.035   4.259 -1.0242  0.5957 -0.2834
14599TIP3    H265289   0.434   2.032   4.394  0.4329 -0.6790  0.4709
14600TIP3   OH265290   5.081   0.471   1.450  0.5265 -0.0717 -0.5603
14600TIP3    H165291   5.040   0.448   1.534 -2.5159  0.6830 -1.7848
14600TIP3    H265292   5.138   0.396   1.430  0.7183 -0.5912  1.7963
14601TIP3   OH265293   0.346   5.977   1.460  0.0229 -0.3080 -0.1456
14601TIP3    H165294   0.374   5.903   1.513  0.1517 -0.0060  0.2123
14601TIP3    H265295   0.342   5.944   1.371  0.8799 -0.5224 -0.1021
14602TIP3   OH265296   4.562   2.152   5.063 -0.0542 -0.3685 -0.0075
14602TIP3    H165297   4.525   2.184   4.981  0.0909 -0.0910  0.0360
14602TIP3    H265298   4.602   2.068   5.039  1.0695  0.2872 -0.4885
14603TIP3   OH265299   0.716   2.937   3.592 -0.5462  0.0443  0.1747
14603TIP3    H165300   0.738   3.020   3.550  1.1413 -0.2441  0.4873
14603TIP3    H265301   0.652   2.961   3.659  0.1199  1.1281  0.4324
14604TIP3   OH265302   1.022   0.968   3.361  0.0266  0.2217 -0.1640
14604TIP3    H165303   1.117   0.959   3.365  0.0792  0.8236 -0.0924
14604TIP3    H265304   1.000   1.031   3.429 -0.2080  1.6720 -1.5504
14605TIP3   OH265305   2.802   0.739  15.219 -0.0465 -0.1377  0.0960
14605TIP3    H165306   2.822   0.669  15.281 -0.0113 -2.2622 -2.2214
14605TIP3    H265307   2.710   0.725  15.196 -0.2157  0.9711  0.0738
14606TIP3   OH265308   5.612   5.357   4.548 -0.1510 -0.6584  1.2383
14606TIP3    H165309   5.539   5.331   4.492 -1.1334  3.1192  0.5998
14606TIP3    H265310   5.589   5.325   4.635 -1.7494 -0.9918  0.6978
14607TIP3   OH265311   5.872   1.838   0.866  0.2708  0.3934  0.4064
14607TIP3    H165312   5.912   1.751   0.868 -1.5491 -0.4314  1.5267
14607TIP3    H265313   5.941   1.896   0.898  1.6016 -0.5805 -0.6410
14608TIP3   OH265314   4.376   2.925   4.169  0.1356  0.2404  0.5443
14608TIP3    H165315   4.408   3.007   4.208  1.3147 -0.0247  0.1407
14608TIP3    H265316   4.322   2.953   4.095  2.0355  0.6239 -0.7273
14609TIP3   OH265317   2.980   2.271  15.508 -0.9022 -0.1124 -0.1684
14609TIP3    H165318   3.069   2.246  15.483 -0.6468  1.8059 -1.3500
14609TIP3    H265319   2.945   2.195  15.554  0.6742 -1.6253 -1.3851
14610TIP3   OH265320   0.174   6.622   5.942 -0.4445  0.2375  0.3540
14610TIP3    H165321   0.253   6.573   5.964  0.0019  0.1996 -1.3070
14610TIP3    H265322   0.205   6.703   5.903 -1.2212  0.4320  0.1245
14611TIP3   OH265323   1.453   6.581  16.560  0.2148  0.1049  0.0799
14611TIP3    H165324   1.488   6.653  16.508  0.6380 -0.8599 -0.9920
14611TIP3    H265325   1.403   6.624  16.630 -0.4729  1.4121 -1.1937
14612TIP3   OH265326   4.429   0.750   3.000 -0.4949  0.3096 -0.1880
14612TIP3    H165327   4.485   0.673   2.994 -0.2400  0.6256 -2.0093
14612TIP3    H265328   4.355   0.721   3.054  1.0352 -0.3052  1.6692
14613TIP3   OH265329   2.477   5.736   2.990 -0.4353  0.0002 -0.2960
14613TIP3    H165330   2.497   5.655   2.944  1.5263  0.7052 -0.7304
14613TIP3    H265331   2.400   5.771   2.945 -0.7498 -1.1461 -0.6745
14614TIP3   OH265332   6.754   1.241   0.255  0.0012  0.3476 -0.8148
14614TIP3    H165333   6.796   1.243   0.340  2.8292 -0.3438 -2.1465
14614TIP3    H265334   6.820   1.205   0.196 -1.7886  1.0739 -3.3537
14615TIP3   OH265335   1.947   0.789   0.651 -0.1748 -0.2379 -0.6285
14615TIP3    H165336   2.038   0.774   0.679  0.1042  1.2474 -0.7094
14615TIP3    H265337   1.944   0.755   0.562  0.4222  0.0714 -0.7703
14616TIP3   OH265338   5.391   5.963  12.437 -0.0486  0.3709  0.3249
14616TIP3    H165339   5.388   6.056  12.416 -0.3631  0.6547  1.5498
14616TIP3    H265340   5.342   5.955  12.519  1.9396 -0.5011  1.4795
14617TIP3   OH265341   2.865   2.363  11.203  0.7241 -0.1709  0.2137
14617TIP3    H165342   2.927   2.408  11.147  1.8081  0.9004  2.2122
14617TIP3    H265343   2.896   2.272  11.205 -0.6095 -0.7378 -2.6357
14618TIP3   OH265344   4.138   6.728  12.737 -0.2636  0.6189  0.6464
14618TIP3    H165345   4.142   6.652  12.678  0.3531  0.8997  0.3109
14618TIP3    H265346   4.213   6.781  12.710 -2.0619  2.5250 -0.7133
14619TIP3   OH265347   4.359   0.078  12.687  0.3411  0.2186 -0.2267
14619TIP3    H165348   4.303   0.140  12.641  0.0363  1.3917  1.6410
14619TIP3    H265349   4.435   0.129  12.713  1.2561 -0.8242 -0.8148
14620TIP3   OH265350   5.013   1.247  17.221  0.3677  0.2127  0.0730
14620TIP3    H165351   4.989   1.154  17.217  1.2123  0.0690 -1.6911
14620TIP3    H265352   4.966   1.280  17.298 -0.2976 -1.5693  0.4494
14621TIP3   OH265353   2.188   4.636   5.055  0.6728 -0.3950  1.2312
14621TIP3    H165354   2.274   4.616   5.019  0.7630 -1.0177  1.7859
14621TIP3    H265355   2.150   4.550   5.076 -1.2269 -0.3563 -1.6549
14622TIP3   OH265356   6.286   5.721   4.182  0.0785 -0.7136  0.0213
14622TIP3    H165357   6.248   5.633   4.186  0.3836 -0.8658 -0.4038
14622TIP3    H265358   6.214   5.779   4.208  0.0743 -1.1386  0.9888
14623TIP3   OH265359   4.658   0.060  11.956  0.2654  0.5802  0.4502
14623TIP3    H165360   4.586  -0.003  11.955 -0.0387  0.9172  1.3128
14623TIP3    H265361   4.689   0.062  11.865 -1.3888  1.1099 -0.1252
14624TIP3   OH265362   5.950   2.315   4.221  0.4911  0.1419  0.1756
14624TIP3    H165363   5.917   2.305   4.310  1.6268 -1.7917  0.4184
14624TIP3    H265364   6.041   2.342   4.232 -0.8936  5.8402 -0.4867
14625TIP3   OH265365   4.084   4.432  16.371 -0.3658  0.6685  0.4684
14625TIP3    H165366   4.090   4.491  16.447  2.5231  0.0485  0.7521
14625TIP3    H265367   4.130   4.478  16.301  1.0348 -0.8117  0.4079
14626TIP3   OH265368   6.699   4.143  11.658 -0.1046  0.0976  0.1849
14626TIP3    H165369   6.689   4.091  11.578  0.8316  1.4923 -0.8539
14626TIP3    H265370   6.610   4.148  11.695 -0.5683 -0.4096 -0.8531
14627TIP3   OH265371   3.144   0.326  15.950  0.9566  0.3032  0.8123
14627TIP3    H165372   3.126   0.293  16.038 -0.1730  0.7060  0.7389
14627TIP3    H265373   3.130   0.420  15.957 -0.6987  0.1483 -0.1705
14628TIP3   OH265374   0.631   4.834  10.900 -0.0373  0.6786  0.4388
14628TIP3    H165375   0.628   4.928  10.921 -0.1838  0.7103  0.2790
14628TIP3    H265376   0.571   4.825  10.826  0.7466  0.6193 -0.1894
14629TIP3   OH265377   0.092   0.790   4.044  0.6682 -0.0676  0.2886
14629TIP3    H165378   0.070   0.714   4.099 -1.1755  0.1620 -0.0796
14629TIP3    H265379   0.029   0.857   4.070  0.3933  0.3607 -1.4137
14630TIP3   OH265380   6.389   5.899  15.327  0.0680  0.4515 -0.1099
14630TIP3    H165381   6.424   5.956  15.395 -0.1495  0.9032 -0.3715
14630TIP3    H265382   6.305   5.939  15.303  0.0489  0.1854 -0.5003
14631TIP3   OH265383   0.547   1.579  14.058 -0.2977  0.2555  0.4239
14631TIP3    H165384   0.605   1.502  14.063 -0.3073  0.4207  4.1741
14631TIP3    H265385   0.469   1.547  14.013  0.6969 -1.2753 -0.2773
14632TIP3   OH265386   1.097   0.688  14.837  0.2674 -0.0492  0.1312
14632TIP3    H165387   1.088   0.619  14.903  0.3392 -1.4466 -1.3015
14632TIP3    H265388   1.014   0.736  14.842  0.4071  0.0864  1.4680
14633TIP3   OH265389   2.622   5.089  17.148  0.1200  0.1740 -0.4776
14633TIP3    H165390   2.673   5.041  17.083 -1.8424  0.2356 -2.0958
14633TIP3    H265391   2.638   5.182  17.128 -0.0665  0.1944 -0.5336
14634TIP3   OH265392   6.223   0.932   6.232  0.5176  0.2305  0.0352
14634TIP3    H165393   6.143   0.969   6.195  0.3449  1.3796  1.4945
14634TIP3    H265394   6.196   0.901   6.319  2.0038  2.1467  1.2072
14635TIP3   OH265395   1.585   3.331  17.068  0.3878  0.5195 -0.4968
14635TIP3    H165396   1.637   3.360  16.993  0.4146 -0.8669 -1.0265
14635TIP3    H265397   1.497   3.317  17.031  0.6003 -0.9614 -0.4482
14636TIP3   OH265398   2.677   1.872  12.438 -0.4185  0.3478 -0.3246
14636TIP3    H165399   2.757   1.854  12.489  0.6070  3.3843 -0.7567
14636TIP3    H265400   2.709   1.907  12.355 -2.2132  1.0590 -0.7287
14637TIP3   OH265401   5.906   3.905   3.949  0.5441 -0.2892  0.2558
14637TIP3    H165402   5.867   3.992   3.939  0.3719 -0.5729 -1.6704
14637TIP3    H265403   5.921   3.896   4.043 -0.5574  1.3347  0.6005
14638TIP3   OH265404   6.115   1.101  11.791  0.2015 -0.4231 -0.4002
14638TIP3    H165405   6.204   1.117  11.823  0.5682 -1.4349 -0.8670
14638TIP3    H265406   6.119   1.012  11.756 -1.1277 -0.6433  0.0058
14639TIP3   OH265407   5.789   5.336  16.689 -0.2321 -0.3005 -0.0011
14639TIP3    H165408   5.817   5.324  16.598  0.3980  0.8981  0.0252
14639TIP3    H265409   5.866   5.372  16.734 -0.4581 -1.1183  1.0660
14640TIP3   OH265410   1.095   5.652  12.773 -0.0150 -0.6741 -0.4474
14640TIP3    H165411   1.036   5.661  12.698 -1.4435  0.0356  0.7495
14640TIP3    H265412   1.175   5.698  12.746 -0.5248 -0.3994 -1.5274
14641TIP3   OH265413   1.530   5.776   1.029  0.4832  0.0214  0.1763
14641TIP3    H165414   1.478   5.698   1.048 -1.2766  0.9659 -0.6523
14641TIP3    H265415   1.476   5.849   1.058  0.6690  1.1172 -2.0904
14642TIP3   OH265416   3.405   2.625   2.272 -0.6430  0.0259  0.2506
14642TIP3    H165417   3.387   2.647   2.180 -1.3968  0.5959  0.5332
14642TIP3    H265418   3.333   2.568   2.298  0.1791 -1.0866  0.1596
14643TIP3   OH265419   5.449   6.304  10.876  0.0071 -0.2152  0.4026
14643TIP3    H165420   5.387   6.346  10.936  0.2350 -0.3468  0.7313
14643TIP3    H265421   5.475   6.374  10.816 -0.0918 -0.0421  0.5631
14644TIP3   OH265422   1.607   6.686  12.297 -0.3349 -0.1081  0.1569
14644TIP3    H165423   1.587   6.774  12.267 -1.3135 -0.8123 -1.3255
14644TIP3    H265424   1.676   6.697  12.362 -2.1358  1.9564  1.7660
14645TIP3   OH265425   0.196   2.581  11.510  0.2905 -0.2970  0.5653
14645TIP3    H165426   0.228   2.653  11.455 -0.9644  0.5422  0.9069
14645TIP3    H265427   0.132   2.536  11.456  0.5111 -0.6859  0.6293
14646TIP3   OH265428   3.232   3.985  12.142  0.0591 -0.6192 -0.4627
14646TIP3    H165429   3.139   3.980  12.119 -0.0988  0.0892  0.0102
14646TIP3    H265430   3.246   4.076  12.167  0.6886 -0.9160  0.3095
14647TIP3   OH265431   0.103   6.064  15.326  0.1534  0.0396 -0.2829
14647TIP3    H165432   0.150   6.048  15.244 -0.4031  0.3582 -0.6682
14647TIP3    H265433   0.088   6.158  15.328 -0.7567 -0.0967 -0.3313
14648TIP3   OH265434   0.684   1.198  17.083  0.3807 -0.1827 -0.3415
14648TIP3    H165435   0.764   1.241  17.114  1.0643 -1.8734  0.3094
14648TIP3    H265436   0.620   1.213  17.153  0.4511  0.1891 -0.3544
14649TIP3   OH265437   2.193   6.802   2.933  0.3743 -0.3347  0.0123
14649TIP3    H165438   2.242   6.873   2.975  1.4749 -2.1273  1.8397
14649TIP3    H265439   2.186   6.829   2.842  2.2255  1.3378  0.3235
14650TIP3   OH265440   0.234   6.102   1.926  0.4608 -0.5852  0.2742
14650TIP3    H165441   0.315   6.064   1.893  1.0604  0.4012  0.5875
14650TIP3    H265442   0.252   6.196   1.934 -0.9843 -0.2192 -0.4792
14651TIP3   OH265443   3.623   6.324   5.629  0.1312 -0.0870  0.0142
14651TIP3    H165444   3.617   6.361   5.717 -2.4500  1.0073 -0.5546
14651TIP3    H265445   3.628   6.400   5.571  0.5605 -0.7605 -0.8362
14652TIP3   OH265446   5.628   0.958   2.382  0.5387  0.1556 -0.2180
14652TIP3    H165447   5.653   0.884   2.437  1.2035  0.6109  0.1078
14652TIP3    H265448   5.557   0.925   2.327  0.4814 -0.5668  0.2841
14653TIP3   OH265449   2.780   6.316  13.377  0.1011 -0.5609  0.7032
14653TIP3    H165450   2.804   6.233  13.336  1.4123  0.5453 -0.8358
14653TIP3    H265451   2.864   6.358  13.395 -0.5600  0.5014  1.3258
14654TIP3   OH265452   3.386   4.797  12.772 -0.0906  0.0801 -0.3225
14654TIP3    H165453   3.416   4.872  12.823  0.3962  0.8941 -1.7674
14654TIP3    H265454   3.292   4.793  12.787  0.1340 -0.0528  1.0881
14655TIP3   OH265455   6.413   5.392   4.954 -0.4856 -0.3530 -0.1822
14655TIP3    H165456   6.506   5.396   4.977 -0.3680  0.4197 -0.7433
14655TIP3    H265457   6.409   5.334   4.878 -0.2896  0.5479 -0.9007
14656TIP3   OH265458   5.417   3.165  14.513  0.5935 -0.3023 -0.3567
14656TIP3    H165459   5.370   3.149  14.432  0.2997 -1.9060  0.1124
14656TIP3    H265460   5.465   3.247  14.498 -0.3432  0.0033 -1.7267
14657TIP3   OH265461   4.843   1.772  14.912 -0.1580 -0.1761  0.0782
14657TIP3    H165462   4.907   1.842  14.901 -1.4182  0.9623 -0.0364
14657TIP3    H265463   4.893   1.700  14.951  0.8932  1.1757  1.2915
14658TIP3   OH265464   5.754   0.625   1.643  0.6218  0.3030 -0.3926
14658TIP3    H165465   5.768   0.610   1.736  1.7413  0.3012 -0.5449
14658TIP3    H265466   5.839   0.656   1.611  0.7965 -1.4668 -1.7588
14659TIP3   OH265467   2.958   3.306   0.341 -0.0981 -0.1829 -0.5284
14659TIP3    H165468   3.033   3.248   0.328 -0.4420 -0.8127  0.2937
14659TIP3    H265469   2.964   3.369   0.269  1.3433 -0.1079 -0.3615
14660TIP3   OH265470   4.940   2.268   1.099 -0.0302 -0.0161  0.1217
14660TIP3    H165471   5.013   2.328   1.111  0.8020 -0.1072 -3.7086
14660TIP3    H265472   4.862   2.323   1.106  0.6485  1.1492 -1.1624
14661TIP3   OH265473   2.085   3.868   2.612 -0.1252  0.1331 -0.0761
14661TIP3    H165474   2.167   3.821   2.598 -0.3796 -0.1266 -0.7187
14661TIP3    H265475   2.030   3.843   2.538 -1.1535 -0.5006  0.8816
14662TIP3   OH265476   3.326   2.897   1.523 -0.2517 -0.4819 -0.3860
14662TIP3    H165477   3.258   2.962   1.507 -1.0245 -1.0479  0.5306
14662TIP3    H265478   3.279   2.814   1.535  0.6299 -0.9960 -0.3519
14663TIP3   OH265479   6.333   4.812   4.265 -0.0817  0.0133 -0.1831
14663TIP3    H165480   6.279   4.883   4.231 -0.7873  0.9147  2.6870
14663TIP3    H265481   6.420   4.850   4.275 -0.4202  0.4425  1.1948
14664TIP3   OH265482   0.589   2.584  11.466 -0.0684  0.2634 -0.7996
14664TIP3    H165483   0.518   2.522  11.452 -0.3139 -0.3614  2.8308
14664TIP3    H265484   0.663   2.546  11.420 -1.0395 -1.1163 -1.2720
14665TIP3   OH265485   1.301   3.540  11.277  0.5415  0.0584 -0.0224
14665TIP3    H165486   1.249   3.488  11.217  0.2829  1.7900 -1.3428
14665TIP3    H265487   1.241   3.607  11.309  1.4290  0.8733 -0.0402
14666TIP3   OH265488   6.288   0.869  15.281 -0.2249  0.2827 -0.2370
14666TIP3    H165489   6.234   0.845  15.357  0.1264 -1.1661 -0.4347
14666TIP3    H265490   6.232   0.852  15.205  0.6200 -1.6568 -0.4686
14667TIP3   OH265491   2.092   2.727   5.738  0.3696  0.2464  0.5501
14667TIP3    H165492   2.015   2.725   5.681 -0.4444 -0.7925  1.6620
14667TIP3    H265493   2.110   2.635   5.757  2.5756  0.4022 -0.5834
14668TIP3   OH265494   5.541   4.092  11.689 -0.2243 -0.0989  0.1588
14668TIP3    H165495   5.565   4.146  11.614 -0.2856 -0.5117 -0.1597
14668TIP3    H265496   5.574   4.004  11.667 -1.1991 -0.4607  0.1431
14669TIP3   OH265497   6.796   3.264  12.087  0.6609 -0.1715  0.0470
14669TIP3    H165498   6.855   3.261  12.163 -0.6750 -1.0158  1.0723
14669TIP3    H265499   6.788   3.172  12.060  0.8701  0.0886 -0.9369
14670TIP3   OH265500   6.179   0.894   5.171 -0.5221  0.8321 -0.0206
14670TIP3    H165501   6.088   0.886   5.200 -1.0954  2.0440 -1.4733
14670TIP3    H265502   6.178   0.866   5.080  0.9978 -1.3969  0.5947
14671TIP3   OH265503   3.696   0.235   1.751  0.3314  0.0635  0.2923
14671TIP3    H165504   3.723   0.151   1.715 -0.6226 -0.0710 -0.1273
14671TIP3    H265505   3.665   0.215   1.839 -1.3144 -0.2777 -0.3408
14672TIP3   OH265506   4.731   2.293  11.449 -0.1644 -0.3524  0.3400
14672TIP3    H165507   4.667   2.222  11.459 -0.3207 -0.1717  0.6197
14672TIP3    H265508   4.690   2.369  11.491  0.3950 -0.3376  0.8651
14673TIP3   OH265509   0.645   2.420  10.961  0.2014 -0.4490  1.0895
14673TIP3    H165510   0.610   2.504  10.930 -0.3658 -0.9411  0.3681
14673TIP3    H265511   0.735   2.439  10.986  0.4390  0.1340 -0.1761
14674TIP3   OH265512   0.090   3.583  16.488 -0.1041  0.3980 -0.8294
14674TIP3    H165513   0.003   3.619  16.469  0.3054  1.4316 -0.7762
14674TIP3    H265514   0.145   3.617  16.418 -0.2526 -2.3374 -2.3465
14675TIP3   OH265515   6.541   6.373   7.020 -0.3639 -0.5687 -0.4265
14675TIP3    H165516   6.509   6.324   6.945  0.8728 -0.3630 -1.1010
14675TIP3    H265517   6.488   6.453   7.021  0.0454 -0.2772 -1.4579
14676TIP3   OH265518   4.590   3.498   4.473 -0.4113  0.4084 -0.6575
14676TIP3    H165519   4.632   3.412   4.475 -4.4665 -1.7213 -0.5076
14676TIP3    H265520   4.602   3.529   4.384 -0.2187 -1.0211 -1.1452
14677TIP3   OH265521   4.280   0.417  12.272  0.1833 -0.4890  0.0300
14677TIP3    H165522   4.346   0.437  12.338 -0.5198 -2.5659  1.4203
14677TIP3    H265523   4.201   0.461  12.303  0.0849 -0.7087  0.0931
14678TIP3   OH265524   6.409   1.476  10.429 -0.2513  0.4667  0.0441
14678TIP3    H165525   6.323   1.493  10.392  0.0264  0.6239 -0.5294
14678TIP3    H265526   6.398   1.395  10.479 -1.3035  1.7020  1.8910
14679TIP3   OH265527   2.102   2.446  11.266  0.9339 -0.0483 -0.2139
14679TIP3    H165528   2.120   2.539  11.255  0.4814 -0.1625 -2.2353
14679TIP3    H265529   2.041   2.441  11.339 -2.4288  1.6694 -2.7815
14680TIP3   OH265530   3.381   5.197  16.604  0.3398  0.1133 -0.1389
14680TIP3    H165531   3.449   5.257  16.635  0.3340  0.0047  0.0862
14680TIP3    H265532   3.335   5.246  16.535  0.1919  0.4526  0.1967
14681TIP3   OH265533   2.621   3.839  12.563  0.4561  0.0224 -0.0508
14681TIP3    H165534   2.714   3.840  12.540  0.4278 -0.0037 -0.1673
14681TIP3    H265535   2.597   3.931  12.571  0.1831  0.0608 -1.2841
14682TIP3   OH265536   6.628   1.285   2.655  0.4961 -0.1081  0.2868
14682TIP3    H165537   6.612   1.337   2.576  1.6708  0.2101  0.2435
14682TIP3    H265538   6.541   1.263   2.687  0.0027 -0.4039 -1.2036
14683TIP3   OH265539   3.322   3.658   0.759 -0.1431  0.0120 -0.5171
14683TIP3    H165540   3.293   3.618   0.841 -0.5666 -1.3681 -1.3125
14683TIP3    H265541   3.329   3.751   0.778  0.5854 -0.4046  1.3083
14684TIP3   OH265542   4.942   6.780   1.827 -0.1225  0.1934 -0.2626
14684TIP3    H165543   5.012   6.840   1.854 -0.2582  0.1436  0.1921
14684TIP3    H265544   4.983   6.694   1.825 -0.2466  0.1268  0.2663
14685TIP3   OH265545   3.639   6.624   2.064 -0.2276  0.4576 -0.3907
14685TIP3    H165546   3.721   6.636   2.017 -0.6861 -0.0966 -1.3543
14685TIP3    H265547   3.575   6.675   2.014 -0.3962  1.2689  0.6138
14686TIP3   OH265548   5.748   4.401   5.827  0.3644  0.0720 -0.1027
14686TIP3    H165549   5.798   4.437   5.900  0.7073  0.5843 -0.5766
14686TIP3    H265550   5.697   4.476   5.794 -0.3410 -0.3310  0.0758
14687TIP3   OH265551   3.492   4.733   3.869  0.2272  0.6393  0.0347
14687TIP3    H165552   3.523   4.708   3.783 -0.2648  0.3878 -0.0699
14687TIP3    H265553   3.442   4.814   3.854  0.5051  0.8309  0.1452
14688TIP3   OH265554   6.674   0.174   3.172 -0.1379 -0.0235  0.2065
14688TIP3    H165555   6.678   0.257   3.124 -0.2375 -1.6059 -2.6214
14688TIP3    H265556   6.617   0.118   3.119  0.7782 -2.2541  1.5161
14689TIP3   OH265557   1.895   4.877   0.269  0.0842  0.8870  0.5849
14689TIP3    H165558   1.865   4.853   0.182 -2.4385 -2.6508  2.2924
14689TIP3    H265559   1.827   4.935   0.303 -1.1543 -1.1512  1.6980
14690TIP3   OH265560   2.598   2.192  16.057  0.1392 -0.1373 -0.6637
14690TIP3    H165561   2.643   2.185  16.141  0.1045  2.7202 -0.3281
14690TIP3    H265562   2.662   2.163  15.992  1.3743  0.8292  0.0981
14691TIP3   OH265563   6.321   1.863   2.287  0.7851  0.7279 -0.3725
14691TIP3    H165564   6.299   1.781   2.243  1.5922  0.4360 -0.2542
14691TIP3    H265565   6.411   1.849   2.318  0.9422  1.6801 -0.4052
14692TIP3   OH265566   4.720   6.402  12.721  0.3877  0.1666 -0.2333
14692TIP3    H165567   4.795   6.399  12.661 -0.3920 -0.2731 -1.1920
14692TIP3    H265568   4.742   6.340  12.790  0.8460 -0.0705 -0.5895
14693TIP3   OH265569   0.380   4.468  10.877  0.3079  0.1660 -0.2726
14693TIP3    H165570   0.405   4.488  10.787 -1.0300 -0.5650 -0.8082
14693TIP3    H265571   0.301   4.416  10.870 -1.5885  2.6907  1.4062
14694TIP3   OH265572   6.064   6.549  15.140 -0.2049  0.3849 -0.0198
14694TIP3    H165573   6.127   6.487  15.177 -1.3234 -0.6330  0.1813
14694TIP3    H265574   6.117   6.604  15.082  1.1117  0.4170  1.1921
14695TIP3   OH265575   5.021   1.024  11.600  0.2276 -0.4953 -0.1428
14695TIP3    H165576   5.020   0.935  11.565  3.0626 -0.5689 -0.1352
14695TIP3    H265577   5.113   1.048  11.604 -0.4411  2.2631  0.3677
14696TIP3   OH265578   0.279   2.871   5.731  0.0888  0.1189 -0.7407
14696TIP3    H165579   0.319   2.787   5.710 -3.6010 -1.8085 -0.4537
14696TIP3    H265580   0.270   2.870   5.826  0.4226  1.0876 -0.6848
14697TIP3   OH265581   5.331   1.810   0.783 -0.5052  0.6117 -0.1762
14697TIP3    H165582   5.426   1.817   0.789 -0.3245 -1.0007 -1.0470
14697TIP3    H265583   5.313   1.717   0.791 -1.9154  0.7503 -1.5929
14698TIP3   OH265584   1.441   3.628   4.134  0.9543  0.0270  0.2499
14698TIP3    H165585   1.454   3.543   4.093 -0.6844 -1.2421  2.3391
14698TIP3    H265586   1.347   3.634   4.151  0.7393  3.0203 -1.4588
14699TIP3   OH265587   5.669   3.035   2.591 -0.5745 -0.0724  0.6193
14699TIP3    H165588   5.697   3.013   2.502  1.0784  1.1903  0.8031
14699TIP3    H265589   5.751   3.040   2.641 -1.4689 -0.4557  2.1422
14700TIP3   OH265590   1.101   5.358   6.457  0.3431  1.0678  0.0186
14700TIP3    H165591   1.113   5.273   6.414  1.3591  1.3859 -0.3246
14700TIP3    H265592   1.148   5.350   6.540 -1.1109  0.6636  0.8163
14701TIP3   OH265593   2.313   2.555   0.770  0.4547 -0.3314 -0.0366
14701TIP3    H165594   2.375   2.587   0.704 -1.8659  1.5065 -1.3695
14701TIP3    H265595   2.228   2.586   0.740 -0.9307 -1.4769  2.6086
14702TIP3   OH265596   1.400   5.822  12.030  0.2010  0.4646 -0.3037
14702TIP3    H165597   1.312   5.857  12.046  0.3485  1.2589 -1.1766
14702TIP3    H265598   1.429   5.866  11.950  1.4465  0.3182  0.0559
14703TIP3   OH265599   1.519   1.353  15.713 -1.0418  0.2139 -0.0371
14703TIP3    H165600   1.489   1.439  15.743 -1.4857 -0.6322  2.0157
14703TIP3    H265601   1.567   1.317  15.787 -0.4323 -1.1234 -1.0560
14704TIP3   OH265602   3.436   3.354   5.178  0.2044 -0.3109 -0.6762
14704TIP3    H165603   3.375   3.423   5.205 -0.8788 -1.2313 -0.7547
14704TIP3    H265604   3.477   3.325   5.260  0.3097  0.0830 -0.5859
14705TIP3   OH265605   5.472   1.208  12.617  0.1148  0.6339 -0.2736
14705TIP3    H165606   5.501   1.248  12.699  0.8752 -0.0553 -0.1991
14705TIP3    H265607   5.389   1.166  12.640  0.9399 -0.6303  0.4692
14706TIP3   OH265608   1.372   6.443   0.310 -0.0725 -0.2929 -0.0181
14706TIP3    H165609   1.328   6.472   0.390 -0.0878 -0.9986  0.2315
14706TIP3    H265610   1.301   6.434   0.246  0.2302  2.7089 -0.8593
14707TIP3   OH265611   1.868   4.208   9.889 -0.3349  0.1679 -0.1424
14707TIP3    H165612   1.880   4.261   9.810  0.0079  3.0551  1.7930
14707TIP3    H265613   1.822   4.266   9.950 -0.8790 -2.1203  1.6871
14708TIP3   OH265614   3.244   2.947  15.124 -0.4594  0.0156  0.1184
14708TIP3    H165615   3.209   2.874  15.175  0.7586 -0.1400  0.7549
14708TIP3    H265616   3.339   2.935  15.127 -0.3666 -0.3226 -2.6732
14709TIP3   OH265617   1.719   1.984  11.657  0.4644  0.1190 -0.5852
14709TIP3    H165618   1.734   2.010  11.748 -1.2750 -0.5121 -0.1010
14709TIP3    H265619   1.684   1.895  11.664  0.2296  0.1138 -1.8709
14710TIP3   OH265620   4.848   1.242  11.536  0.1492  0.0944 -0.3580
14710TIP3    H165621   4.916   1.179  11.559  0.5760  0.4923 -0.5228
14710TIP3    H265622   4.883   1.326  11.563 -0.2695  0.3077 -0.4695
14711TIP3   OH265623   2.265   1.047   2.246  0.6960 -0.7122 -0.2193
14711TIP3    H165624   2.293   1.107   2.315 -1.5171  0.4159 -0.2777
14711TIP3    H265625   2.329   1.061   2.176  0.7994  0.8315  0.1666
14712TIP3   OH265626   0.326   3.288   5.273  0.5747 -0.4751 -0.0572
14712TIP3    H165627   0.262   3.228   5.310  1.3601 -1.1458  0.2287
14712TIP3    H265628   0.404   3.234   5.257  1.3394  0.4930  0.3529
14713TIP3   OH265629   3.039   2.453  12.995  0.4021  0.3620  0.6200
14713TIP3    H165630   3.003   2.463  12.907  1.7020  0.9901  0.1465
14713TIP3    H265631   2.996   2.374  13.030 -0.5471  0.4365 -0.3502
14714TIP3   OH265632   4.498   5.132   2.830 -0.0493 -0.4205  0.4901
14714TIP3    H165633   4.444   5.207   2.807  3.1038  1.4000 -1.4869
14714TIP3    H265634   4.452   5.057   2.794 -1.2962  1.0418 -1.0559
14715TIP3   OH265635   2.549   1.807   1.396  0.3009  0.6699 -0.1096
14715TIP3    H165636   2.543   1.842   1.485 -0.7240 -0.6080  0.3428
14715TIP3    H265637   2.549   1.885   1.340 -0.2398  1.4529  0.9553
14716TIP3   OH265638   5.158   5.149  15.688  0.4487  0.4924 -0.0122
14716TIP3    H165639   5.238   5.105  15.718  0.5460 -0.4219 -1.5873
14716TIP3    H265640   5.094   5.079  15.682 -1.1876  1.5455  3.4496
14717TIP3   OH265641   4.684   4.035   4.839  0.6240 -0.4911 -0.0409
14717TIP3    H165642   4.644   4.021   4.925  1.9817 -1.9302  0.3809
14717TIP3    H265643   4.751   4.102   4.854  1.5652 -1.4873  0.2550
14718TIP3   OH265644   6.509   4.457   0.092  0.2011  0.1595 -0.4466
14718TIP3    H165645   6.532   4.394   0.024 -0.0250  1.1320 -1.4485
14718TIP3    H265646   6.440   4.414   0.142 -0.9509  0.1265 -1.9922
14719TIP3   OH265647   2.872   2.499  12.782 -0.6530 -0.0801  0.0295
14719TIP3    H165648   2.842   2.578  12.738 -2.4806 -0.9584 -0.3739
14719TIP3    H265649   2.897   2.440  12.711  0.2964 -0.0183  0.3124
14720TIP3   OH265650   6.687   0.721   0.200  0.0674 -0.0948 -0.2949
14720TIP3    H165651   6.754   0.721   0.269 -0.9724 -0.6264  0.7244
14720TIP3    H265652   6.642   0.805   0.211  0.6841  0.3501 -1.1074
14721TIP3   OH265653   1.455   0.146   4.288 -0.2770  0.4824 -0.1004
14721TIP3    H165654   1.419   0.215   4.343  0.3391  1.4411 -0.8607
14721TIP3    H265655   1.380   0.110   4.242 -0.8063 -0.3976  1.4335
14722TIP3   OH265656   2.780   1.243   0.751 -0.1187  0.0769  0.0576
14722TIP3    H165657   2.816   1.331   0.763 -0.8444  0.5849 -1.3756
14722TIP3    H265658   2.740   1.245   0.664 -1.8030 -1.1056  0.7799
14723TIP3   OH265659   3.829   3.024   4.522  0.3426  0.3564  0.6495
14723TIP3    H165660   3.810   3.118   4.516  1.0607  0.4421 -0.4695
14723TIP3    H265661   3.750   2.986   4.559 -0.7691  1.1385 -0.8527
14724TIP3   OH265662   1.068   5.887   6.156  0.0645  0.2574 -0.6033
14724TIP3    H165663   0.989   5.843   6.188  0.6939 -0.0803  0.5347
14724TIP3    H265664   1.102   5.829   6.088  0.8034 -0.9676  0.7816
14725TIP3   OH265665   4.490   6.812   0.823 -0.1207 -0.0508 -0.4290
14725TIP3    H165666   4.544   6.743   0.785 -0.3013 -0.8194  0.7045
14725TIP3    H265667   4.508   6.889   0.769  1.0385 -0.6602 -0.9121
14726TIP3   OH265668   6.332   1.776   4.401  0.3386 -0.6143  0.1873
14726TIP3    H165669   6.241   1.769   4.431  0.7570 -0.7683  1.4348
14726TIP3    H265670   6.381   1.800   4.479  1.3772 -0.5222 -0.4915
14727TIP3   OH265671   6.364   1.234  16.772  0.1127 -0.0199 -0.3877
14727TIP3    H165672   6.406   1.267  16.692  1.3379 -0.2305  0.1682
14727TIP3    H265673   6.434   1.190  16.820 -0.6644 -0.0678  0.7218
14728TIP3   OH265674   0.512   3.560  16.582  0.2754 -0.0858 -0.2299
14728TIP3    H165675   0.521   3.634  16.521 -2.1687  0.6149  0.2094
14728TIP3    H265676   0.585   3.571  16.643 -0.8771  2.8987  0.7284
14729TIP3   OH265677   3.565   0.652  11.476 -0.5985  0.6710  0.5195
14729TIP3    H165678   3.528   0.566  11.457 -0.8411  0.5188  1.6024
14729TIP3    H265679   3.579   0.650  11.571 -0.3018  1.7057  0.4964
14730TIP3   OH265680   5.885   1.382   5.003 -0.1641 -0.0621 -0.1894
14730TIP3    H165681   5.843   1.370   4.917  0.9607 -2.3537 -0.4368
14730TIP3    H265682   5.812   1.401   5.062 -1.1707 -0.4630 -1.2788
14731TIP3   OH265683   0.991   5.288  11.351 -0.1445  0.2210  0.5067
14731TIP3    H165684   0.995   5.336  11.269 -0.1725 -0.3328  0.1754
14731TIP3    H265685   1.080   5.289  11.385 -0.8272  3.6439  2.3417
14732TIP3   OH265686   2.657   0.824  12.782 -0.0576 -0.9583 -0.5700
14732TIP3    H165687   2.699   0.909  12.791 -1.9079  0.2132 -2.5650
14732TIP3    H265688   2.700   0.783  12.707 -0.0780 -1.2087 -0.4466
14733TIP3   OH265689   4.059   5.019  13.446 -0.1980 -0.3047 -0.0698
14733TIP3    H165690   4.005   4.944  13.471 -0.1158 -0.5217 -0.5399
14733TIP3    H265691   4.129   4.981  13.392  0.9245 -0.1405  1.2593
14734TIP3   OH265692   0.094   6.367  16.683  0.1351  0.0200  0.1695
14734TIP3    H165693   0.038   6.399  16.753  0.8373 -0.4719  0.9684
14734TIP3    H265694   0.034   6.342  16.613 -0.6495 -0.6407  1.0722
14735TIP3   OH265695   4.877   6.705  15.113 -0.0284 -0.4376  0.8289
14735TIP3    H165696   4.842   6.729  15.199  1.2771 -1.3365  1.6388
14735TIP3    H265697   4.805   6.659  15.070 -1.0252  0.9007  1.0445
14736TIP3   OH265698   2.380   1.564  13.731 -0.2569 -0.2988 -0.3170
14736TIP3    H165699   2.371   1.535  13.641  2.5285 -1.3756 -0.2866
14736TIP3    H265700   2.454   1.624  13.729 -1.5070  1.3371  0.9042
14737TIP3   OH265701   0.890   5.548   6.164  0.2544  0.5050  0.0033
14737TIP3    H165702   0.836   5.469   6.153 -0.9314  1.5724 -2.0174
14737TIP3    H265703   0.854   5.590   6.242  0.7577 -0.8220  0.9779
14738TIP3   OH265704   2.638   1.491  12.524  0.4233  0.2842 -0.1992
14738TIP3    H165705   2.571   1.547  12.484  1.1715 -0.2356 -2.2650
14738TIP3    H265706   2.588   1.426  12.574 -0.6182  0.1923 -1.3204
14739TIP3   OH265707   4.203   0.395   1.136 -0.1211  0.0077  0.2626
14739TIP3    H165708   4.185   0.404   1.230  0.7098 -1.0814  0.5352
14739TIP3    H265709   4.254   0.314   1.129  1.7438  1.2407 -0.8698
14740TIP3   OH265710   1.272   4.403  12.837 -0.4863 -0.1908 -0.2380
14740TIP3    H165711   1.289   4.364  12.923 -0.8048 -2.7420 -1.2862
14740TIP3    H265712   1.180   4.384  12.820 -0.3865  0.1596 -1.2159
14741TIP3   OH265713   5.056   2.677   1.159  0.1032 -0.3158  0.2438
14741TIP3    H165714   5.103   2.614   1.103 -1.3699  0.1981 -1.6293
14741TIP3    H265715   4.972   2.635   1.176  0.4208 -0.3197  1.8375
14742TIP3   OH265716   1.747   0.469  14.454  0.1206  0.9384  0.0184
14742TIP3    H165717   1.739   0.471  14.358  0.9937  0.4671 -0.0777
14742TIP3    H265718   1.766   0.559  14.478 -0.2669  1.0897 -0.2429
14743TIP3   OH265719   3.657   2.135   3.353  0.2672  0.3705 -0.1337
14743TIP3    H165720   3.614   2.218   3.332 -1.7399 -0.4730  0.5716
14743TIP3    H265721   3.740   2.161   3.393 -1.5483  2.1124  2.6884
14744TIP3   OH265722   5.622   1.593   4.804  0.2105  0.4729 -0.6138
14744TIP3    H165723   5.704   1.546   4.789 -0.3167 -0.1417 -1.6977
14744TIP3    H265724   5.601   1.631   4.718 -0.6365  0.6004 -0.3546
14745TIP3   OH265725   3.891   3.223  14.352  0.2554  0.2658  0.8588
14745TIP3    H165726   3.918   3.253  14.265 -1.5230  0.0283  0.2038
14745TIP3    H265727   3.929   3.136  14.360 -1.4078 -0.6335 -0.6202
14746TIP3   OH265728   5.027   5.047  11.026 -0.4669 -0.0546 -0.1767
14746TIP3    H165729   5.068   5.047  11.112  0.2588 -0.6096 -0.5186
14746TIP3    H265730   5.076   4.981  10.976 -1.4060 -0.3234 -0.7574
14747TIP3   OH265731   3.726   6.724  16.628  0.7745  0.0961 -0.4555
14747TIP3    H165732   3.709   6.808  16.670  0.1323  0.2592 -1.0243
14747TIP3    H265733   3.745   6.664  16.700  1.5001  0.7866 -0.0708
14748TIP3   OH265734   6.228   4.048  16.246 -0.2614  0.3863 -0.3934
14748TIP3    H165735   6.140   4.085  16.240 -0.9128 -1.0268  0.2167
14748TIP3    H265736   6.260   4.046  16.156 -0.6021  1.4838 -0.5415
14749TIP3   OH265737   1.040   5.025  12.772 -0.1610  0.1663 -0.2375
14749TIP3    H165738   1.061   5.094  12.709  2.1933  0.0446  0.3705
14749TIP3    H265739   0.982   5.068  12.836  1.0362  1.5160 -0.0384
14750TIP3   OH265740   1.848   6.773  14.362 -0.0763  0.1275 -0.5129
14750TIP3    H165741   1.891   6.852  14.328 -0.9317  2.5136  3.6379
14750TIP3    H265742   1.920   6.713  14.379  0.7265  0.5490 -2.2611
14751TIP3   OH265743   0.675   2.565  12.382  0.6432 -0.6387  0.2629
14751TIP3    H165744   0.731   2.577  12.306 -0.5915  1.8029 -0.2993
14751TIP3    H265745   0.729   2.593  12.456  1.7976 -2.8942  0.3432
14752TIP3   OH265746   4.390   0.619   1.933 -0.6744 -0.4895  0.3409
14752TIP3    H165747   4.324   0.555   1.961 -0.0404 -1.8637 -1.2059
14752TIP3    H265748   4.472   0.570   1.932 -0.4594 -0.1394 -2.5286
14753TIP3   OH265749   5.803   3.750   5.775  0.2609 -0.4428 -0.0288
14753TIP3    H165750   5.867   3.816   5.747 -0.0324 -0.4083 -0.6401
14753TIP3    H265751   5.738   3.800   5.825 -0.1217 -0.2053 -0.7471
14754TIP3   OH265752   1.605   6.670  15.449 -0.2816 -1.1628  0.3641
14754TIP3    H165753   1.637   6.580  15.462  1.6917 -0.5846 -0.4835
14754TIP3    H265754   1.562   6.691  15.532 -1.1341 -3.0190  0.4395
14755TIP3   OH265755   5.823   4.302   0.897  0.0264 -0.1963  0.1944
14755TIP3    H165756   5.750   4.363   0.909  0.3858  0.4049 -0.6060
14755TIP3    H265757   5.901   4.355   0.914  0.3663 -0.3044 -0.9671
14756TIP3   OH265758   5.533   1.178  15.148 -0.2852  0.0891 -0.1630
14756TIP3    H165759   5.442   1.153  15.131  0.4659 -1.5592 -1.9444
14756TIP3    H265760   5.570   1.104  15.196 -0.0467  1.0477  1.1565
14757TIP3   OH265761   4.531   0.974   5.311 -0.1817 -0.1496 -0.1370
14757TIP3    H165762   4.535   0.945   5.220 -0.5086 -0.1165 -0.1603
14757TIP3    H265763   4.585   1.054   5.313 -0.3693 -0.0164 -0.3510
14758TIP3   OH265764   4.722   3.024   0.642  0.0221 -0.0105 -0.3544
14758TIP3    H165765   4.636   3.028   0.598  0.5103 -0.1849 -1.3450
14758TIP3    H265766   4.735   2.932   0.660  0.4436 -0.1120 -1.1264
14759TIP3   OH265767   3.118   4.140  15.240  0.1750  0.1228  0.7784
14759TIP3    H165768   3.168   4.120  15.161 -0.4867 -1.0787  0.6574
14759TIP3    H265769   3.143   4.230  15.262  2.7204 -0.6006  0.9674
14760TIP3   OH265770   1.251   6.543   3.719  0.1133  0.1195  0.8389
14760TIP3    H165771   1.336   6.575   3.749  0.4672  0.8282 -0.8772
14760TIP3    H265772   1.234   6.467   3.774  2.5631 -0.9453  0.1968
14761TIP3   OH265773   1.754   4.184  13.720 -0.1754  0.1507  0.0328
14761TIP3    H165774   1.772   4.271  13.686 -2.9833  0.0965 -1.7396
14761TIP3    H265775   1.734   4.198  13.813 -0.5758  1.3751 -0.2393
14762TIP3   OH265776   5.541   1.678  13.319  0.0228 -0.2997  0.0727
14762TIP3    H165777   5.627   1.692  13.360  0.2447  0.9680 -0.8006
14762TIP3    H265778   5.482   1.734  13.369 -0.4533 -1.6941  1.1199
14763TIP3   OH265779   1.195   1.930  15.783  0.1511 -0.5154  0.0213
14763TIP3    H165780   1.219   1.975  15.703 -0.3156 -1.6727 -0.7839
14763TIP3    H265781   1.276   1.888  15.813  0.9953  2.1362  1.6676
14764TIP3   OH265782   5.717   3.197   0.349  0.4546  0.3619  0.2247
14764TIP3    H165783   5.795   3.250   0.367 -0.2955  1.9263 -1.0527
14764TIP3    H265784   5.689   3.224   0.262 -0.1369 -1.9427 -0.3425
14765TIP3   OH265785   3.615   5.308  11.313 -0.5257  0.2789  0.1171
14765TIP3    H165786   3.709   5.318  11.328 -0.7167  2.5664 -0.0354
14765TIP3    H265787   3.599   5.353  11.229 -1.5874 -1.0363 -0.4126
14766TIP3   OH265788   1.510   6.099  13.509  0.0817 -0.4231 -0.0172
14766TIP3    H165789   1.479   6.139  13.427 -0.6065 -0.3972  0.2527
14766TIP3    H265790   1.605   6.100  13.501  0.1174  1.6990  0.1600
14767TIP3   OH265791   0.877   4.475  11.953  0.3296  0.2719  0.1418
14767TIP3    H165792   0.920   4.561  11.958 -1.0441  0.9573  0.3771
14767TIP3    H265793   0.835   4.465  12.039  2.0070 -1.4514  0.7848
14768TIP3   OH265794   6.191   6.473   3.714  0.2317  0.0925 -0.0118
14768TIP3    H165795   6.206   6.399   3.773 -0.9510 -1.2598 -1.3409
14768TIP3    H265796   6.223   6.442   3.629 -0.2260  1.1290 -0.5617
14769TIP3   OH265797   5.867   5.307   3.588 -0.9593  0.0620  0.1176
14769TIP3    H165798   5.845   5.214   3.595 -1.0149 -0.0735 -1.6103
14769TIP3    H265799   5.835   5.333   3.502 -0.7094  1.6281  0.4805
14770TIP3   OH265800   2.208   1.076  14.824  0.1725  0.0801 -0.1418
14770TIP3    H165801   2.281   1.045  14.771 -0.7265  1.1223 -2.0365
14770TIP3    H265802   2.225   1.041  14.912  1.7748 -1.5230 -1.0656
14771TIP3   OH265803   3.023   4.153  16.691  0.5546 -0.0893  0.2128
14771TIP3    H165804   3.116   4.133  16.705  0.6819 -0.3038 -0.9035
14771TIP3    H265805   3.008   4.234  16.740  1.1840 -0.3752  0.8896
14772TIP3   OH265806   1.997   5.321  15.902  0.2368  0.0437  0.3771
14772TIP3    H165807   1.978   5.299  15.811  1.8343  1.1603 -0.2486
14772TIP3    H265808   1.925   5.282  15.952 -1.9771  1.5449 -1.5796
14773TIP3   OH265809   5.039   4.171   0.964  0.4590  0.8501  0.2226
14773TIP3    H165810   5.131   4.144   0.961  0.2092  0.1027 -1.8139
14773TIP3    H265811   5.036   4.253   0.914 -0.3357 -0.3621 -1.8036
14774TIP3   OH265812   1.579   0.827  15.813  0.9069  0.5280 -0.1334
14774TIP3    H165813   1.544   0.811  15.900 -0.6805  1.3385 -0.6198
14774TIP3    H265814   1.535   0.764  15.756  0.9460  0.8993 -0.5871
14775TIP3   OH265815   2.149   2.679   4.646 -0.2746  0.7057 -0.0277
14775TIP3    H165816   2.175   2.711   4.560  0.5380 -1.2290 -0.5336
14775TIP3    H265817   2.100   2.751   4.685  1.5372  2.5451 -1.0864
14776TIP3   OH265818   4.994   0.963  16.481 -0.2085  0.0605 -0.1101
14776TIP3    H165819   5.059   1.033  16.486 -0.9958  0.7282  1.0520
14776TIP3    H265820   4.972   0.958  16.388 -2.0820  3.1942  0.0741
14777TIP3   OH265821   0.661   3.332  11.451  0.8349 -0.0559 -0.4893
14777TIP3    H165822   0.688   3.258  11.505  1.7078 -0.3913 -1.3562
14777TIP3    H265823   0.627   3.292  11.371 -1.1837  0.4101  0.1057
14778TIP3   OH265824   3.507   1.116  12.891  0.0249 -0.1585 -0.5205
14778TIP3    H165825   3.443   1.103  12.821 -2.0205 -1.1880  1.4472
14778TIP3    H265826   3.519   1.028  12.929  1.3340  0.3159  0.2031
14779TIP3   OH265827   0.619   5.280  17.185  0.3969 -1.2952  0.1527
14779TIP3    H165828   0.684   5.253  17.250  0.1037  0.5579  1.2351
14779TIP3    H265829   0.643   5.370  17.162 -0.5797 -1.3024 -0.9756
14780TIP3   OH265830   2.640   6.252  11.308  0.1368  0.1073  0.0237
14780TIP3    H165831   2.636   6.259  11.403  0.6285 -0.1049  0.0631
14780TIP3    H265832   2.613   6.163  11.289 -0.2735  0.2489 -0.0587
14781TIP3   OH265833   3.144   2.971  14.309 -0.0550  0.5959 -0.1052
14781TIP3    H165834   3.229   2.984  14.350  0.1273  0.5284 -0.4536
14781TIP3    H265835   3.126   3.053  14.263 -0.0546  0.5190 -0.2448
14782TIP3   OH265836   3.848   1.253   5.344  0.7795  0.6698 -0.0217
14782TIP3    H165837   3.783   1.312   5.383  0.6863  0.0349  0.7793
14782TIP3    H265838   3.930   1.277   5.386  0.9755  1.0876 -0.6273
14783TIP3   OH265839   3.750   3.890  13.350 -0.1132  0.4052 -0.3836
14783TIP3    H165840   3.771   3.964  13.293 -4.0080  0.6579 -1.6339
14783TIP3    H265841   3.682   3.923  13.408 -0.4640 -1.6262  0.3929
14784TIP3   OH265842   2.970   0.106  17.265 -0.2817 -0.1504  0.1600
14784TIP3    H165843   3.038   0.150  17.315 -0.7877 -1.4677  2.0483
14784TIP3    H265844   2.901   0.172  17.255 -0.1870  0.1219  1.2262
14785TIP3   OH265845   5.910   1.743   5.968  0.0331  0.3840 -0.5029
14785TIP3    H165846   5.938   1.665   5.919  1.6922  1.5670 -1.4902
14785TIP3    H265847   5.958   1.738   6.051 -0.6464 -0.1665 -0.1368
14786TIP3   OH265848   2.613   2.046   1.569  0.2440 -0.2844 -0.6472
14786TIP3    H165849   2.702   2.074   1.546  0.5044 -0.5080  0.0617
14786TIP3    H265850   2.561   2.063   1.490  0.7756  0.4799 -0.8454
14787TIP3   OH265851   5.088   4.976   5.412 -0.3557 -0.2235 -0.2016
14787TIP3    H165852   5.105   4.900   5.357 -1.6039 -0.1325 -0.7489
14787TIP3    H265853   5.160   5.036   5.394  0.9870 -1.5215  0.7220
14788TIP3   OH265854   5.878   5.717   4.097 -0.5662 -0.2390 -0.2508
14788TIP3    H165855   5.925   5.732   4.179 -0.7060  0.2744 -0.2589
14788TIP3    H265856   5.945   5.690   4.035 -0.1194  1.3517 -0.4967
14789TIP3   OH265857   6.157   0.659  12.664  0.8213 -0.1549 -0.5128
14789TIP3    H165858   6.123   0.651  12.753  0.3701  1.3080 -0.5402
14789TIP3    H265859   6.207   0.740  12.665 -0.9073  0.9711 -2.1218
14790TIP3   OH265860   5.467   1.825   4.920  0.1167  0.1379 -0.1393
14790TIP3    H165861   5.489   1.845   5.011  0.6339  0.1646 -0.2719
14790TIP3    H265862   5.517   1.747   4.899 -0.8188 -0.4930 -0.0725
14791TIP3   OH265863   1.062   4.194  16.854 -0.4724 -0.3490 -0.5659
14791TIP3    H165864   0.969   4.211  16.836 -0.2787 -0.2634 -1.5382
14791TIP3    H265865   1.062   4.137  16.931 -1.3262 -0.2357 -0.4777
14792TIP3   OH265866   6.122   3.641  12.969 -0.4645 -0.5693  0.1282
14792TIP3    H165867   6.178   3.620  12.895  1.4549 -0.3996  1.5001
14792TIP3    H265868   6.090   3.557  13.001  1.9089 -0.9979  1.5277
14793TIP3   OH265869   0.286   3.458   2.306 -0.0826  0.1992 -0.3713
14793TIP3    H165870   0.213   3.481   2.363  0.3928 -0.3921  0.4742
14793TIP3    H265871   0.349   3.414   2.363  0.6755  0.1744 -1.2147
14794TIP3   OH265872   0.565   2.044  11.274 -0.0501 -0.1213 -0.2321
14794TIP3    H165873   0.515   2.095  11.210 -1.8242 -1.6539 -0.1111
14794TIP3    H265874   0.547   1.953  11.250  0.8350 -0.6872  1.2595
14795TIP3   OH265875   0.439   2.806  14.003  0.1866 -0.5260  0.3169
14795TIP3    H165876   0.513   2.779  14.058 -0.9383 -0.4442  1.9154
14795TIP3    H265877   0.401   2.724  13.971 -0.2332 -0.6545  1.1327
14796TIP3   OH265878   5.656   0.354  14.869 -0.0930 -0.4476  0.5237
14796TIP3    H165879   5.684   0.302  14.944  2.0722  0.3898  0.3183
14796TIP3    H265880   5.616   0.291  14.809  0.7286 -1.5575  1.1324
14797TIP3   OH265881   4.104   6.105  10.478  0.0837 -0.0939 -0.0578
14797TIP3    H165882   4.100   6.046  10.553  0.6372 -0.3729 -0.2442
14797TIP3    H265883   4.197   6.113  10.459  0.0985  1.6760  0.6233
14798TIP3   OH265884   6.571   2.145   2.263  0.0202  0.2465  0.0065
14798TIP3    H165885   6.658   2.109   2.245  0.0615 -1.0906  2.5338
14798TIP3    H265886   6.551   2.113   2.351 -1.7773  2.9828  0.6439
14799TIP3   OH265887   1.238   4.137   5.436 -0.0094  0.1348 -0.4345
14799TIP3    H165888   1.330   4.157   5.456  1.0469 -1.6096 -3.2311
14799TIP3    H265889   1.212   4.206   5.375 -0.7447  0.8973  0.7145
14800TIP3   OH265890   3.088   5.047   2.699  0.4544  0.1136  0.2860
14800TIP3    H165891   3.020   4.997   2.653  1.3523 -0.8252 -0.0514
14800TIP3    H265892   3.044   5.086   2.774 -0.0963 -1.8295  0.9881
14801TIP3   OH265893   5.406   3.813  12.223  0.1765 -0.3673 -0.1275
14801TIP3    H165894   5.473   3.859  12.272 -0.3220 -0.5811  0.7633
14801TIP3    H265895   5.392   3.866  12.145  1.2216 -0.2161 -0.2109
14802TIP3   OH265896   6.440   2.200   6.256  0.0925  0.0747 -0.1119
14802TIP3    H165897   6.488   2.281   6.239  0.8008 -0.3617 -0.2069
14802TIP3    H265898   6.502   2.144   6.301 -0.1777 -0.6689 -0.6424
14803TIP3   OH265899   3.072   2.180  12.767  0.2446 -0.0107  0.3276
14803TIP3    H165900   3.059   2.198  12.860 -0.8050 -0.0118  0.1925
14803TIP3    H265901   3.085   2.085  12.763 -0.4978 -0.1203  0.4007
14804TIP3   OH265902   6.809   5.960  14.098  0.5392 -0.2465 -0.6135
14804TIP3    H165903   6.811   5.916  14.182  1.8685 -0.2583 -0.6525
14804TIP3    H265904   6.811   5.889  14.033 -0.7327 -0.2486 -0.6656
14805TIP3   OH265905   4.261   2.237  16.931 -0.0283  0.0019  0.1095
14805TIP3    H165906   4.230   2.234  16.841 -1.0812  0.4546  0.4496
14805TIP3    H265907   4.209   2.306  16.973 -0.6491 -1.2377  1.4593
14806TIP3   OH265908   4.406   2.125  14.877 -0.5985 -0.0258  0.0196
14806TIP3    H165909   4.406   2.128  14.782 -2.3817 -2.5409 -0.1129
14806TIP3    H265910   4.339   2.189  14.903  0.5480  1.3425 -0.3523
14807TIP3   OH265911   6.464   4.869   4.717  0.6680  0.8386  0.2268
14807TIP3    H165912   6.476   4.964   4.715 -1.8272  1.1987  1.0459
14807TIP3    H265913   6.392   4.852   4.656  0.4006 -0.3976  0.8603
14808TIP3   OH265914   0.897   5.461   3.230  0.9269  0.5800  0.5098
14808TIP3    H165915   0.877   5.462   3.323  1.1773  1.7464  0.5599
14808TIP3    H265916   0.832   5.520   3.191 -0.1449 -1.0742 -0.2643
14809TIP3   OH265917   2.567   4.307  10.402  0.4097  0.3540 -0.1214
14809TIP3    H165918   2.495   4.266  10.449  1.4734 -0.8656  0.4920
14809TIP3    H265919   2.589   4.245  10.332 -0.2794  1.5299 -1.3869
14810TIP3   OH265920   3.113   0.580  16.040 -0.2770 -0.3822  0.0540
14810TIP3    H165921   3.047   0.641  16.008 -0.5094 -1.3109 -1.2839
14810TIP3    H265922   3.116   0.596  16.135 -3.7027 -1.5129  0.4311
14811TIP3   OH265923   0.036   4.988   5.478  0.0855 -0.1037 -0.3369
14811TIP3    H165924   0.028   4.900   5.516  0.2005  0.3194  0.6806
14811TIP3    H265925   0.124   5.016   5.502  0.0889  0.2448 -0.7620
14812TIP3   OH265926   2.032   4.701   3.744  0.0578  0.7217  0.3622
14812TIP3    H165927   1.946   4.713   3.785  1.1279  2.4301  2.2132
14812TIP3    H265928   2.085   4.659   3.812  0.4154 -1.4034 -1.1616
14813TIP3   OH265929   1.141   2.020   1.826 -0.1845 -0.1205  0.2414
14813TIP3    H165930   1.140   1.924   1.835 -1.4938 -0.2012 -0.6536
14813TIP3    H265931   1.104   2.052   1.909 -0.3913 -0.4119  0.2624
14814TIP3   OH265932   2.576   3.676   6.011  0.1992 -0.2202 -0.9919
14814TIP3    H165933   2.600   3.585   6.027  1.2497  0.2704  0.2341
14814TIP3    H265934   2.518   3.699   6.083  0.9683  0.4767 -0.5944
14815TIP3   OH265935   2.804   4.471  11.363 -0.0297  0.6375 -0.0779
14815TIP3    H165936   2.763   4.496  11.446 -0.8438  1.2009 -0.6536
14815TIP3    H265937   2.781   4.541  11.303  0.1403 -0.0354 -0.9257
14816TIP3   OH265938   6.136   0.460  13.743 -0.3505 -0.3373 -0.5077
14816TIP3    H165939   6.146   0.406  13.664  2.3315 -0.0329 -0.4355
14816TIP3    H265940   6.121   0.549  13.709  0.7532 -0.2146 -0.7103
14817TIP3   OH265941   1.590   3.278   2.310  0.4304  0.0728 -0.2204
14817TIP3    H165942   1.679   3.294   2.278  0.3629 -0.2436 -0.5698
14817TIP3    H265943   1.597   3.286   2.405  1.3056 -2.0775 -0.0604
14818TIP3   OH265944   6.289   4.376  12.241  0.2137  0.1672  0.0916
14818TIP3    H165945   6.267   4.349  12.152 -1.6792 -1.5815  1.0593
14818TIP3    H265946   6.378   4.342  12.255 -0.2444 -1.2920 -0.4486
14819TIP3   OH265947   4.506   2.181   2.650 -0.0829 -0.5140  0.1438
14819TIP3    H165948   4.435   2.120   2.629 -0.1715 -0.1534 -0.6032
14819TIP3    H265949   4.492   2.255   2.592  0.0630  0.1955  1.0045
14820TIP3   OH265950   0.784   6.228   2.846 -0.1239 -0.2345 -0.3354
14820TIP3    H165951   0.718   6.277   2.797 -0.3636 -1.8279 -1.6495
14820TIP3    H265952   0.736   6.153   2.882  0.7281 -0.8027 -0.3673
14821TIP3   OH265953   4.924   3.045  12.733 -0.6880  0.2900  0.0514
14821TIP3    H165954   4.960   3.042  12.822 -0.0401  0.8857 -0.1883
14821TIP3    H265955   4.974   3.114  12.689  0.4026 -1.3907 -1.3984
14822TIP3   OH265956   0.368   3.963  11.775 -0.6316 -0.4832  0.3272
14822TIP3    H165957   0.385   4.052  11.744 -2.0153  0.0413  1.0387
14822TIP3    H265958   0.295   3.933  11.721 -0.7418 -0.8648  0.6859
14823TIP3   OH265959   5.831   4.746   1.602  0.2813  0.3691 -0.6837
14823TIP3    H165960   5.736   4.756   1.614 -0.0487 -1.4761 -1.4706
14823TIP3    H265961   5.869   4.785   1.680 -1.2040  0.0349  0.2436
14824TIP3   OH265962   5.392   0.084  11.435  0.2354 -0.3834  0.5402
14824TIP3    H165963   5.445   0.049  11.364 -0.5591  0.3045 -0.4168
14824TIP3    H265964   5.328   0.015  11.454 -0.8147  0.1985 -0.7873
14825TIP3   OH265965   6.069   1.099  12.268 -0.2439  0.2666 -0.3905
14825TIP3    H165966   5.978   1.072  12.282 -0.1587 -1.1330 -2.2310
14825TIP3    H265967   6.067   1.150  12.187  0.8790 -1.5369 -1.5985
14826TIP3   OH265968   2.782   3.107  11.676 -0.0817 -0.7880 -0.0329
14826TIP3    H165969   2.762   3.160  11.598 -1.0116  2.6069  2.3982
14826TIP3    H265970   2.697   3.081  11.710  0.2970 -1.6106  0.2868
14827TIP3   OH265971   4.004   0.756   1.899 -0.0536  0.5316  0.2865
14827TIP3    H165972   4.035   0.736   1.811 -0.7225  0.2033  0.1239
14827TIP3    H265973   4.050   0.837   1.922  0.4258  0.4075 -0.2015
14828TIP3   OH265974   4.008   0.777   4.983  0.9089 -0.1719 -0.1211
14828TIP3    H165975   3.988   0.692   4.945  1.2083  0.1078 -0.9071
14828TIP3    H265976   4.067   0.759   5.055  0.7397 -0.6543 -0.1055
14829TIP3   OH265977   0.677   4.818   0.950 -0.1651 -0.1868  0.4000
14829TIP3    H165978   0.650   4.901   0.911 -1.4067  0.2037  2.0254
14829TIP3    H265979   0.656   4.751   0.885 -0.1501  0.6615 -0.4794
14830TIP3   OH265980   0.606   5.170  13.842  0.1674  0.2239 -1.0251
14830TIP3    H165981   0.560   5.254  13.835 -0.8511 -0.1309  0.8990
14830TIP3    H265982   0.698   5.195  13.854 -0.0006  1.0520 -1.4184
14831TIP3   OH265983   5.369   2.179   5.892  0.1036 -0.3550  0.1461
14831TIP3    H165984   5.436   2.180   5.960  0.2130 -2.1119  0.1060
14831TIP3    H265985   5.286   2.184   5.940  0.2164 -0.2653  0.3332
14832TIP3   OH265986   4.819   5.143   4.470 -0.2557  0.3843  0.1928
14832TIP3    H165987   4.800   5.236   4.460  0.2822  0.2828 -2.1542
14832TIP3    H265988   4.910   5.140   4.499 -0.6032  0.6092  1.3167
14833TIP3   OH265989   4.638   2.211  12.024  0.3407  0.7871  0.3529
14833TIP3    H165990   4.560   2.223  11.970  0.6671 -0.8109 -0.4948
14833TIP3    H265991   4.628   2.276  12.094 -1.7860  0.5674  0.3059
14834TIP3   OH265992   3.702   6.749   5.676 -0.0327 -0.3239  0.5646
14834TIP3    H165993   3.633   6.684   5.673 -0.7614  0.5077 -1.6317
14834TIP3    H265994   3.783   6.699   5.660 -0.5600 -0.7419 -0.8837
14835TIP3   OH265995   1.246   3.506  12.283 -0.5127  0.0548 -0.7577
14835TIP3    H165996   1.263   3.436  12.220  0.0129  0.9310 -1.6051
14835TIP3    H265997   1.303   3.578  12.255  0.2358  0.2249  1.1192
14836TIP3   OH265998   5.799   1.470  14.997  0.2308 -0.0704  0.2909
14836TIP3    H165999   5.721   1.519  14.975 -1.0859 -1.1696  2.3536
14836TIP3    H266000   5.817   1.493  15.088  1.8399 -0.4559  0.0880
14837TIP3   OH266001   1.025   4.975  15.818  0.0216  0.0895 -0.0816
14837TIP3    H166002   1.045   4.903  15.759  2.1643 -0.4997  1.3291
14837TIP3    H266003   0.962   4.939  15.881  2.2437 -1.0611  1.5531
14838TIP3   OH266004   5.448   1.383  12.404 -0.2928 -0.6385 -0.0431
14838TIP3    H166005   5.493   1.459  12.442 -0.0437  0.5505 -2.6119
14838TIP3    H266006   5.446   1.319  12.475  0.2564  1.4452  1.9208
14839TIP3   OH266007   2.910   5.750  14.358  0.2443  0.7583  0.5800
14839TIP3    H166008   2.981   5.767  14.296  0.1377  1.3437  0.6156
14839TIP3    H266009   2.890   5.657  14.347  1.2946  0.4982  0.8575
14840TIP3   OH266010   2.730   6.728  11.705  0.3557 -0.0921 -0.2119
14840TIP3    H166011   2.771   6.716  11.619  1.3978 -2.1465  0.5264
14840TIP3    H266012   2.796   6.772  11.757 -0.1306  0.7990 -0.3477
14841TIP3   OH266013   5.962   2.913  13.315  0.8944  0.8915 -0.3481
14841TIP3    H166014   5.877   2.957  13.309  0.2172 -0.5933 -2.2402
14841TIP3    H266015   5.948   2.844  13.379  0.2711 -0.1574 -1.5876
14842TIP3   OH266016   6.809   6.784   6.081 -0.6697  0.2404 -0.2114
14842TIP3    H166017   6.795   6.851   6.014 -0.7438  0.2777 -0.1581
14842TIP3    H266018   6.873   6.724   6.041 -0.3931  0.4947 -0.1508
14843TIP3   OH266019   6.134   1.480   0.057 -0.0389 -0.8230 -0.8436
14843TIP3    H166020   6.042   1.504   0.072 -0.2419 -2.0429 -0.1320
14843TIP3    H266021   6.143   1.481  -0.038 -0.9357 -1.2284 -0.9408
14844TIP3   OH266022   4.778   5.080  15.504 -0.2046  0.2658  0.1532
14844TIP3    H166023   4.835   5.028  15.561  0.1796  1.2956  0.7242
14844TIP3    H266024   4.808   5.061  15.416  1.1351  0.9110  0.4547
14845TIP3   OH266025   3.653   6.090   4.936 -0.6937 -0.4807 -0.0746
14845TIP3    H166026   3.620   6.094   4.847  0.1308 -0.5620 -0.3883
14845TIP3    H266027   3.592   6.143   4.987 -1.7315 -1.2385 -0.5089
14846TIP3   OH266028   0.643   0.265   1.841  0.1900 -0.3168 -0.1340
14846TIP3    H166029   0.591   0.345   1.846 -0.3162 -0.7154  1.0775
14846TIP3    H266030   0.705   0.282   1.770 -0.3216  0.9041 -0.3099
14847TIP3   OH266031   1.586   0.492  11.245 -0.0708  0.0755 -0.2609
14847TIP3    H166032   1.574   0.410  11.294 -0.7687  1.3452  1.7780
14847TIP3    H266033   1.507   0.542  11.263  0.5919  1.4203 -1.0412
14848TIP3   OH266034   1.101   5.727  15.014 -0.4156 -0.4433  0.9023
14848TIP3    H166035   1.057   5.708  14.932  0.9251  2.4305 -0.5499
14848TIP3    H266036   1.179   5.672  15.014 -0.7947 -0.9747  0.5949
14849TIP3   OH266037   3.130   0.661   5.763  0.1346 -0.2752 -0.5170
14849TIP3    H166038   3.136   0.756   5.751 -1.0041 -0.1579 -0.2105
14849TIP3    H266039   3.221   0.630   5.755  0.6403  0.9479  0.3807
14850TIP3   OH266040   2.073   4.275  12.851 -0.1704  0.0880  0.1819
14850TIP3    H166041   2.038   4.188  12.832  0.4035  0.0237 -0.6203
14850TIP3    H266042   2.073   4.281  12.946 -2.3044  0.0707  0.2122
14851TIP3   OH266043   6.102   3.422  11.551 -0.1361 -0.2367 -0.3335
14851TIP3    H166044   6.125   3.377  11.469 -1.4943  0.6953 -1.2312
14851TIP3    H266045   6.051   3.498  11.523 -1.6565 -0.5824  1.4564
14852TIP3   OH266046   2.968   6.447  15.350  0.3965 -0.0602  0.0463
14852TIP3    H166047   2.992   6.386  15.281 -0.1269 -1.0394  0.7134
14852TIP3    H266048   3.049   6.494  15.370  0.6407 -0.0506 -0.9508
14853TIP3   OH266049   5.957   3.729  16.338 -0.0202 -0.2477 -0.2355
14853TIP3    H166050   5.948   3.750  16.245  0.1436 -1.1992 -0.4718
14853TIP3    H266051   6.044   3.691  16.346 -0.2198 -0.6134  0.2230
14854TIP3   OH266052   3.774   3.738  13.690  0.1978  0.5955 -0.1746
14854TIP3    H166053   3.732   3.797  13.752  1.9271 -1.3144  2.9226
14854TIP3    H266054   3.717   3.661  13.687  0.4868  0.3877 -0.4390
14855TIP3   OH266055   3.206   0.780  11.317  0.3462 -0.0971  0.1044
14855TIP3    H166056   3.267   0.781  11.391 -0.4772 -1.2136  0.8110
14855TIP3    H266057   3.187   0.687  11.303 -0.6519  0.1999 -0.5635
14856TIP3   OH266058   3.746   0.979  16.916 -0.0034  0.0464  0.4603
14856TIP3    H166059   3.779   0.989  16.826 -0.5959  0.5883  0.3019
14856TIP3    H266060   3.661   1.023  16.915  0.2277  0.5119  1.4228
14857TIP3   OH266061   2.530   0.260   1.702  0.0316 -0.0940 -0.1137
14857TIP3    H166062   2.541   0.202   1.778 -1.9455  0.3308  0.5123
14857TIP3    H266063   2.437   0.254   1.681  0.6812 -0.8447 -3.0370
14858TIP3   OH266064   6.701   3.204   5.015  0.0314 -0.6334 -0.4143
14858TIP3    H166065   6.655   3.284   4.990  1.0431 -0.4187 -1.6142
14858TIP3    H266066   6.741   3.225   5.100  0.7988  0.3575 -1.0039
14859TIP3   OH266067   0.053   0.820  16.291  0.2693 -0.4826  0.0657
14859TIP3    H166068   0.076   0.732  16.319  0.7204 -1.1594 -2.2937
14859TIP3    H266069   0.007   0.807  16.208  1.6333  1.5938 -1.0526
14860TIP3   OH266070   2.194   2.596  12.938  0.7152 -0.3069 -0.0058
14860TIP3    H166071   2.226   2.586  12.848  1.5074 -1.5255  0.3949
14860TIP3    H266072   2.105   2.561  12.937  0.7524 -0.3895 -0.2952
14861TIP3   OH266073   3.021   5.783   5.439 -0.1083  0.2440 -0.5470
14861TIP3    H166074   2.967   5.705   5.420  0.2460  0.0547 -0.7715
14861TIP3    H266075   3.110   5.749   5.447  0.5136  1.0118 -3.5182
14862TIP3   OH266076   4.485   5.784   3.916 -0.3581 -0.2532 -0.0534
14862TIP3    H166077   4.525   5.775   4.002  1.9769  1.8294 -0.8369
14862TIP3    H266078   4.402   5.737   3.922 -0.4252  0.2127  3.4403
14863TIP3   OH266079   4.334   1.947   5.413 -0.2769 -0.3734 -0.0013
14863TIP3    H166080   4.326   2.012   5.343 -1.2171  0.7781  1.1687
14863TIP3    H266081   4.248   1.945   5.454  0.5920 -0.2265  1.8498
14864TIP3   OH266082   2.449   2.424  14.260 -0.2998  0.3016 -0.0155
14864TIP3    H166083   2.357   2.402  14.276 -1.1244  2.6742 -1.4332
14864TIP3    H266084   2.489   2.419  14.347 -1.8844 -0.0878  0.7188
14865TIP3   OH266085   4.961   5.612  14.805  0.2914  0.0444 -0.6527
14865TIP3    H166086   5.013   5.599  14.885 -0.6207  1.9538  0.2765
14865TIP3    H266087   5.025   5.605  14.734  1.0591 -2.0056  0.1900
14866TIP3   OH266088   3.833   1.507  15.774  0.1295  0.2113 -0.5907
14866TIP3    H166089   3.833   1.411  15.782 -0.0875  0.2483 -0.0639
14866TIP3    H266090   3.740   1.530  15.775  0.1607  0.3718 -1.4939
14867TIP3   OH266091   5.094   1.035   5.138 -0.1869  0.3995  0.3781
14867TIP3    H166092   5.057   0.950   5.113 -1.1966  0.8486  0.2990
14867TIP3    H266093   5.094   1.035   5.233  0.8930 -0.1395  0.3869
14868TIP3   OH266094   0.810   2.438  11.280  0.2156 -0.5378  0.0247
14868TIP3    H166095   0.849   2.520  11.310 -0.9845  0.0250  0.1134
14868TIP3    H266096   0.835   2.431  11.188 -0.2204  0.2775 -0.1634
14869TIP3   OH266097   5.455   4.395   0.884  0.1756 -0.3852 -0.0668
14869TIP3    H166098   5.486   4.482   0.861  0.5888  0.4242  3.3946
14869TIP3    H266099   5.360   4.400   0.873  0.3692 -0.0931 -1.7035
14870TIP3   OH266100   4.503   3.745  11.460 -0.3659  0.3469 -0.1231
14870TIP3    H166101   4.522   3.652  11.474 -1.9327  0.0329  0.0120
14870TIP3    H266102   4.449   3.770  11.534  1.2882  1.7820  0.6315
14871TIP3   OH266103   4.871   1.358   1.154 -0.7822  0.0311  0.2194
14871TIP3    H166104   4.835   1.445   1.172  0.1254  0.5890 -0.5993
14871TIP3    H266105   4.904   1.327   1.239 -0.5258  0.7699  0.3913
14872TIP3   OH266106   6.184   4.788   5.732 -0.0874  0.0645  0.8894
14872TIP3    H166107   6.222   4.700   5.741  2.5696  0.7122 -2.8768
14872TIP3    H266108   6.260   4.846   5.729 -1.7413  2.2858  1.3253
14873TIP3   OH266109   6.216   5.752   0.781 -0.4418  0.3912 -0.4459
14873TIP3    H166110   6.246   5.669   0.743 -2.4297 -1.1565  1.2388
14873TIP3    H266111   6.168   5.795   0.710  0.3737 -0.0015 -1.2487
14874TIP3   OH266112   0.153   2.756  10.807  0.3083 -0.1519  0.0497
14874TIP3    H166113   0.065   2.719  10.806  0.3833 -0.3550 -2.6554
14874TIP3    H266114   0.169   2.782  10.717  2.1564  2.0034  0.9453
14875TIP3   OH266115   3.265   1.557  12.762  0.2782  0.3460 -0.0005
14875TIP3    H166116   3.237   1.522  12.678 -0.7469  0.2690  0.3561
14875TIP3    H266117   3.358   1.575  12.752  0.3592 -0.5493 -0.8416
14876TIP3   OH266118   5.098   3.792   2.100 -0.0418 -0.9040 -0.0951
14876TIP3    H166119   5.047   3.866   2.133 -1.0467 -0.4732 -2.5000
14876TIP3    H266120   5.177   3.791   2.154 -0.9139  0.6848  1.2646
14877TIP3   OH266121   1.451   5.270   6.485  0.2842 -0.2716 -0.0957
14877TIP3    H166122   1.468   5.183   6.523  1.1416  0.2567  0.7595
14877TIP3    H266123   1.382   5.306   6.541 -0.0706 -0.3959 -0.4502
14878TIP3   OH266124   6.092   4.947   3.307 -0.2646  0.4399  0.3393
14878TIP3    H166125   6.159   4.967   3.242 -0.0429  0.0395  0.4387
14878TIP3    H266126   6.130   4.876   3.359 -0.6870  0.3434  0.5194
14879TIP3   OH266127   3.217   5.061   6.097  0.4110  0.6124 -0.4581
14879TIP3    H166128   3.227   5.150   6.130 -1.1068  1.4270 -2.0949
14879TIP3    H266129   3.181   5.072   6.009  2.3706 -1.5592 -1.5722
14880TIP3   OH266130   6.525   0.703   5.511  0.2366 -0.3396  0.4560
14880TIP3    H166131   6.549   0.611   5.507  0.9494 -0.2675  2.5295
14880TIP3    H266132   6.549   0.731   5.600  1.6616  2.2808 -0.6790
14881TIP3   OH266133   4.539   2.325   1.617 -0.1637 -0.1846  1.0978
14881TIP3    H166134   4.569   2.326   1.708 -2.2081  0.8191  1.7857
14881TIP3    H266135   4.616   2.351   1.566  0.7054  0.2960  2.6245
14882TIP3   OH266136   3.361   3.430   3.719 -0.5601 -0.6075 -0.0226
14882TIP3    H166137   3.278   3.474   3.703 -0.4534 -1.1914 -2.3262
14882TIP3    H266138   3.370   3.430   3.815 -2.4783  0.7663  0.1909
14883TIP3   OH266139   2.255   5.354   5.109  0.5536  0.4001 -0.3430
14883TIP3    H166140   2.332   5.302   5.086  1.8040  2.2092 -0.3939
14883TIP3    H266141   2.250   5.348   5.205 -0.9174 -1.9763 -0.5298
14884TIP3   OH266142   3.652   3.812  14.780  0.0605  0.1893  0.7729
14884TIP3    H166143   3.712   3.818  14.854  0.4737 -0.0171  0.4591
14884TIP3    H266144   3.702   3.844  14.706 -0.1354 -0.2094  0.4638
14885TIP3   OH266145   5.918   3.312   3.839 -0.1907 -0.0954 -0.6157
14885TIP3    H166146   5.975   3.281   3.910 -0.5409 -1.2102 -0.8135
14885TIP3    H266147   5.855   3.370   3.882 -0.8170 -1.2935  0.1019
14886TIP3   OH266148   5.496   0.458  12.603 -0.3407 -0.8728 -0.0937
14886TIP3    H166149   5.536   0.403  12.534  0.1929  1.1693 -1.4629
14886TIP3    H266150   5.551   0.442  12.680  0.8081 -1.0463 -0.9181
14887TIP3   OH266151   4.769   0.741   3.977  0.0320 -0.1485 -0.2429
14887TIP3    H166152   4.832   0.811   3.996 -0.0326 -0.2479  0.3714
14887TIP3    H266153   4.794   0.708   3.891  1.7804 -1.2134  0.6487
14888TIP3   OH266154   0.872   4.482   0.282  0.3426 -0.0270 -0.3177
14888TIP3    H166155   0.941   4.447   0.226 -1.7406 -1.4356 -2.0614
14888TIP3    H266156   0.829   4.548   0.228 -0.1075  0.3846  0.5308
14889TIP3   OH266157   1.472   0.891  13.542 -0.1793 -0.3720  0.2288
14889TIP3    H166158   1.443   0.838  13.469  0.0143 -1.8182  1.1811
14889TIP3    H266159   1.393   0.908  13.594 -0.0558 -0.6617  0.5139
14890TIP3   OH266160   6.030   5.484   3.236 -0.0556  0.3986  0.0643
14890TIP3    H166161   6.078   5.408   3.203 -0.7061  0.2275 -0.4886
14890TIP3    H266162   6.092   5.527   3.296  0.6597 -0.0176 -0.3664
14891TIP3   OH266163   3.692   4.797   4.402 -0.1371  0.6249  0.3600
14891TIP3    H166164   3.596   4.800   4.399 -0.0869  0.9698 -0.9496
14891TIP3    H266165   3.715   4.844   4.482 -0.9849  2.1173 -0.2637
14892TIP3   OH266166   0.035   5.642  13.197 -0.7586 -0.1070  0.1950
14892TIP3    H166167  -0.016   5.660  13.276 -0.1233 -1.1305  0.8521
14892TIP3    H266168  -0.029   5.646  13.126 -1.7100 -1.0622  0.9790
14893TIP3   OH266169   3.997   2.148  13.518 -0.3166 -0.5293  0.4028
14893TIP3    H166170   3.929   2.215  13.521  0.4917  0.3313 -0.2853
14893TIP3    H266171   3.966   2.085  13.453  0.0219  0.4022 -0.6724
14894TIP3   OH266172   3.596   1.476   4.133 -0.0456  0.3451  0.2235
14894TIP3    H166173   3.623   1.521   4.213  1.0112 -0.5051  0.3646
14894TIP3    H266174   3.565   1.390   4.163  1.6357 -0.5062 -0.3682
14895TIP3   OH266175   3.540   5.819  12.061 -0.8552  0.2119  0.1690
14895TIP3    H166176   3.562   5.818  12.154 -0.6966  0.3775  0.1343
14895TIP3    H266177   3.574   5.736  12.027 -0.2425  0.4771  0.1096
14896TIP3   OH266178   6.689   1.958   2.452 -0.2200 -0.4021  0.0262
14896TIP3    H166179   6.719   2.031   2.506 -0.4111  0.2138 -0.6985
14896TIP3    H266180   6.743   1.884   2.480  0.4411  0.1749  0.3003
14897TIP3   OH266181   3.898   1.238  16.755  0.4219 -0.0048  0.1419
14897TIP3    H166182   3.836   1.216  16.685  1.2350 -0.9122 -0.3012
14897TIP3    H266183   3.868   1.323  16.787  0.1314  0.5135 -1.4317
14898TIP3   OH266184   5.245   2.427   0.635  0.3623  0.4311  0.4079
14898TIP3    H166185   5.161   2.432   0.682  0.0853 -1.2557  0.1343
14898TIP3    H266186   5.297   2.365   0.686  0.9852  0.5307 -0.1075
14899TIP3   OH266187   6.319   2.831   6.612  0.6519 -0.3928  0.0728
14899TIP3    H166188   6.332   2.786   6.529 -1.4366  1.5295 -1.3965
14899TIP3    H266189   6.224   2.830   6.625  0.5169  3.2542  0.0671
14900TIP3   OH266190   2.205   0.079   4.881  0.0004  0.3572  0.2973
14900TIP3    H166191   2.138   0.018   4.850  0.6448  0.6401 -1.7702
14900TIP3    H266192   2.169   0.117   4.960 -1.2551 -1.2573  0.5180
14901TIP3   OH266193   4.453   3.067  13.690  0.1431  0.2094  0.1355
14901TIP3    H166194   4.445   3.036  13.780 -0.9417 -1.4011 -0.4978
14901TIP3    H266195   4.447   3.162  13.697  0.3382  0.1122  1.7924
14902TIP3   OH266196   1.517   0.001  12.705  0.1776  1.0161 -0.3399
14902TIP3    H166197   1.582   0.068  12.725 -0.2723  1.5795 -0.7441
14902TIP3    H266198   1.468   0.036  12.631 -0.7441  0.7141  0.1071
14903TIP3   OH266199   4.454   2.132  12.840  0.7485  0.6513  0.3392
14903TIP3    H166200   4.368   2.159  12.872  1.0085  0.8672  0.8684
14903TIP3    H266201   4.443   2.124  12.746  0.1768  0.7876  0.3883
14904TIP3   OH266202   2.833   4.529   3.563  0.1232  0.6230 -0.1348
14904TIP3    H166203   2.771   4.538   3.636  1.5353  1.6042  0.9819
14904TIP3    H266204   2.778   4.527   3.485 -1.4349 -0.5071  0.9539
14905TIP3   OH266205   0.530   1.164   0.024  0.3372 -0.0427 -0.0772
14905TIP3    H166206   0.440   1.138   0.007 -0.4157  1.9137  0.7265
14905TIP3    H266207   0.560   1.107   0.094  0.4532 -2.0897 -1.7348
14906TIP3   OH266208   4.233   5.517   1.815 -0.1536 -0.0028  0.1341
14906TIP3    H166209   4.141   5.534   1.796  0.2383  2.2566  0.0770
14906TIP3    H266210   4.254   5.578   1.886  0.5975 -2.4195  2.0877
14907TIP3   OH266211   1.628   2.348   4.268 -0.3133  0.3087  0.0586
14907TIP3    H166212   1.629   2.255   4.290 -0.0636  0.1226 -0.7311
14907TIP3    H266213   1.702   2.360   4.210  0.2147  1.1964  0.8933
14908TIP3   OH266214   1.019   4.549   1.328  0.5222  0.5279 -0.4006
14908TIP3    H166215   1.086   4.481   1.318  0.5915  0.6697 -0.9295
14908TIP3    H266216   1.041   4.614   1.261  1.1877  1.6862  0.9467
14909TIP3   OH266217   6.289   6.620   0.840 -0.4701 -0.0476  0.4821
14909TIP3    H166218   6.288   6.704   0.887 -0.6083 -0.5052  1.3026
14909TIP3    H266219   6.365   6.574   0.875 -1.3758 -0.9665  1.2962
14910TIP3   OH266220   5.801   0.911   2.757  0.2353  0.0390 -0.2898
14910TIP3    H166221   5.758   0.953   2.832 -0.3107  1.8737 -1.5642
14910TIP3    H266222   5.749   0.832   2.740  0.0744 -0.1235  0.9695
14911TIP3   OH266223   1.765   1.878   3.024 -0.5193 -0.1165  0.2924
14911TIP3    H166224   1.712   1.799   3.023 -1.5832  0.5780 -2.5231
14911TIP3    H266225   1.815   1.874   2.942 -0.3031  1.9220  0.2984
14912TIP3   OH266226   4.141   3.003  13.467  0.3785  0.2905 -0.1088
14912TIP3    H166227   4.055   2.976  13.499  0.8074  0.4098  1.1784
14912TIP3    H266228   4.199   2.931  13.489  0.6289  0.2566 -0.8777
14913TIP3   OH266229   1.932   3.604  12.975  0.5484 -0.5901 -0.3878
14913TIP3    H166230   1.884   3.610  12.893 -0.1189 -1.1165 -0.0467
14913TIP3    H266231   1.897   3.526  13.017 -1.8222  1.6627  2.0747
14914TIP3   OH266232   5.512   1.898  12.726 -0.0120  0.2025  0.5073
14914TIP3    H166233   5.497   1.806  12.744 -1.3456  0.1509 -0.7613
14914TIP3    H266234   5.564   1.929  12.800  1.2994 -1.7786  0.4493
14915TIP3   OH266235   2.422   2.118  17.220 -0.2379 -0.9227  0.5018
14915TIP3    H166236   2.486   2.138  17.288 -0.0092  0.2763 -0.0376
14915TIP3    H266237   2.471   2.125  17.138 -0.4292 -2.6772  0.2132
14916TIP3   OH266238   3.134   3.342  15.085  0.4474 -0.4107 -0.5892
14916TIP3    H166239   3.154   3.349  15.178  0.8810 -0.0722 -0.7062
14916TIP3    H266240   3.044   3.375  15.077  0.4642 -0.2965 -0.3154
14917TIP3   OH266241   0.309   5.944   0.883  0.1406  0.3110  0.0698
14917TIP3    H166242   0.335   5.907   0.798 -0.4306 -1.9294  0.8323
14917TIP3    H266243   0.365   5.899   0.946 -1.7968 -0.6009  1.1975
14918TIP3   OH266244   4.142   6.294   4.129 -0.4361  0.2690  0.2234
14918TIP3    H166245   4.184   6.285   4.043 -0.8841  0.4457 -0.0168
14918TIP3    H266246   4.211   6.325   4.187 -0.8825  3.2600 -0.7660
14919TIP3   OH266247   4.038   2.339  11.597  0.2842  0.1482 -0.4267
14919TIP3    H166248   3.970   2.305  11.654  0.1387 -0.0311 -0.7081
14919TIP3    H266249   3.998   2.416  11.555  0.7712  0.9638  0.5799
14920TIP3   OH266250   1.162   6.194  17.236 -0.0626  0.1396 -0.1780
14920TIP3    H166251   1.110   6.135  17.183  0.2934 -0.0543 -0.3127
14920TIP3    H266252   1.100   6.231  17.299 -0.5823  0.7440 -1.0377
14921TIP3   OH266253   1.000   0.326   0.508  0.1944 -0.5725 -0.1062
14921TIP3    H166254   0.907   0.318   0.488  0.3351  0.4095 -1.2157
14921TIP3    H266255   1.021   0.417   0.489  1.1081 -0.4668  1.3413
14922TIP3   OH266256   0.909   5.063   0.519  0.2035  0.1718  0.2035
14922TIP3    H166257   0.926   4.973   0.492  0.9165  0.1159  0.7946
14922TIP3    H266258   0.838   5.093   0.463 -0.0871 -0.7870  0.0531
14923TIP3   OH266259   5.038   6.384   5.408 -0.4453 -0.1890  0.4729
14923TIP3    H166260   4.980   6.450   5.446 -1.0818 -1.1949  1.2623
14923TIP3    H266261   5.048   6.412   5.317  0.7039  1.9601  1.2266
14924TIP3   OH266262   5.466   6.496  14.092 -0.6805 -0.6284  0.2002
14924TIP3    H166263   5.385   6.444  14.087  0.6561 -2.6911 -0.6978
14924TIP3    H266264   5.465   6.533  14.180 -2.9774  0.0359 -0.0482
14925TIP3   OH266265   1.562   3.232   0.535 -0.6360 -0.3760 -0.2167
14925TIP3    H166266   1.558   3.299   0.466 -1.3408 -0.9147 -0.7010
14925TIP3    H266267   1.563   3.282   0.616  0.7762  0.2857 -0.6145
14926TIP3   OH266268   5.517   6.386  13.311 -0.5135 -0.1897  0.2038
14926TIP3    H166269   5.470   6.378  13.394 -1.4089 -0.9453 -0.3624
14926TIP3    H266270   5.454   6.429  13.253 -0.4818 -1.1332 -0.5357
14927TIP3   OH266271   3.004   2.973   3.549  0.3693 -0.3253  0.0263
14927TIP3    H166272   3.060   2.930   3.485  0.3676  1.1550 -1.0217
14927TIP3    H266273   3.064   3.020   3.606  0.2592  1.0138 -0.9127
14928TIP3   OH266274   5.422   1.976   3.683  0.5164 -0.4908 -0.1478
14928TIP3    H166275   5.466   1.892   3.680  0.5859 -0.5478  1.7422
14928TIP3    H266276   5.455   2.018   3.762 -1.0691  0.4307  0.0608
14929TIP3   OH266277   5.624   5.716   1.708 -0.2848 -0.7944  0.3688
14929TIP3    H166278   5.599   5.710   1.616  1.5897  0.7811 -0.2757
14929TIP3    H266279   5.719   5.714   1.707 -0.2144  0.7593  2.1590
14930TIP3   OH266280   1.944   1.876   6.296 -0.9970 -0.0270 -0.5493
14930TIP3    H166281   1.910   1.955   6.254 -1.1508  0.7974  1.0721
14930TIP3    H266282   1.913   1.882   6.386  3.1013  0.6141  0.9610
14931TIP3   OH266283   3.549   3.677  17.084 -0.1504 -0.6495  0.7535
14931TIP3    H166284   3.537   3.737  17.010  0.3405 -0.8446  0.5086
14931TIP3    H266285   3.523   3.728  17.160  2.2195  0.6117  0.7958
14932TIP3   OH266286   2.988   1.933   5.289 -0.1372 -0.0655  0.2661
14932TIP3    H166287   2.995   2.026   5.264  0.0728  0.2178  1.3520
14932TIP3    H266288   3.003   1.886   5.208 -0.5801  0.8637 -0.3688
14933TIP3   OH266289   2.894   6.405  14.190  0.7307  0.0814 -0.7205
14933TIP3    H166290   2.824   6.446  14.139 -0.4290 -0.0855  0.6631
14933TIP3    H266291   2.850   6.334  14.237  1.8749 -0.1498  0.0199
14934TIP3   OH266292   5.183   5.941  12.640 -0.0534  0.2939 -0.4238
14934TIP3    H166293   5.240   5.887  12.694 -2.2017 -0.5110  1.0993
14934TIP3    H266294   5.108   5.884  12.621 -0.4650  1.3964 -2.2045
14935TIP3   OH266295   3.320   0.902   2.920  0.1778  0.0063  0.0572
14935TIP3    H166296   3.404   0.886   2.963 -0.9803 -2.2160  1.5689
14935TIP3    H266297   3.321   0.843   2.844  0.1446  0.2997 -0.1726
14936TIP3   OH266298   1.031   0.581   0.449  0.2087 -0.1860 -0.0033
14936TIP3    H166299   0.972   0.595   0.375 -0.4041  0.8462  0.6682
14936TIP3    H266300   1.069   0.668   0.466  2.2415 -0.9139 -0.6879
14937TIP3   OH266301   2.207   6.431  16.861  0.1983  0.2697 -0.2268
14937TIP3    H166302   2.253   6.480  16.929  0.5014  3.5694 -2.6770
14937TIP3    H266303   2.257   6.447  16.782 -2.9081  0.6318 -2.1844
14938TIP3   OH266304   3.947   6.596  13.520  0.6785 -0.3538  0.2054
14938TIP3    H166305   4.008   6.522  13.527  2.5052  0.9463 -1.4757
14938TIP3    H266306   3.996   6.663  13.472 -1.5398  1.3271  0.2222
14939TIP3   OH266307   3.057   1.925   6.170  0.7791  0.2736 -0.2423
14939TIP3    H166308   3.106   1.921   6.252 -0.3315  1.1055  0.4896
14939TIP3    H266309   2.973   1.884   6.190  1.0217 -0.8038 -1.3746
14940TIP3   OH266310   1.334   6.801  16.250  0.8416 -1.1082  0.1389
14940TIP3    H166311   1.265   6.823  16.187  0.7953 -2.6553 -0.3659
14940TIP3    H266312   1.405   6.766  16.196  1.8412 -0.0092  0.7117
14941TIP3   OH266313   1.028   2.138  15.800  0.5396  0.1319 -0.0519
14941TIP3    H166314   1.070   2.056  15.775  1.4369  0.3809  0.6136
14941TIP3    H266315   0.941   2.134  15.760  0.5987 -1.1185 -0.0588
14942TIP3   OH266316   0.077   2.142   2.537 -0.0316  0.3580  0.1506
14942TIP3    H166317   0.096   2.187   2.455 -2.7041  2.1037  0.4168
14942TIP3    H266318   0.142   2.073   2.543  1.2180  1.2499 -2.6259
14943TIP3   OH266319   6.302   3.524   4.706 -0.3120  0.5203  0.6272
14943TIP3    H166320   6.313   3.569   4.790 -0.6410 -0.6790  1.3326
14943TIP3    H266321   6.215   3.485   4.711 -0.0064 -0.2460  0.0653
14944TIP3   OH266322   4.819   6.640   2.917 -0.6561 -0.7762 -0.5792
14944TIP3    H166323   4.725   6.654   2.904  0.0456  2.0196 -3.4635
14944TIP3    H266324   4.842   6.699   2.989 -0.8188 -0.1440 -1.0391
14945TIP3   OH266325   5.610   6.793  16.571  0.2832 -0.1853  0.3521
14945TIP3    H166326   5.648   6.707  16.591  1.2644  0.3737  0.9451
14945TIP3    H266327   5.594   6.832  16.657 -1.7982 -0.4631  0.1178
14946TIP3   OH266328   1.136   6.756   3.985  0.2013 -0.1548  0.2057
14946TIP3    H166329   1.046   6.730   4.002  0.7780 -3.3321 -1.1463
14946TIP3    H266330   1.189   6.685   4.022  2.0124  0.3367 -1.3466
14947TIP3   OH266331   1.389   0.342  15.012 -0.4243 -0.1310  0.5851
14947TIP3    H166332   1.370   0.310  14.924  0.5485 -1.1309  0.7230
14947TIP3    H266333   1.477   0.309  15.031  0.2606  1.8921  1.0890
14948TIP3   OH266334   2.947   5.144   5.201 -0.0682 -0.3325  0.1130
14948TIP3    H166335   2.912   5.184   5.121  0.5895  0.0197  0.0005
14948TIP3    H266336   2.873   5.145   5.262 -0.3046  0.2679 -0.1753
14949TIP3   OH266337   4.607   3.854  11.764 -0.6123 -0.0801  0.0901
14949TIP3    H166338   4.673   3.790  11.737  1.1900  1.9851 -0.5783
14949TIP3    H266339   4.529   3.831  11.714  0.3386 -1.1133 -0.9321
14950TIP3   OH266340   2.439   3.549  14.442 -0.5991 -0.0264  0.3980
14950TIP3    H166341   2.490   3.566  14.363  0.3889 -2.2675  0.5246
14950TIP3    H266342   2.479   3.605  14.508  0.1338  0.0409 -0.0897
14951TIP3   OH266343   0.967   0.153   0.156 -0.4582 -0.0774  0.2455
14951TIP3    H166344   0.895   0.106   0.199 -1.0917  1.1686  0.5770
14951TIP3    H266345   0.965   0.121   0.066 -0.1033 -1.5695  0.7423
14952TIP3   OH266346   2.605   0.959  15.685  0.1413  0.0620  0.3543
14952TIP3    H166347   2.577   1.019  15.615  1.7277  1.6144  1.0261
14952TIP3    H266348   2.678   0.910  15.648 -0.1630 -0.3700  0.3239
14953TIP3   OH266349   5.205   1.375   0.137  0.3635  0.6845 -0.2627
14953TIP3    H166350   5.261   1.397   0.063 -0.3167  0.6982 -0.7855
14953TIP3    H266351   5.254   1.308   0.185  0.9812  0.9553 -0.5059
14954TIP3   OH266352   6.765   1.079  16.819 -0.1975  0.0653 -0.4313
14954TIP3    H166353   6.719   1.086  16.735  0.0230  0.6723 -0.5106
14954TIP3    H266354   6.852   1.047  16.796 -0.1064  0.3221 -0.4454
14955TIP3   OH266355   0.084   2.882  16.566 -0.1483 -0.0755  0.2416
14955TIP3    H166356   0.112   2.842  16.484 -2.0460  0.4484 -0.7002
14955TIP3    H266357   0.112   2.973  16.560  1.1581 -0.4174  0.9098
14956TIP3   OH266358   2.740   6.093   3.786 -0.1912 -0.0762  0.2527
14956TIP3    H166359   2.676   6.035   3.746  0.4982 -0.1326 -0.7862
14956TIP3    H266360   2.703   6.181   3.776  0.4383  0.0155 -1.4432
14957TIP3   OH266361   0.671   4.184   2.251  0.0116  0.4988  0.2755
14957TIP3    H166362   0.663   4.271   2.290  2.5895  1.1914 -0.6727
14957TIP3    H266363   0.663   4.199   2.157 -0.5628 -0.4400  0.1658
14958TIP3   OH266364   0.165   6.010  14.360 -0.8477 -0.1685 -0.5056
14958TIP3    H166365   0.203   5.979  14.442 -2.3380 -1.5969 -0.3534
14958TIP3    H266366   0.239   6.051  14.314 -0.1063  1.0921  1.7339
14959TIP3   OH266367   0.084   2.400   4.951 -0.5922  0.1030  0.0819
14959TIP3    H166368   0.091   2.458   5.027 -3.7208 -0.4829  0.8839
14959TIP3    H266369   0.103   2.313   4.986 -0.0418  0.0823 -0.2558
14960TIP3   OH266370   6.078   0.252   2.346 -0.1970 -0.1171 -0.0825
14960TIP3    H166371   6.007   0.280   2.404 -1.1049 -2.4349 -0.0186
14960TIP3    H266372   6.158   0.281   2.390 -1.0431  1.5963  0.3661
14961TIP3   OH266373   0.660   5.546  14.603 -0.2217  0.7794  0.3453
14961TIP3    H166374   0.743   5.503  14.621 -0.4311 -0.3677 -1.3080
14961TIP3    H266375   0.595   5.496  14.653 -0.0384  1.2105  1.0296
14962TIP3   OH266376   5.963   0.704   5.754  0.0385 -0.1496 -0.2400
14962TIP3    H166377   5.924   0.791   5.750  1.8787  0.6877 -0.6138
14962TIP3    H266378   6.027   0.703   5.683  0.1341 -1.7541 -0.1409
14963TIP3   OH266379   2.406   4.224  15.185 -0.1232 -0.5281  0.0945
14963TIP3    H166380   2.341   4.155  15.168  0.1689 -1.6000  3.0880
14963TIP3    H266381   2.374   4.269  15.263  1.6062  0.3627  0.3214
14964TIP3   OH266382   6.600   4.601  15.757 -0.1411 -0.0925  0.2462
14964TIP3    H166383   6.545   4.553  15.819 -0.9993 -2.1707 -2.0546
14964TIP3    H266384   6.642   4.669  15.810 -2.2060 -0.6796  2.7403
14965TIP3   OH266385   6.039   4.094   0.498 -0.3291 -0.1954 -0.1497
14965TIP3    H166386   6.106   4.114   0.432  0.1581 -1.1977  0.0290
14965TIP3    H266387   5.958   4.129   0.462  0.2890  1.0356 -0.3754
14966TIP3   OH266388   3.844   3.680  12.814  0.4339  0.0509 -0.0582
14966TIP3    H166389   3.820   3.614  12.879 -1.1121  0.7965  0.1546
14966TIP3    H266390   3.850   3.761  12.864 -0.4273  0.5667 -0.7675
14967TIP3   OH266391   3.658   1.302  12.134  0.2181  0.3554 -0.3712
14967TIP3    H166392   3.661   1.327  12.226 -1.5922 -0.1405 -0.1541
14967TIP3    H266393   3.728   1.353  12.093  1.1517  0.4452  1.2981
14968TIP3   OH266394   2.785   3.481   0.632  0.2363  0.2868 -0.3040
14968TIP3    H166395   2.727   3.418   0.588  0.8501  0.2751 -1.1084
14968TIP3    H266396   2.864   3.432   0.652 -0.0591  0.2780  0.8857
14969TIP3   OH266397   3.829   4.037  12.190 -0.1008 -0.2617 -0.2297
14969TIP3    H166398   3.829   4.123  12.147  0.9664  0.0119  0.3146
14969TIP3    H266399   3.782   4.052  12.272 -0.9768 -0.4810 -0.6869
14970TIP3   OH266400   3.713   1.357  12.392 -0.1916 -0.1003  0.2481
14970TIP3    H166401   3.771   1.282  12.406 -0.7925 -0.8086 -0.9787
14970TIP3    H266402   3.639   1.341  12.450 -0.6558 -0.8377 -0.5309
14971TIP3   OH266403   2.472   3.144   5.651  0.6972 -0.0258 -0.0225
14971TIP3    H166404   2.446   3.066   5.699 -0.5162  0.5357  0.2454
14971TIP3    H266405   2.540   3.113   5.591  0.5503 -1.1934  0.3927
14972TIP3   OH266406   6.138   5.285   1.478 -0.2104  0.2719 -0.0893
14972TIP3    H166407   6.198   5.237   1.420 -0.9695  0.1372 -0.7638
14972TIP3    H266408   6.149   5.377   1.453  0.3172  0.3387  0.3552
14973TIP3   OH266409   3.740   3.923   5.741 -0.0327 -0.5094 -0.2577
14973TIP3    H166410   3.717   3.934   5.833 -0.2246  1.8250 -0.5426
14973TIP3    H266411   3.691   3.846   5.712  0.5465 -1.6561  1.7413
14974TIP3   OH266412   1.984   0.278   3.942  0.7793 -0.1155 -0.1254
14974TIP3    H166413   1.920   0.302   3.875  0.3457  0.6832  0.5678
14974TIP3    H266414   1.931   0.244   4.014  1.1152  0.7571  0.5383
14975TIP3   OH266415   3.639   4.403   3.054 -0.1775 -0.3058 -0.3937
14975TIP3    H166416   3.654   4.483   3.004 -0.6762  0.3120  0.4550
14975TIP3    H266417   3.544   4.394   3.058 -0.1247 -0.8670 -0.3621
14976TIP3   OH266418   1.735   2.220   6.410 -0.2489 -0.0462  0.0999
14976TIP3    H166419   1.675   2.279   6.364 -0.2908 -0.3029 -0.1710
14976TIP3    H266420   1.701   2.217   6.500 -0.3546  0.1976  0.0694
14977TIP3   OH266421   2.148   6.079  15.752  0.3544 -0.4211 -0.1789
14977TIP3    H166422   2.239   6.070  15.780  0.1470 -1.9815  0.0357
14977TIP3    H266423   2.098   6.025  15.813 -0.5407 -0.7088 -1.1402
14978TIP3   OH266424   6.133   3.235  16.136  0.1960  0.3387 -0.4064
14978TIP3    H166425   6.132   3.288  16.215 -0.6191  0.7360 -0.6723
14978TIP3    H266426   6.057   3.177  16.145  0.6405 -0.2535 -0.4674
14979TIP3   OH266427   4.683   0.798  16.416  0.7095 -0.0805  0.1880
14979TIP3    H166428   4.757   0.813  16.474  1.3099 -0.3487 -0.5028
14979TIP3    H266429   4.704   0.848  16.337 -0.2967  0.6248  0.3509
14980TIP3   OH266430   1.865   3.450  13.335 -0.3631  0.7484 -0.3478
14980TIP3    H166431   1.958   3.451  13.357 -0.4705  2.4451  0.1431
14980TIP3    H266432   1.822   3.411  13.411 -0.1271  0.6988 -0.2406
14981TIP3   OH266433   0.757   1.592  14.391 -0.7056  0.1405  0.1966
14981TIP3    H166434   0.843   1.552  14.402 -1.3042 -0.8952  1.2715
14981TIP3    H266435   0.747   1.604  14.297 -0.1475 -1.4598 -0.0767
14982TIP3   OH266436   3.027   2.377  12.606  0.0906 -0.4213 -0.0305
14982TIP3    H166437   3.031   2.292  12.648 -0.8354  0.0646  1.0548
14982TIP3    H266438   3.117   2.411  12.610 -0.0390 -0.2720  1.7665
14983TIP3   OH266439   2.898   2.029  15.620 -0.4050  0.2900 -0.1171
14983TIP3    H166440   2.961   1.988  15.561 -0.6471 -2.1886  1.2735
14983TIP3    H266441   2.826   1.965  15.626 -1.4906  1.5864  0.9299
14984TIP3   OH266442   5.497   4.138  14.738  0.1667  0.5126 -0.2179
14984TIP3    H166443   5.508   4.233  14.735  0.6959  0.5093  1.2939
14984TIP3    H266444   5.554   4.105  14.668 -1.8763  1.4296 -2.3911
14985TIP3   OH266445   2.766   4.376  16.631 -0.0571  0.4661 -0.4710
14985TIP3    H166446   2.693   4.316  16.645  1.6694 -1.3440  1.1864
14985TIP3    H266447   2.726   4.457  16.602 -2.6418 -0.7790 -0.4935
14986TIP3   OH266448   1.513   5.573  12.070  0.1914  0.4174  0.5618
14986TIP3    H166449   1.476   5.661  12.065  0.7240  0.6739  1.0804
14986TIP3    H266450   1.494   5.543  12.159  0.7316  0.3272  0.6482
14987TIP3   OH266451   1.650   3.791   4.142 -0.2607  0.1356  0.0857
14987TIP3    H166452   1.628   3.834   4.060 -0.9224 -0.9406 -0.3001
14987TIP3    H266453   1.592   3.715   4.147 -0.3855  0.3131  1.6513
14988TIP3   OH266454   1.083   4.750  17.080  0.1402 -0.2159 -0.1071
14988TIP3    H166455   1.091   4.735  17.174  1.0297 -1.0012 -0.2992
14988TIP3    H266456   1.111   4.840  17.067  1.8718 -0.7110  0.1341
14989TIP3   OH266457   4.746   5.913  12.017 -0.0414 -0.2167  0.1452
14989TIP3    H166458   4.787   5.965  11.948 -1.7424  0.0292 -0.7041
14989TIP3    H266459   4.776   5.824  12.001 -1.0481 -0.2816 -1.3737
14990TIP3   OH266460   2.928   6.813  11.857  0.3597  0.0572 -0.3843
14990TIP3    H166461   2.990   6.757  11.812  0.4052  0.7974 -1.2420
14990TIP3    H266462   2.982   6.880  11.900  0.2170  0.1687 -0.3780
14991TIP3   OH266463   1.953   5.382   2.346  0.4247 -0.2022  0.6080
14991TIP3    H166464   1.968   5.352   2.257  1.1253  0.8995  0.3358
14991TIP3    H266465   1.995   5.316   2.401  0.5203 -0.5674  0.1005
14992TIP3   OH266466   3.276   2.590   5.958  1.0973  0.5455 -0.0752
14992TIP3    H166467   3.249   2.681   5.946  2.7923  0.9149 -1.3038
14992TIP3    H266468   3.323   2.590   6.042  2.1394  1.0702 -0.6460
14993TIP3   OH266469   6.485   6.104  15.069 -0.8284  1.4080  0.1961
14993TIP3    H166470   6.556   6.043  15.048 -0.8940  1.3737  0.0777
14993TIP3    H266471   6.475   6.095  15.164 -1.7494  0.2328 -0.0001
14994TIP3   OH266472   0.781   3.903  11.167  0.0442 -0.5761 -0.0443
14994TIP3    H166473   0.778   3.936  11.078 -0.6487  0.3658  0.3226
14994TIP3    H266474   0.824   3.973  11.217  1.1151 -1.4136  0.2247
14995TIP3   OH266475   3.761   4.469  13.005  0.7844  0.1149 -0.3341
14995TIP3    H166476   3.742   4.562  13.007  2.3143  0.4709 -1.2033
14995TIP3    H266477   3.828   4.457  13.072 -0.7779 -0.7218  1.1287
14996TIP3   OH266478   6.712   2.040   0.651 -0.6622 -0.7482 -0.5573
14996TIP3    H166479   6.683   2.011   0.564  0.8132  2.9286 -2.4235
14996TIP3    H266480   6.650   2.108   0.675  0.4003 -0.0057  0.1041
14997TIP3   OH266481   2.493   4.850  16.390 -0.3411  0.0076 -0.5471
14997TIP3    H166482   2.567   4.886  16.439 -0.2579  0.0975 -0.7377
14997TIP3    H266483   2.512   4.874  16.299  0.1492 -1.2499 -0.7832
14998TIP3   OH266484   0.396   3.450   5.496  0.1092 -0.5941  0.4375
14998TIP3    H166485   0.461   3.518   5.478 -2.4629  1.7861 -0.2826
14998TIP3    H266486   0.375   3.413   5.410  2.2906 -3.1573  0.9343
14999TIP3   OH266487   3.953   5.783  13.456  0.2882 -0.5389 -0.0449
14999TIP3    H166488   3.989   5.862  13.416 -1.5946  0.3092 -0.0866
14999TIP3    H266489   3.952   5.801  13.550 -1.6829  0.1415 -0.1883
15000TIP3   OH266490   2.848   0.332  13.606 -0.3865 -0.1863  0.1426
15000TIP3    H166491   2.772   0.276  13.618 -1.8762  1.8424  0.4550
15000TIP3    H266492   2.812   0.421  13.601  1.6743  0.5928 -2.5380
15001TIP3   OH266493   4.951   6.062  15.801  0.1509  0.1920  0.2901
15001TIP3    H166494   4.955   6.095  15.891  2.6949 -2.3899  1.2111
15001TIP3    H266495   4.883   5.994  15.803 -0.6689  0.9856 -0.0780
15002TIP3   OH266496   4.278   6.105  14.329 -0.0368  0.0721  0.3733
15002TIP3    H166497   4.263   6.096  14.235 -1.0469  1.2446  0.4039
15002TIP3    H266498   4.373   6.113  14.337 -0.0740  2.0490 -0.7602
15003TIP3   OH266499   3.027   4.140  16.068 -0.2671  0.7236  0.3709
15003TIP3    H166500   2.971   4.169  15.996  0.0523 -1.2204 -0.6975
15003TIP3    H266501   2.999   4.192  16.143 -1.4721  1.8847 -0.8521
15004TIP3   OH266502   6.364   1.690   0.590 -0.4951 -0.0365 -0.4771
15004TIP3    H166503   6.305   1.722   0.521 -0.6722 -0.6051 -0.5879
15004TIP3    H266504   6.363   1.595   0.581 -1.9204 -0.2277  1.4653
15005TIP3   OH266505   0.376   0.606   6.161 -0.6989 -0.3395 -0.1300
15005TIP3    H166506   0.412   0.600   6.249 -0.4939  0.0967 -0.1768
15005TIP3    H266507   0.342   0.695   6.155  0.2807  0.0068 -0.8476
15006TIP3   OH266508   0.303   0.478  13.920 -0.0039 -0.2923 -0.6267
15006TIP3    H166509   0.339   0.460  14.007 -0.0175 -1.9794 -0.9527
15006TIP3    H266510   0.377   0.514  13.870  0.1790  0.0282 -0.1348
15007TIP3   OH266511   3.495   2.803  16.766  0.0886  0.6612 -0.2186
15007TIP3    H166512   3.557   2.738  16.732 -0.5343 -0.7338  1.2504
15007TIP3    H266513   3.455   2.760  16.842 -1.0463  2.4042  0.1834
15008TIP3   OH266514   3.619   5.910  12.685  0.3580  0.1152  0.0624
15008TIP3    H166515   3.559   5.896  12.611 -0.3693  0.7237  0.5286
15008TIP3    H266516   3.595   5.996  12.719  0.7482 -0.1192  0.9478
15009TIP3   OH266517   4.774   6.214   3.791 -0.1346 -0.7717 -0.1576
15009TIP3    H166518   4.688   6.172   3.784 -0.4640 -0.2184  0.5042
15009TIP3    H266519   4.763   6.299   3.748 -0.2299 -0.2436  0.9069
15010TIP3   OH266520   1.566   0.117  12.257 -0.0964 -0.2309 -0.3799
15010TIP3    H166521   1.499   0.139  12.192 -0.6089  1.3336  0.6509
15010TIP3    H266522   1.618   0.197  12.266  1.2686 -1.1025 -0.4014
15011TIP3   OH266523   2.849   3.991   0.427 -0.0573 -0.8252  0.0314
15011TIP3    H166524   2.849   3.908   0.475  0.1773 -1.0976 -0.4321
15011TIP3    H266525   2.925   4.039   0.461 -1.3241  0.0381  1.7134
15012TIP3   OH266526   6.418   2.074  11.454 -0.4805 -0.0941 -0.2436
15012TIP3    H166527   6.488   2.117  11.503 -0.2442 -1.4038  0.5760
15012TIP3    H266528   6.343   2.133  11.463 -0.7035 -0.7227  2.4414
15013TIP3   OH266529   3.956   5.304   1.386 -0.2252 -0.5947  0.2796
15013TIP3    H166530   3.980   5.272   1.473 -1.1737  1.4739  1.3546
15013TIP3    H266531   4.039   5.320   1.342  0.2627 -1.6488  0.7893
15014TIP3   OH266532   2.055   3.362  14.960 -0.2276  0.1032  0.3067
15014TIP3    H166533   2.013   3.278  14.945  0.0988  0.1397 -0.8511
15014TIP3    H266534   2.137   3.357  14.911 -0.7739  1.5384 -0.7888
15015TIP3   OH266535   5.388   3.262  13.686 -0.4224 -0.5796 -0.2006
15015TIP3    H166536   5.463   3.243  13.743  0.1999 -2.9654 -1.7402
15015TIP3    H266537   5.414   3.339  13.637  0.5423 -0.6656  0.1599
15016TIP3   OH266538   4.709   6.526   1.596 -0.1055 -0.5035  0.0748
15016TIP3    H166539   4.656   6.490   1.667  2.2551 -2.6447  0.8247
15016TIP3    H266540   4.655   6.515   1.517 -0.8314 -2.5257  0.8244
15017TIP3   OH266541   6.161   4.488   1.647 -0.4485 -0.0621  0.1150
15017TIP3    H166542   6.243   4.537   1.647 -1.3254  1.4379 -0.9228
15017TIP3    H266543   6.172   4.424   1.577  0.7657 -1.5349  1.5885
15018TIP3   OH266544   5.769   6.015   5.379 -0.4029 -0.6187 -0.1701
15018TIP3    H166545   5.714   5.958   5.433  0.7856 -0.3272  1.3674
15018TIP3    H266546   5.758   6.102   5.417 -1.3163  0.0087 -1.8050
15019TIP3   OH266547   5.476   2.444  13.624 -0.2314 -0.0422 -0.2191
15019TIP3    H166548   5.419   2.433  13.548  0.9276 -1.1763 -0.9360
15019TIP3    H266549   5.498   2.355  13.652 -2.5235  0.3045  2.9167
15020TIP3   OH266550   6.172   6.346  12.131 -0.2464  0.2263 -0.3103
15020TIP3    H166551   6.184   6.310  12.044 -0.2835 -0.3571 -0.0738
15020TIP3    H266552   6.230   6.295  12.187 -0.8325  0.0511  0.1471
15021TIP3   OH266553   4.847   0.795  15.579 -0.3394 -0.2284  0.1211
15021TIP3    H166554   4.927   0.843  15.555  0.5898 -1.3772  0.8352
15021TIP3    H266555   4.793   0.798  15.501 -0.0565  1.4938 -0.0329
15022TIP3   OH266556   2.807   4.582   1.203  0.7176 -0.3585  0.5075
15022TIP3    H166557   2.867   4.596   1.277 -0.9041 -0.0444  1.7897
15022TIP3    H266558   2.816   4.662   1.151  2.7981 -1.1014 -0.3435
15023TIP3   OH266559   5.981   3.239   5.504  0.2480 -0.0761  0.1685
15023TIP3    H166560   5.933   3.315   5.536 -0.1712 -0.2062 -0.1417
15023TIP3    H266561   6.062   3.238   5.555 -0.1081  0.1127  0.7345
15024TIP3   OH266562   5.446   5.211  11.630  0.2987  0.5864  0.3622
15024TIP3    H166563   5.404   5.297  11.628 -2.5735 -0.7718 -1.4626
15024TIP3    H266564   5.451   5.184  11.538  2.0165 -0.8011  0.8315
15025TIP3   OH266565   2.937   0.517   6.083 -0.4585 -0.0818 -0.5161
15025TIP3    H166566   3.030   0.540   6.083 -0.3647 -0.3983 -2.0435
15025TIP3    H266567   2.935   0.423   6.101 -0.4576 -0.1194 -0.7042
15026TIP3   OH266568   0.962   3.950   0.073  0.0544 -0.0185  0.1533
15026TIP3    H166569   0.960   4.035   0.119  1.3849  0.5206 -0.7731
15026TIP3    H266570   0.973   3.973  -0.019 -0.2561 -1.1963 -0.1815
15027TIP3   OH266571   3.940   5.871  16.395  0.1483  0.8996 -0.2009
15027TIP3    H166572   3.929   5.883  16.489  0.8826 -0.8894  0.1470
15027TIP3    H266573   3.924   5.957  16.357 -0.8413  1.4878  1.4968
15028TIP3   OH266574   2.382   1.021   3.984 -0.6811  0.2661 -0.2540
15028TIP3    H166575   2.332   0.977   4.052 -0.5273 -0.3917 -0.5580
15028TIP3    H266576   2.355   0.978   3.903  2.8578 -2.5054 -0.1025
15029TIP3   OH266577   0.274   3.110  15.160  0.6645  0.0253 -0.5125
15029TIP3    H166578   0.298   3.184  15.215  0.0480 -0.4743  0.4452
15029TIP3    H266579   0.239   3.149  15.081  0.8815  0.7561 -0.2492
15030TIP3   OH266580   1.332   2.867   0.322  0.3309  0.1611  0.0874
15030TIP3    H166581   1.409   2.871   0.265  1.3170  0.9701  1.4323
15030TIP3    H266582   1.301   2.957   0.328  0.3780  0.1242  1.0053
15031TIP3   OH266583   4.632   5.021   0.151 -0.1936  0.1418 -0.1743
15031TIP3    H166584   4.683   4.991   0.227 -1.3366 -2.3649 -0.3389
15031TIP3    H266585   4.566   5.079   0.189 -1.2565 -1.7147  0.8726
15032TIP3   OH266586   6.315   1.432   4.384  0.1420  0.5696 -0.0327
15032TIP3    H166587   6.338   1.504   4.326  2.5593  0.3608  0.6154
15032TIP3    H266588   6.286   1.362   4.325  0.0916  1.2416 -0.8090
15033TIP3   OH266589   0.195   3.502   1.728 -0.1576 -0.0552 -0.2209
15033TIP3    H166590   0.118   3.557   1.733  0.4106  0.6479  0.8558
15033TIP3    H266591   0.174   3.425   1.781  0.2877  0.6458  0.9948
15034TIP3   OH266592   5.004   4.990  13.417  0.1829 -0.1334  0.0423
15034TIP3    H166593   4.988   4.919  13.479 -1.6298 -0.7694 -1.0976
15034TIP3    H266594   5.034   4.946  13.337 -0.9380  0.3409 -0.6647
15035TIP3   OH266595   6.128   6.787   3.424  0.3396 -0.4520 -0.0461
15035TIP3    H166596   6.165   6.745   3.346  2.2780  1.1440 -0.0193
15035TIP3    H266597   6.108   6.876   3.396 -0.1744 -0.2515  0.9442
15036TIP3   OH266598   3.527   5.006  13.635 -0.4388  0.1413  0.7790
15036TIP3    H166599   3.558   5.075  13.694  0.3860  0.5858 -0.1744
15036TIP3    H266600   3.548   5.038  13.548 -2.6991  0.0150  0.1555
15037TIP3   OH266601   6.785   2.585  13.218  0.0298  0.2515  0.2518
15037TIP3    H166602   6.873   2.568  13.184 -0.1759 -0.9502  0.3066
15037TIP3    H266603   6.791   2.672  13.257  0.5741  1.1819 -1.8288
15038TIP3   OH266604   1.911   6.135  13.255 -0.3386  0.3615  0.2241
15038TIP3    H166605   1.890   6.049  13.219  1.7173 -0.0968  0.0684
15038TIP3    H266606   1.928   6.190  13.178  0.5197  0.3167  0.3741
15039TIP3   OH266607   4.649   0.071  12.945 -0.2383 -0.5550  0.5872
15039TIP3    H166608   4.717   0.077  12.878 -1.7784 -0.1584 -0.9832
15039TIP3    H266609   4.696   0.069  13.028  1.6055  1.9418 -0.3434
15040TIP3   OH266610   2.712   4.724  12.673 -0.3294  0.0992 -0.1349
15040TIP3    H166611   2.783   4.782  12.646 -0.8812  0.7104 -0.2659
15040TIP3    H266612   2.756   4.654  12.723  0.2247  1.0728  0.7517
15041TIP3   OH266613   3.853   3.365   4.161 -0.1515 -0.7023  0.0805
15041TIP3    H166614   3.828   3.428   4.094 -0.7008 -1.4994 -0.4850
15041TIP3    H266615   3.770   3.339   4.201 -0.1053 -2.2111 -0.7505
15042TIP3   OH266616   4.600   0.647   3.633  0.0624  0.2703 -0.2869
15042TIP3    H166617   4.582   0.700   3.555  0.1325 -0.4295 -0.7832
15042TIP3    H266618   4.693   0.660   3.651  0.3755 -0.6737 -1.1646
15043TIP3   OH266619   3.014   1.367  15.199 -0.5194 -0.2357  0.0496
15043TIP3    H166620   3.064   1.307  15.254 -0.2999  3.5794  4.2568
15043TIP3    H266621   3.080   1.420  15.154 -0.7615 -0.8919 -1.1152
15044TIP3   OH266622   6.630   1.720  16.549  0.1742 -0.0973 -0.0990
15044TIP3    H166623   6.723   1.699  16.544  0.3979  0.6229  1.0344
15044TIP3    H266624   6.618   1.756  16.637 -0.8210  1.5298 -0.8829
15045TIP3   OH266625   2.987   5.549  15.893  0.0129 -0.0215  0.2714
15045TIP3    H166626   3.050   5.556  15.965 -0.3127 -0.4346  0.5984
15045TIP3    H266627   2.931   5.626  15.902  0.9054  0.7092 -0.4363
15046TIP3   OH266628   3.343   3.754  14.197  0.5291 -0.7054  0.3617
15046TIP3    H166629   3.345   3.819  14.127  0.2147 -0.1971  0.8230
15046TIP3    H266630   3.331   3.670  14.151 -1.2242 -0.2206 -0.0894
15047TIP3   OH266631   3.974   2.455   0.035  0.0257 -0.0830 -0.2020
15047TIP3    H166632   3.963   2.409  -0.048  0.2013  1.1750 -0.9298
15047TIP3    H266633   4.069   2.462   0.046  0.0051 -0.3823  0.1813
15048TIP3   OH266634   0.137   5.865  13.488  0.0428  0.1963 -0.4700
15048TIP3    H166635   0.101   5.947  13.521 -0.9375 -0.0865 -0.8098
15048TIP3    H266636   0.071   5.800  13.511  1.6714 -0.8276  1.5343
15049TIP3   OH266637   0.479   2.563   0.538 -0.0191  0.6979 -0.5483
15049TIP3    H166638   0.388   2.537   0.550  0.7089 -0.6819  2.3071
15049TIP3    H266639   0.488   2.644   0.588  0.5410  0.3119 -0.0164
15050TIP3   OH266640   0.279   1.959   0.653  0.6977  0.0649 -0.6989
15050TIP3    H166641   0.229   1.877   0.656 -1.4878  1.2674 -2.4918
15050TIP3    H266642   0.245   2.011   0.726 -0.1126  0.5537 -1.4126
15051TIP3   OH266643   4.992   4.777   3.111 -0.0882  0.0261  0.2966
15051TIP3    H166644   4.924   4.758   3.175 -0.7867  0.9376 -0.1504
15051TIP3    H266645   4.998   4.698   3.057 -0.6333 -0.1392  0.4828
15052TIP3   OH266646   5.836   6.305   5.839  0.4537  0.9914 -0.1642
15052TIP3    H166647   5.916   6.339   5.880  0.2330  0.2717  0.8969
15052TIP3    H266648   5.866   6.237   5.779  0.6460  0.7653  0.1881
15053TIP3   OH266649   0.532   5.202  13.493  0.0659  0.2558 -0.1269
15053TIP3    H166650   0.574   5.231  13.412 -0.6785  0.0150 -0.6042
15053TIP3    H266651   0.556   5.270  13.557  1.6012 -0.1503 -0.2453
15054TIP3   OH266652   5.988   2.006  11.274  0.1300 -0.3795  0.2294
15054TIP3    H166653   5.904   2.050  11.290  0.7159  1.3117 -1.1938
15054TIP3    H266654   5.986   1.930  11.331 -2.2098 -0.1329  0.5385
15055TIP3   OH266655   2.306   6.521  16.231  0.0113 -0.8233  0.5736
15055TIP3    H166656   2.362   6.513  16.154 -0.9291 -2.2807  0.0176
15055TIP3    H266657   2.224   6.558  16.197 -0.3215 -1.2539  0.8963
15056TIP3   OH266658   6.083   3.313   4.465 -0.6199  0.1326 -0.1920
15056TIP3    H166659   5.993   3.319   4.500  0.1930  0.0332  2.0076
15056TIP3    H266660   6.103   3.402   4.436 -1.2598  0.2693 -0.2250
15057TIP3   OH266661   4.537   6.432   1.813  0.1080 -0.3533 -1.2595
15057TIP3    H166662   4.496   6.346   1.821 -0.4896 -0.1546 -2.1059
15057TIP3    H266663   4.464   6.494   1.820  0.4076  0.0433 -1.6435
15058TIP3   OH266664   1.728   5.008   0.811 -0.0194 -0.0486 -0.3382
15058TIP3    H166665   1.822   5.020   0.819 -0.0027  0.2256 -0.9302
15058TIP3    H266666   1.693   5.034   0.896  0.3244  1.0243 -0.5132
15059TIP3   OH266667   6.246   6.427   6.434  0.1784 -0.2896  0.1369
15059TIP3    H166668   6.228   6.521   6.421 -1.8458 -0.7793 -0.7476
15059TIP3    H266669   6.274   6.396   6.348 -1.2395 -0.9473 -0.0884
15060TIP3   OH266670   0.311   6.463   5.140  0.3214  0.2496 -0.4125
15060TIP3    H166671   0.320   6.383   5.088  0.2861  1.0714 -1.6861
15060TIP3    H266672   0.235   6.445   5.197 -0.3508 -0.2251 -1.4341
15061TIP3   OH266673   0.575   2.723   6.215  0.3627  0.2202 -0.8450
15061TIP3    H166674   0.644   2.661   6.238  0.2842 -0.5106 -2.5247
15061TIP3    H266675   0.513   2.719   6.288 -0.0672 -2.3173 -1.3082
15062TIP3   OH266676   2.106   5.569  15.836  0.1605  0.1991 -0.2682
15062TIP3    H166677   2.071   5.484  15.864  0.1986  0.0127 -0.7719
15062TIP3    H266678   2.169   5.592  15.904  2.2508 -1.5410 -1.5288
15063TIP3   OH266679   6.772   0.667  16.066  0.3679  0.0132 -0.1697
15063TIP3    H166680   6.821   0.641  15.987  0.9910  3.2994 -0.9235
15063TIP3    H266681   6.680   0.652  16.043  0.7092 -1.9837 -0.3529
15064TIP3   OH266682   3.727   0.371   2.610  0.2673  0.1557 -0.2991
15064TIP3    H166683   3.717   0.462   2.582  1.0449 -0.3982 -2.4510
15064TIP3    H266684   3.644   0.329   2.588  1.3568 -0.6048 -3.1594
15065TIP3   OH266685   3.778   6.504  12.229 -0.1538  0.1105 -0.0363
15065TIP3    H166686   3.786   6.557  12.308  2.0782 -1.4685  0.8387
15065TIP3    H266687   3.824   6.555  12.162 -2.3280  1.6038 -0.4496
15066TIP3   OH266688   6.293   1.223   0.837  0.2556  0.1545  0.2040
15066TIP3    H166689   6.338   1.192   0.916 -0.7862  0.5281  0.9693
15066TIP3    H266690   6.215   1.167   0.831  1.3575 -1.2169 -1.7214
15067TIP3   OH266691   3.448   6.183   0.078 -0.4116 -0.3407 -0.0823
15067TIP3    H166692   3.381   6.218   0.018  0.4956 -0.7190 -1.3372
15067TIP3    H266693   3.468   6.256   0.137 -1.1902  0.0932 -0.3511
15068TIP3   OH266694   4.466   6.018   2.383  0.4300 -0.0585 -0.0560
15068TIP3    H166695   4.402   6.073   2.428 -1.3365 -2.2219  0.1855
15068TIP3    H266696   4.497   5.957   2.450  0.5352 -0.9387 -0.8907
15069TIP3   OH266697   3.351   2.168   1.222  0.0016  0.6484 -0.1138
15069TIP3    H166698   3.334   2.262   1.225 -2.5777  0.2413 -0.6747
15069TIP3    H266699   3.366   2.149   1.129  0.6213  0.5145  0.0092
15070TIP3   OH266700   1.791   2.642  11.538 -0.5276 -0.3144 -0.2996
15070TIP3    H166701   1.717   2.615  11.592 -0.2989  1.2172  0.8117
15070TIP3    H266702   1.847   2.565  11.534 -1.4947 -1.0431  0.0294
15071TIP3   OH266703   3.803   6.806   0.938 -0.0805 -0.3060  0.1408
15071TIP3    H166704   3.749   6.886   0.943 -0.1440 -0.2064 -1.6955
15071TIP3    H266705   3.756   6.742   0.991 -0.8091  0.4567  0.4325
15072TIP3   OH266706   6.143   2.060   1.829  0.0386  0.2712  0.0482
15072TIP3    H166707   6.165   2.039   1.920 -1.3881 -0.1356  0.3116
15072TIP3    H266708   6.047   2.059   1.827  0.0701 -0.6296 -1.6755
15073TIP3   OH266709   4.751   6.048   0.397 -0.3826  0.1625 -0.3941
15073TIP3    H166710   4.670   5.996   0.390 -0.9197  0.7273  1.5082
15073TIP3    H266711   4.728   6.133   0.359 -1.3049  0.9772  1.8690
15074TIP3   OH266712   1.850   2.448   5.796  0.0843 -0.3163 -0.0460
15074TIP3    H166713   1.941   2.421   5.810  1.1591  2.2245 -1.7457
15074TIP3    H266714   1.810   2.374   5.750  2.0889 -0.3143 -1.8644
15075TIP3   OH266715   0.271   0.967  13.452  0.4921 -0.1197  0.3841
15075TIP3    H166716   0.320   0.896  13.412 -0.7470 -0.6223 -0.2427
15075TIP3    H266717   0.236   0.929  13.533 -0.0607 -0.1824  0.1144
15076TIP3   OH266718   2.669   2.203   0.018  0.3584 -0.3998 -0.2777
15076TIP3    H166719   2.716   2.278  -0.018  1.5419 -0.9921  0.0084
15076TIP3    H266720   2.729   2.165   0.082 -0.5756 -1.0762  0.2131
15077TIP3   OH266721   1.363   4.732  15.175 -0.5996 -0.4815  0.4080
15077TIP3    H166722   1.340   4.807  15.120  1.6637 -0.6707 -0.8416
15077TIP3    H266723   1.454   4.747  15.199 -0.3570 -2.4378  0.7849
15078TIP3   OH266724   1.824   0.916   3.807 -0.0479 -0.6148 -0.5235
15078TIP3    H166725   1.824   0.933   3.712 -0.3463 -1.2537 -0.6413
15078TIP3    H266726   1.916   0.917   3.832  0.0242 -0.3041 -0.8008
15079TIP3   OH266727   0.081   3.540   6.925 -0.4607 -0.4849 -0.6141
15079TIP3    H166728   0.027   3.470   6.888 -0.2510 -1.2566  0.5172
15079TIP3    H266729   0.029   3.575   6.997 -0.0952 -0.2063 -0.4850
15080TIP3   OH266730   1.399   4.987   1.261 -0.2435 -0.6554 -0.5035
15080TIP3    H166731   1.417   4.952   1.349  1.2064 -0.5026 -0.7187
15080TIP3    H266732   1.356   5.071   1.277  0.6812 -0.2822  0.0814
15081TIP3   OH266733   3.472   2.224  16.283  0.0802  0.2746  0.5982
15081TIP3    H166734   3.381   2.198  16.264 -0.0203 -0.3965  1.9786
15081TIP3    H266735   3.463   2.300  16.340  0.3968  1.8005 -1.3036
15082TIP3   OH266736   1.645   2.505   5.216 -0.2068 -0.1097  0.2968
15082TIP3    H166737   1.706   2.466   5.153 -0.7524  0.8249 -0.8467
15082TIP3    H266738   1.566   2.452   5.208 -1.6374  2.2604 -2.6759
15083TIP3   OH266739   0.844   0.908  13.023  1.2182 -0.5712 -0.6610
15083TIP3    H166740   0.873   0.817  13.021 -0.2421 -1.0590  0.1380
15083TIP3    H266741   0.795   0.920  12.942  0.3750 -0.8478 -0.1948
15084TIP3   OH266742   4.087   2.759   2.739  0.7226  1.0142 -0.8445
15084TIP3    H166743   4.140   2.735   2.662  0.0596 -0.3778 -0.8824
15084TIP3    H266744   3.997   2.740   2.713  0.4546  0.8889  0.1486
15085TIP3   OH266745   3.300   1.677   3.807 -0.4428 -0.7274 -0.3586
15085TIP3    H166746   3.390   1.649   3.826 -0.1126  0.7186  0.2432
15085TIP3    H266747   3.248   1.635   3.876  0.3405  1.8504  1.8796
15086TIP3   OH266748   4.946   1.562  13.383 -0.3625 -0.4793 -0.3391
15086TIP3    H166749   4.936   1.573  13.288 -1.8940  1.0388 -0.0325
15086TIP3    H266750   4.981   1.645  13.413  1.6224 -1.5043  0.2536
15087TIP3   OH266751   6.146   4.251   2.531  0.3849 -0.2180 -0.5559
15087TIP3    H166752   6.117   4.281   2.617  0.8854  0.3862 -0.6008
15087TIP3    H266753   6.087   4.295   2.470  0.5395 -0.0336 -0.5706
15088TIP3   OH266754   1.430   5.455  12.938 -0.4470  0.0814 -0.4718
15088TIP3    H166755   1.459   5.541  12.970 -0.8710 -0.0277  0.1984
15088TIP3    H266756   1.390   5.475  12.853 -0.1488  0.4853 -0.5260
15089TIP3   OH266757   5.031   4.091   3.315 -0.2576 -0.2385  0.2729
15089TIP3    H166758   5.020   4.022   3.249  0.3537  0.8733 -0.9906
15089TIP3    H266759   4.941   4.117   3.336 -0.4365 -0.1015 -0.6378
15090TIP3   OH266760   6.551   2.894  13.459  0.0379  0.0306  0.3109
15090TIP3    H166761   6.514   2.960  13.519 -1.5532 -0.1468 -0.4570
15090TIP3    H266762   6.504   2.908  13.377  2.4422  0.4973 -1.0179
15091TIP3   OH266763   5.953   6.722  11.851  0.3025 -0.1583  0.0336
15091TIP3    H166764   5.916   6.806  11.876 -0.9842 -0.4329 -0.9136
15091TIP3    H266765   6.043   6.725  11.883  0.2799  1.5870 -0.0398
15092TIP3   OH266766   1.489   1.910  15.795  0.1135  0.4403 -0.5161
15092TIP3    H166767   1.494   1.941  15.885 -0.6576 -0.8904  0.0135
15092TIP3    H266768   1.558   1.956  15.749  1.8229 -0.3352  1.2139
15093TIP3   OH266769   1.639   2.947   1.237  0.2928  0.6112  0.5621
15093TIP3    H166770   1.563   3.004   1.248  0.1867  0.3201  1.4634
15093TIP3    H266771   1.649   2.937   1.143 -0.6497  0.8379  0.4336
15094TIP3   OH266772   1.351   4.365   4.586 -0.0620 -0.5279 -0.0215
15094TIP3    H166773   1.378   4.358   4.677  0.1724  3.3545  0.2771
15094TIP3    H266774   1.416   4.423   4.546 -2.7681  1.5892 -1.5049
15095TIP3   OH266775   2.164   2.083  12.227 -0.1470  0.1188 -0.1223
15095TIP3    H166776   2.227   2.023  12.189  0.1994 -1.1825  2.4072
15095TIP3    H266777   2.213   2.131  12.293 -1.7893 -1.0590  2.0389
15096TIP3   OH266778   5.394   3.596   2.222 -0.3508 -0.1092  0.1849
15096TIP3    H166779   5.351   3.553   2.296  1.9867  0.6245  2.0675
15096TIP3    H266780   5.387   3.690   2.243  1.6750  0.0312  0.2703
15097TIP3   OH266781   1.676   0.913   2.844  0.0215  0.4348 -0.3287
15097TIP3    H166782   1.703   0.983   2.785 -1.9912  0.0013 -1.8304
15097TIP3    H266783   1.753   0.857   2.853  0.8602  1.4315 -1.1886
15098TIP3   OH266784   4.847   4.583  11.160  0.0495 -0.2699  0.3578
15098TIP3    H166785   4.857   4.560  11.252 -0.6171  0.0747  0.5189
15098TIP3    H266786   4.784   4.519  11.126 -0.3331  0.1147  0.3397
15099TIP3   OH266787   5.020   6.360   2.432 -0.2443 -0.2787  0.7263
15099TIP3    H166788   4.940   6.410   2.416  0.4198  0.1593 -1.2565
15099TIP3    H266789   5.041   6.319   2.348  0.6664 -1.7931  1.6680
15100TIP3   OH266790   0.723   5.218   0.374  0.0046  0.0439 -0.0943
15100TIP3    H166791   0.690   5.279   0.440  3.5955  1.0921  0.8148
15100TIP3    H266792   0.726   5.270   0.294 -0.1857  0.0451 -0.1018
15101TIP3   OH266793   0.046   3.948   4.502 -0.1835  0.1301  0.1185
15101TIP3    H166794  -0.012   3.951   4.578  0.5173  1.1492  0.6122
15101TIP3    H266795   0.088   3.862   4.509 -0.9704 -0.2605  0.2334
15102TIP3   OH266796   4.650   6.299   4.598  0.3651  0.4267  0.2101
15102TIP3    H166797   4.663   6.224   4.541 -1.3092  0.1897  0.0975
15102TIP3    H266798   4.736   6.339   4.607  0.9563 -0.5504 -1.0685
15103TIP3   OH266799   2.333   0.793   3.800  0.1426  0.7413 -0.7173
15103TIP3    H166800   2.279   0.716   3.816  0.4041  0.2494 -2.1045
15103TIP3    H266801   2.421   0.758   3.783  0.2512  1.3294 -1.4170
15104TIP3   OH266802   0.375   5.848  13.684 -0.0160  0.0017 -0.0752
15104TIP3    H166803   0.324   5.916  13.728 -1.0621 -0.6113 -0.3270
15104TIP3    H266804   0.314   5.775  13.675  0.9292 -0.7529 -0.3404
15105TIP3   OH266805   6.797   3.239  13.188  0.0518  0.1437  0.7375
15105TIP3    H166806   6.848   3.319  13.199  0.0429  0.2537 -0.0006
15105TIP3    H266807   6.856   3.169  13.216  0.4401  0.3132  0.3432
15106TIP3   OH266808   1.258   6.611  15.247  0.4662  0.5100 -0.1943
15106TIP3    H166809   1.329   6.671  15.227  1.5845 -0.2042  1.4950
15106TIP3    H266810   1.301   6.528  15.267 -0.8374  0.0306  0.7368
15107TIP3   OH266811   2.835   5.893   4.447 -0.4426  0.2869  0.1682
15107TIP3    H166812   2.759   5.836   4.452 -0.9690  0.9512 -0.1959
15107TIP3    H266813   2.800   5.978   4.420  0.4935  0.4439 -0.5862
15108TIP3   OH266814   3.721   0.018  14.841  0.3838  0.1736  0.3824
15108TIP3    H166815   3.760  -0.067  14.859 -1.2962 -1.1566 -2.1160
15108TIP3    H266816   3.726   0.064  14.925  3.9716 -1.2509  1.0560
15109TIP3   OH266817   3.427   3.076   5.708  0.1362  0.4769 -0.4790
15109TIP3    H166818   3.403   2.998   5.659 -0.3979  0.0121  0.5114
15109TIP3    H266819   3.370   3.075   5.785 -0.1970  2.0863 -0.6899
15110TIP3   OH266820   3.632   0.039   0.632  0.3231 -0.6381  0.2085
15110TIP3    H166821   3.602   0.113   0.685  0.7636  1.1255 -1.8896
15110TIP3    H266822   3.620  -0.038   0.688  0.4862  1.0898  2.6969
15111TIP3   OH266823   0.981   4.928  13.939  0.7890  0.2848 -0.0579
15111TIP3    H166824   0.890   4.951  13.959  0.1951 -1.0714 -1.0973
15111TIP3    H266825   1.015   5.003  13.892  0.4680  1.1560  1.0827
15112TIP3   OH266826   4.460   6.795   2.689  0.1910  0.1754 -0.4103
15112TIP3    H166827   4.414   6.879   2.689  0.4697  0.3265  0.1468
15112TIP3    H266828   4.552   6.818   2.697  0.2320 -0.1987  0.2165
15113TIP3   OH266829   3.316   0.702  16.245  0.1810 -0.3404 -0.1914
15113TIP3    H166830   3.371   0.687  16.322  0.9791  1.0014 -0.4870
15113TIP3    H266831   3.226   0.693  16.278  0.5085  0.4494  0.9423
15114TIP3   OH266832   2.130   0.570   0.350  0.3353 -0.3884  0.0307
15114TIP3    H166833   2.109   0.643   0.291 -1.3025  0.7398  1.9509
15114TIP3    H266834   2.206   0.601   0.400  0.8355 -0.7756 -0.4871
15115TIP3   OH266835   5.544   6.806  13.206  0.2124 -0.1112  0.1309
15115TIP3    H166836   5.492   6.803  13.286  0.2456 -0.7741  0.1289
15115TIP3    H266837   5.483   6.836  13.139 -0.5790 -2.3370 -0.1811
15116TIP3   OH266838   0.131   3.134  11.849 -0.5469  0.4226  0.4900
15116TIP3    H166839   0.164   3.211  11.803  2.1878 -1.3252 -0.5720
15116TIP3    H266840   0.083   3.085  11.783  2.0388 -1.2892 -0.2042
15117TIP3   OH266841   1.242   5.982  11.001 -0.0751  0.5898  0.0594
15117TIP3    H166842   1.298   5.949  10.931 -1.1793 -0.0339 -0.5471
15117TIP3    H266843   1.285   5.954  11.081 -0.4488 -1.4377 -0.4241
15118TIP3   OH266844   5.188   6.360  10.974  0.3847 -0.1636  0.1540
15118TIP3    H166845   5.143   6.397  10.898  2.2929 -0.0498 -0.9688
15118TIP3    H266846   5.181   6.266  10.963 -0.0297 -0.1474  0.2692
15119TIP3   OH266847   5.551   4.625   2.448 -0.0641  0.1773  0.4439
15119TIP3    H166848   5.520   4.699   2.500 -0.2225  2.1569 -2.3559
15119TIP3    H266849   5.496   4.627   2.369  2.2152 -0.8448 -1.2044
15120TIP3   OH266850   3.967   0.866  11.951 -0.4328  0.1549 -0.1256
15120TIP3    H166851   4.027   0.922  11.902  0.8454 -1.4371 -0.4234
15120TIP3    H266852   4.012   0.782  11.956 -1.8558 -0.5452  1.2290
15121TIP3   OH266853   1.704   3.666  16.597  0.1990 -0.1390 -0.1135
15121TIP3    H166854   1.698   3.675  16.502  0.4324  0.8529 -0.0435
15121TIP3    H266855   1.683   3.754  16.631  3.4264  0.4235  0.5951
15122TIP3   OH266856   5.798   2.553  13.000  0.9311 -0.1565  0.4548
15122TIP3    H166857   5.715   2.589  13.033  0.2634  0.0721 -1.4214
15122TIP3    H266858   5.797   2.462  13.029 -0.4942 -0.4522 -0.4942
15123TIP3   OH266859   1.070   1.166  12.435  0.2433  0.4874 -0.7573
15123TIP3    H166860   1.063   1.254  12.398 -0.2559 -0.1951 -2.3142
15123TIP3    H266861   1.116   1.115  12.368  2.7842  0.1480  1.1806
15124TIP3   OH266862   3.561   0.784  15.769  0.0337  0.5282  0.3591
15124TIP3    H166863   3.614   0.859  15.794 -0.3091  0.7642  0.3849
15124TIP3    H266864   3.474   0.820  15.751  0.0741  0.2561 -0.4225
15125TIP3   OH266865   6.018   3.207   1.113 -0.3482  0.1693 -0.0737
15125TIP3    H166866   5.965   3.279   1.147  0.0643 -0.0988  1.1631
15125TIP3    H266867   6.084   3.191   1.181  0.5805 -0.2931 -1.0604
15126TIP3   OH266868   6.285   2.215  11.755 -0.0611  0.2950  0.4363
15126TIP3    H166869   6.212   2.180  11.806 -0.3148 -2.4141 -1.6973
15126TIP3    H266870   6.360   2.161  11.781  0.2301  0.2008 -0.5817
15127TIP3   OH266871   2.073   1.111  13.924 -0.5965 -0.7302  0.0511
15127TIP3    H166872   2.122   1.167  13.865  0.0121 -0.1134  1.1131
15127TIP3    H266873   1.982   1.119  13.896 -0.4002  0.0814 -0.3672
15128TIP3   OH266874   0.861   2.055   5.702  0.0646  0.2506  0.0647
15128TIP3    H166875   0.930   2.106   5.743 -0.4039  0.5125  0.5319
15128TIP3    H266876   0.832   1.995   5.771 -1.5117  1.4668  0.4900
15129TIP3   OH266877   0.997   3.829  14.863  0.1382 -0.5738  0.4195
15129TIP3    H166878   1.091   3.830  14.882 -0.3041 -0.9643  2.7131
15129TIP3    H266879   0.980   3.741  14.829  0.8523 -0.0180 -1.4432
15130TIP3   OH266880   5.229   1.650   4.778  0.4964 -0.1773 -0.0293
15130TIP3    H166881   5.261   1.730   4.736  0.3450  0.5932  1.3077
15130TIP3    H266882   5.135   1.648   4.757  0.0100  1.2664  1.9398
15131TIP3   OH266883   5.068   3.159   0.969 -0.1050  0.3214 -0.2991
15131TIP3    H166884   5.003   3.089   0.957 -0.2142  0.3599  0.0497
15131TIP3    H266885   5.019   3.230   1.010  0.7552 -0.6694  2.5550
15132TIP3   OH266886   3.303   1.104  12.708 -0.1299 -0.1907  0.6543
15132TIP3    H166887   3.253   1.035  12.664 -2.1073  1.3629  0.4072
15132TIP3    H266888   3.239   1.149  12.763  1.4932  0.4011  2.1422
15133TIP3   OH266889   4.276   1.411   2.918 -0.0634  0.2616 -0.3307
15133TIP3    H166890   4.309   1.493   2.954  1.4062 -0.2811 -0.3701
15133TIP3    H266891   4.295   1.416   2.824  1.7108 -0.8582 -0.0601
15134TIP3   OH266892   2.840   0.994   0.755 -0.6705  0.0041 -0.5030
15134TIP3    H166893   2.840   1.089   0.772  1.2708 -0.3301  1.5385
15134TIP3    H266894   2.857   0.986   0.661  2.2923  1.6336 -0.1626
15135TIP3   OH266895   5.004   1.674   6.325 -0.0996 -0.4070  0.0128
15135TIP3    H166896   4.951   1.754   6.329  0.7014  0.2226 -1.5159
15135TIP3    H266897   5.037   1.662   6.414 -2.0734 -0.3230  0.7849
15136TIP3   OH266898   1.626   5.614  14.635  0.1553  0.2149 -0.1500
15136TIP3    H166899   1.697   5.598  14.697 -0.8724 -0.6179  0.8245
15136TIP3    H266900   1.546   5.608  14.687 -0.5744  2.9229 -0.8766
15137TIP3   OH266901   2.254   1.883   4.359  0.1935 -0.4261  0.4998
15137TIP3    H166902   2.215   1.847   4.438  0.5975 -0.5158  0.6575
15137TIP3    H266903   2.214   1.833   4.288 -0.0685 -0.4366  0.6550
15138TIP3   OH266904   6.475   6.081  14.510  0.0218  0.1643  0.2035
15138TIP3    H166905   6.496   5.987  14.503  0.4930  0.1828  1.2214
15138TIP3    H266906   6.416   6.086  14.585 -0.8954  0.5528 -0.5410
15139TIP3   OH266907   6.229   1.998   5.710  0.1587  0.0894  0.4494
15139TIP3    H166908   6.319   1.984   5.740  0.4957  0.4123 -0.4043
15139TIP3    H266909   6.194   2.063   5.770  0.4548 -0.1320  0.8659
15140TIP3   OH266910   1.635   4.422   0.919  0.2099 -0.0145  0.1908
15140TIP3    H166911   1.674   4.508   0.904 -0.5623  0.7314  2.2903
15140TIP3    H266912   1.628   4.415   1.014 -1.4105 -1.6437 -0.0123
15141TIP3   OH266913   1.385   5.158  11.463 -0.4425 -0.4044  0.6870
15141TIP3    H166914   1.414   5.217  11.532 -1.4298 -0.9569  1.5824
15141TIP3    H266915   1.395   5.209  11.382  0.3680  0.3672  1.2585
15142TIP3   OH266916   6.745   3.110  13.563 -0.3117 -0.1159  0.0901
15142TIP3    H166917   6.699   3.158  13.632  2.0898  0.9123  1.0473
15142TIP3    H266918   6.684   3.110  13.490 -1.7049  1.4969  1.1870
15143TIP3   OH266919   0.059   5.945   3.683 -0.5276  0.1351 -0.0188
15143TIP3    H166920   0.136   6.001   3.692  0.3482 -0.5748 -2.5083
15143TIP3    H266921   0.027   5.962   3.594 -1.0874 -2.2133 -0.3144
15144TIP3   OH266922   6.018   3.644   3.001  0.0875  0.0924  0.0473
15144TIP3    H166923   6.097   3.694   2.981 -1.2871  2.2214 -0.2002
15144TIP3    H266924   5.986   3.681   3.083  0.0458 -1.6659  0.8561
15145TIP3   OH266925   1.834   6.535   3.759  0.6717  0.2059 -0.4690
15145TIP3    H166926   1.848   6.463   3.699 -0.0609 -0.6455  0.3622
15145TIP3    H266927   1.808   6.609   3.704  0.4299 -0.4467 -1.2222
15146TIP3   OH266928   0.320   3.138   2.758 -0.5241  0.2564 -0.4998
15146TIP3    H166929   0.326   3.140   2.853  1.2076  1.0102 -0.5985
15146TIP3    H266930   0.373   3.213   2.729 -0.8549 -0.0856 -2.0597
15147TIP3   OH266931   5.897   5.335   2.819 -0.1454  0.3794  0.2448
15147TIP3    H166932   5.933   5.291   2.741 -0.3734  2.7350 -1.2265
15147TIP3    H266933   5.956   5.408   2.835 -2.1160  2.0396  0.0993
15148TIP3   OH266934   5.287   5.254   0.592  0.0039  0.1494  0.1748
15148TIP3    H166935   5.380   5.231   0.582  0.1273  0.1087  1.3350
15148TIP3    H266936   5.241   5.170   0.582  0.2451 -0.1591  1.6093
15149TIP3   OH266937   1.632   0.520  10.367  0.4178 -0.1534  0.5997
15149TIP3    H166938   1.614   0.575  10.443 -0.8661  0.2945 -0.0194
15149TIP3    H266939   1.546   0.502  10.329  1.1550  1.6488 -2.1282
15150TIP3   OH266940   2.820   1.942  14.361 -0.2208 -0.1042 -0.8245
15150TIP3    H166941   2.768   2.017  14.331  0.0475  1.0809  1.5033
15150TIP3    H266942   2.901   1.947  14.310 -1.4921 -0.7138 -2.9548
15151TIP3   OH266943   6.816   2.455  13.748 -0.6104 -0.4968  0.1945
15151TIP3    H166944   6.763   2.430  13.823 -1.4902 -3.5570 -1.3489
15151TIP3    H266945   6.773   2.534  13.714 -1.7460 -0.6015  1.3537
15152TIP3   OH266946   1.558   3.135  13.104  0.1379  0.4699 -0.5477
15152TIP3    H166947   1.614   3.123  13.028 -0.6682 -1.4762 -0.8844
15152TIP3    H266948   1.469   3.133  13.069 -0.2448 -0.6104  0.4433
15153TIP3   OH266949   4.965   3.059  13.581  0.4339 -0.1244  0.4044
15153TIP3    H166950   4.873   3.085  13.590  0.7199  0.7432  0.8519
15153TIP3    H266951   4.987   3.017  13.664  0.8714  1.0252  0.8797
15154TIP3   OH266952   1.050   2.713  14.474 -0.6654 -0.5085  0.5220
15154TIP3    H166953   0.968   2.699  14.427 -0.1207  0.3074 -0.7192
15154TIP3    H266954   1.048   2.807  14.496  0.0061 -0.4514  0.3342
15155TIP3   OH266955   1.529   1.244   0.087  0.4059  0.0130  0.0211
15155TIP3    H166956   1.519   1.163   0.136 -0.7056  0.9611  1.3857
15155TIP3    H266957   1.565   1.306   0.150  1.2982  0.5729 -1.0265
15156TIP3   OH266958   6.690   3.477   5.563  0.3190 -0.8875 -0.3458
15156TIP3    H166959   6.646   3.421   5.627 -0.6946  0.4991  0.1905
15156TIP3    H266960   6.779   3.441   5.557  0.2655 -1.3862  1.4516
15157TIP3   OH266961   3.550   5.405  16.625  0.2521 -0.2567 -0.2645
15157TIP3    H166962   3.504   5.486  16.602  0.6010  0.0731  0.1851
15157TIP3    H266963   3.642   5.429  16.625  0.2959 -0.3744  0.9391
15158TIP3   OH266964   4.070   3.586   4.070 -0.2027 -0.0122 -0.4145
15158TIP3    H166965   4.068   3.549   3.982 -0.7609 -1.7690  0.3106
15158TIP3    H266966   4.131   3.659   4.065  0.6527 -0.8297 -1.9792
15159TIP3   OH266967   3.371   4.765  11.141 -0.3133  0.2527  0.3388
15159TIP3    H166968   3.419   4.828  11.195  0.4426  0.6184 -0.7307
15159TIP3    H266969   3.437   4.732  11.080 -0.7893 -1.2922  0.6228
15160TIP3   OH266970   5.774   1.251   5.563  0.0085 -0.2700 -0.4144
15160TIP3    H166971   5.798   1.257   5.471  0.4332 -0.3172 -0.3093
15160TIP3    H266972   5.684   1.283   5.567 -0.2172 -0.8292 -0.9340
15161TIP3   OH266973   5.998   1.204   3.905 -0.5621 -0.6138  0.7651
15161TIP3    H166974   6.052   1.130   3.932 -3.1090 -2.1272  1.9284
15161TIP3    H266975   5.966   1.181   3.818  1.1763  0.5825 -0.2024
15162TIP3   OH266976   4.356   6.554  12.209  0.7503  0.1173 -0.1872
15162TIP3    H166977   4.328   6.566  12.118  0.8824 -1.1675 -0.3985
15162TIP3    H266978   4.387   6.464  12.213  0.1565 -0.0341  1.2902
15163TIP3   OH266979   4.049   4.655  16.521 -0.2937 -0.2354  0.3943
15163TIP3    H166980   4.076   4.681  16.609  0.2919  3.5675 -0.8358
15163TIP3    H266981   3.958   4.684  16.514  0.2638  1.2797 -0.8913
15164TIP3   OH266982   0.656   2.893  14.534 -0.4545 -0.1444  0.3073
15164TIP3    H166983   0.582   2.897  14.473 -0.5544 -2.6834  0.2164
15164TIP3    H266984   0.733   2.902  14.477 -0.6327  0.7299  0.1952
15165TIP3   OH266985   3.756   1.128   2.093 -0.1961 -0.1033 -0.1974
15165TIP3    H166986   3.728   1.045   2.131 -2.6005  1.8172  2.4451
15165TIP3    H266987   3.773   1.185   2.168  1.3302  1.8201 -1.9365
15166TIP3   OH266988   2.711   2.780   2.350 -0.0820  0.1668 -0.0115
15166TIP3    H166989   2.783   2.841   2.331  0.2438 -0.1950  0.0521
15166TIP3    H266990   2.638   2.813   2.299  0.2369  0.3210 -0.3744
15167TIP3   OH266991   0.022   0.831  12.291  0.0319  0.5297  0.4564
15167TIP3    H166992   0.049   0.755  12.238 -1.6510  0.3612 -0.1824
15167TIP3    H266993   0.048   0.907  12.238 -0.5905  0.3696 -0.0834
15168TIP3   OH266994   6.708   0.524   1.341 -0.7511  0.5007  0.4894
15168TIP3    H166995   6.622   0.563   1.356 -0.7252  1.7517 -2.2629
15168TIP3    H266996   6.693   0.459   1.272  0.2885 -0.1741  0.8950
15169TIP3   OH266997   5.207   1.757  16.284  0.8545  0.2881 -0.2279
15169TIP3    H166998   5.152   1.683  16.308  1.9795  0.1460  2.0068
15169TIP3    H266999   5.256   1.727  16.208  0.2199 -0.7097 -0.2565
15170TIP3   OH267000   2.349   3.703   1.732 -0.1794  0.4990 -0.0011
15170TIP3    H167001   2.344   3.607   1.736 -0.8525  0.5655  0.7766
15170TIP3    H267002   2.443   3.722   1.739 -0.2152 -0.0080  2.1752
15171TIP3   OH267003   0.930   2.052   5.433 -0.5536  0.8557  0.2895
15171TIP3    H167004   0.925   2.015   5.521  1.8532  0.2140  0.1878
15171TIP3    H267005   1.015   2.024   5.400 -2.0273 -0.1352 -2.8188
15172TIP3   OH267006   3.352   4.532   0.972  0.4791  0.4935 -0.2395
15172TIP3    H167007   3.376   4.535   0.880  1.0522 -0.6320 -0.1445
15172TIP3    H267008   3.290   4.604   0.984  2.1067  2.0510 -0.9920
15173TIP3   OH267009   1.822   4.397  17.059  0.3632  1.1730 -0.4931
15173TIP3    H167010   1.847   4.306  17.073  1.2220  1.6724  1.3679
15173TIP3    H267011   1.867   4.422  16.979  0.7690  0.2019 -0.5719
15174TIP3   OH267012   3.075   1.647  12.924  0.4215 -0.9109  0.2232
15174TIP3    H167013   3.041   1.568  12.966  1.2831 -1.6495 -0.4521
15174TIP3    H267014   3.134   1.615  12.856  1.3923  0.3289  0.4542
15175TIP3   OH267015   6.285   6.258   0.699 -0.1069 -0.2871 -0.4643
15175TIP3    H167016   6.249   6.263   0.788  0.2863  1.8165 -0.4078
15175TIP3    H267017   6.217   6.297   0.644 -0.1652 -1.2060 -1.0594
15176TIP3   OH267018   2.062   0.470  12.333  0.6135 -0.2890 -0.4169
15176TIP3    H167019   1.989   0.526  12.307  1.2140  0.6160 -0.1823
15176TIP3    H267020   2.140   0.522  12.315  1.0971 -0.2543  1.6577
15177TIP3   OH267021   1.625   1.425  14.040  0.1626 -0.5072  0.0915
15177TIP3    H167022   1.628   1.384  14.126 -0.2789  1.2238  0.9554
15177TIP3    H267023   1.533   1.451  14.029  0.1662 -0.9125 -1.0091
15178TIP3   OH267024   5.194   1.030  14.234 -0.1366  0.0171 -0.4155
15178TIP3    H167025   5.260   1.019  14.166 -0.2422 -0.1570 -0.4883
15178TIP3    H267026   5.236   1.086  14.300  0.6779 -1.4357  0.3261
15179TIP3   OH267027   0.703   2.000   2.212 -0.2683 -0.0177 -0.2612
15179TIP3    H167028   0.691   2.041   2.126 -1.4658  2.0949  0.8556
15179TIP3    H267029   0.726   2.073   2.270  1.4855 -1.5630  1.0251
15180TIP3   OH267030   5.554   4.085  16.269  0.0615  0.4644  0.6948
15180TIP3    H167031   5.477   4.119  16.224 -0.5187 -0.6039  0.8898
15180TIP3    H267032   5.617   4.158  16.266 -0.6592  1.0598 -0.1474
15181TIP3   OH267033   0.526   3.368  15.209 -0.3337  0.4394  0.1753
15181TIP3    H167034   0.509   3.340  15.119 -0.2795  1.7347 -0.2504
15181TIP3    H267035   0.513   3.463  15.207  0.3564  0.5646  1.3767
15182TIP3   OH267036   5.534   4.656  15.607  0.5641  0.1669 -0.2289
15182TIP3    H167037   5.576   4.581  15.649 -0.0394 -0.0013  0.0721
15182TIP3    H267038   5.515   4.625  15.518 -0.8269 -0.4804  0.2686
15183TIP3   OH267039   2.005   5.272  15.402  0.0823 -0.7716  0.8468
15183TIP3    H167040   2.061   5.305  15.473 -0.8714 -1.8516  2.1254
15183TIP3    H267041   1.933   5.336  15.398  0.5254 -0.3037  0.3466
15184TIP3   OH267042   3.141   5.553   6.205 -0.4649  0.3662 -0.0381
15184TIP3    H167043   3.204   5.533   6.275  2.9871 -0.8524 -3.3470
15184TIP3    H267044   3.121   5.646   6.217  1.6915  0.6920  1.2620
15185TIP3   OH267045   0.778   6.769   1.076 -0.5217  0.3750  0.4483
15185TIP3    H167046   0.771   6.709   1.003 -1.8776  2.0520 -0.8319
15185TIP3    H267047   0.705   6.830   1.065  0.6070  2.0587  1.8804
15186TIP3   OH267048   1.683   6.785   4.625 -0.0989 -0.1539  0.1370
15186TIP3    H167049   1.767   6.741   4.609  0.3189  0.1147  1.5581
15186TIP3    H267050   1.700   6.844   4.698 -1.4784  0.0671  0.2891
15187TIP3   OH267051   4.901   4.698   1.055 -0.1066  0.6361  0.4876
15187TIP3    H167052   4.880   4.742   1.137 -2.2057 -0.2310  0.4350
15187TIP3    H267053   4.975   4.642   1.076  0.1349  1.3142  1.4831
15188TIP3   OH267054   2.933   3.210   4.860 -0.6748  0.1477 -0.8492
15188TIP3    H167055   3.009   3.237   4.913 -0.5123 -1.7676 -0.0683
15188TIP3    H267056   2.969   3.197   4.772 -0.0405 -0.9079 -0.4477
15189TIP3   OH267057   3.849   1.693  16.017  0.3083 -0.4794 -0.7794
15189TIP3    H167058   3.835   1.678  16.111  1.3110 -1.0852 -0.7238
15189TIP3    H267059   3.866   1.606  15.981  0.3674 -0.1931 -1.4491
15190TIP3   OH267060   2.397   4.892  14.490  0.1086  0.4186  0.6021
15190TIP3    H167061   2.385   4.940  14.571  0.6299 -0.1594  1.0271
15190TIP3    H267062   2.392   4.800  14.515  0.1462  0.2350 -0.0391
15191TIP3   OH267063   3.061   3.142   4.295 -0.0708 -0.3691  0.2538
15191TIP3    H167064   3.038   3.050   4.297  1.6943 -0.8224  0.5702
15191TIP3    H267065   2.980   3.188   4.321 -0.7987 -1.8366  0.6323
15192TIP3   OH267066   3.945   6.008   4.243 -0.0840  0.1385 -0.2536
15192TIP3    H167067   3.969   6.068   4.313  0.5166 -1.4881  0.9503
15192TIP3    H267068   3.977   6.050   4.163  0.9213  1.0940  0.6371
15193TIP3   OH267069   0.782   5.907  15.937  0.0390 -0.1341 -0.1351
15193TIP3    H167070   0.775   6.000  15.961  1.6561 -0.0288 -0.0213
15193TIP3    H267071   0.818   5.908  15.849 -3.1498 -0.6001 -1.5211
15194TIP3   OH267072   5.743   1.741  13.821  0.0769 -0.0659  0.4621
15194TIP3    H167073   5.651   1.749  13.796  0.2937  0.5771 -0.1443
15194TIP3    H267074   5.790   1.800  13.761  0.9500 -0.8339  0.3749
15195TIP3   OH267075   1.356   1.634  12.469  0.1399  0.1299 -0.4928
15195TIP3    H167076   1.332   1.705  12.528  0.1917 -0.6989  0.5433
15195TIP3    H267077   1.373   1.677  12.385  2.3906  1.6217  0.6860
15196TIP3   OH267078   6.019   2.107  14.820 -0.3281 -0.5173  0.5978
15196TIP3    H167079   6.105   2.097  14.862 -0.4416 -0.6260  0.8039
15196TIP3    H267080   6.024   2.051  14.743 -0.0556 -0.1801  0.3696
15197TIP3   OH267081   1.049   5.824  10.741 -0.3914  0.2525  0.0381
15197TIP3    H167082   1.057   5.756  10.675  0.7635  0.1003  0.3248
15197TIP3    H267083   1.091   5.901  10.702 -0.8831  0.5429  0.0737
15198TIP3   OH267084   3.833   3.470  13.244  0.2555  0.2118 -0.4396
15198TIP3    H167085   3.808   3.562  13.233 -0.3780 -0.0404 -1.1413
15198TIP3    H267086   3.781   3.440  13.318  0.2659  0.3412 -0.3786
15199TIP3   OH267087   6.291   0.338   0.769 -0.1868 -0.3292 -0.0434
15199TIP3    H167088   6.287   0.419   0.718 -0.7047  0.9051  1.8686
15199TIP3    H267089   6.384   0.323   0.784 -0.1530  1.8427  2.4348
15200TIP3   OH267090   3.010   0.228   4.171  0.6240  0.3064  0.9406
15200TIP3    H167091   2.991   0.231   4.077  2.1453 -1.4425  0.5327
15200TIP3    H267092   3.090   0.279   4.181 -0.2584  1.6091  1.5211
15201TIP3   OH267093   6.715   1.546  13.763 -0.2955  0.6968 -0.5126
15201TIP3    H167094   6.779   1.566  13.695  0.8579 -2.5307 -0.4554
15201TIP3    H267095   6.662   1.475  13.726 -1.9761  1.3539  0.5724
15202TIP3   OH267096   4.278   6.169   4.445 -0.4784 -0.4334 -0.4305
15202TIP3    H167097   4.186   6.192   4.455 -0.7733 -1.8646  0.4067
15202TIP3    H267098   4.283   6.078   4.476  0.7482 -1.2190 -2.7849
15203TIP3   OH267099   1.031   4.426   1.065 -0.3045 -0.1444  0.7150
15203TIP3    H167100   1.120   4.461   1.063 -1.0458  1.7184 -0.1079
15203TIP3    H267101   1.026   4.369   0.988 -0.5730  1.6700 -0.6363
15204TIP3   OH267102   0.324   1.179  13.278 -0.5708  0.2261  0.1023
15204TIP3    H167103   0.244   1.231  13.277 -0.9887 -0.3987  0.4455
15204TIP3    H267104   0.324   1.136  13.364  0.3440  0.5466  0.2719
15205TIP3   OH267105   4.926   3.075  15.214 -0.2391  0.4174  0.4210
15205TIP3    H167106   4.928   3.124  15.132  0.1486  0.8026  0.6562
15205TIP3    H267107   4.952   2.986  15.190  0.8866  0.7780  0.2979
15206TIP3   OH267108   1.632   5.557   5.484 -0.2682  0.2590  1.0504
15206TIP3    H167109   1.559   5.614   5.460 -0.9519 -0.7780  0.6406
15206TIP3    H267110   1.626   5.548   5.579  0.3413  1.5348  1.2184
15207TIP3   OH267111   2.224   2.910  12.748  0.6028 -0.2906  0.5977
15207TIP3    H167112   2.165   2.835  12.739  1.1491 -0.5395 -1.0910
15207TIP3    H267113   2.166   2.983  12.771 -0.3354 -0.6185 -0.6229
15208TIP3   OH267114   1.906   6.376   4.484  0.7722  0.0931 -0.5834
15208TIP3    H167115   1.912   6.338   4.571 -3.5047  1.2872  0.3617
15208TIP3    H267116   1.891   6.302   4.426 -0.9235 -0.3265  0.3553
15209TIP3   OH267117   4.276   4.154  16.131 -0.1196  0.1781  0.4272
15209TIP3    H167118   4.282   4.103  16.050 -0.0889 -1.6323  1.5437
15209TIP3    H267119   4.361   4.141  16.173 -0.9139 -0.7117  1.7920
15210TIP3   OH267120   4.835   6.177  14.383  0.0396  0.3650  0.2977
15210TIP3    H167121   4.761   6.142  14.333 -0.0565  0.4505  0.3799
15210TIP3    H267122   4.848   6.265  14.348  0.0457  0.3824  0.3429
15211TIP3   OH267123   4.082   3.615  11.921 -0.0229 -0.1389  0.5194
15211TIP3    H167124   4.029   3.670  11.979  0.6845  3.6444 -2.1808
15211TIP3    H267125   4.168   3.613  11.963 -0.2042  0.4360  0.9354
15212TIP3   OH267126   0.078   4.202   0.919 -0.2202  0.1736  0.2644
15212TIP3    H167127   0.003   4.146   0.897  0.3876 -0.8540  0.7384
15212TIP3    H267128   0.153   4.155   0.883  0.1677  1.3569 -0.4868
15213TIP3   OH267129   3.232   6.541   3.520 -0.4970 -0.3247 -0.0254
15213TIP3    H167130   3.309   6.597   3.513 -0.3084 -0.4787  0.8760
15213TIP3    H267131   3.251   6.482   3.592 -2.5096  1.3006  1.9035
15214TIP3   OH267132   3.167   3.859  14.812 -0.6710 -0.8365  0.0343
15214TIP3    H167133   3.244   3.812  14.780 -0.7792 -0.0818 -1.3793
15214TIP3    H267134   3.093   3.803  14.787 -0.6933 -0.7285 -0.1390
15215TIP3   OH267135   3.080   0.774   3.527  0.4375 -0.2054  0.1301
15215TIP3    H167136   3.014   0.778   3.458 -0.3497  0.7520  0.9221
15215TIP3    H267137   3.145   0.840   3.502  1.1760 -1.2083 -0.6952
15216TIP3   OH267138   6.594   4.631  14.501 -0.0072 -0.1107  0.1377
15216TIP3    H167139   6.541   4.555  14.476  2.3917 -1.3396 -1.3401
15216TIP3    H267140   6.654   4.644  14.428  1.3877  1.5979  1.5437
15217TIP3   OH267141   2.255   3.503  14.240 -0.5137 -0.3624  0.5679
15217TIP3    H167142   2.330   3.494  14.181 -1.3994 -2.4522 -0.3137
15217TIP3    H267143   2.293   3.505  14.328  0.7431  1.6020 -0.0151
15218TIP3   OH267144   1.606   5.357   0.417 -0.0087 -0.0247 -0.1229
15218TIP3    H167145   1.580   5.437   0.372  0.0834 -0.1032 -0.3162
15218TIP3    H267146   1.689   5.333   0.377 -0.4703 -0.6976 -0.6715
15219TIP3   OH267147   2.632   4.904  15.652 -0.0543 -0.2247  0.0223
15219TIP3    H167148   2.698   4.861  15.599  2.1367 -0.5520  2.8778
15219TIP3    H267149   2.651   4.998  15.643  0.8427 -0.3196  0.8552
15220TIP3   OH267150   4.188   0.267  16.485  0.0045 -0.8393  0.2172
15220TIP3    H167151   4.178   0.192  16.427  0.6264 -1.4181  0.8506
15220TIP3    H267152   4.205   0.228  16.571  1.1752  0.0402  0.3825
15221TIP3   OH267153   4.833   1.954   5.150 -0.0162  0.2361 -0.1717
15221TIP3    H167154   4.908   1.895   5.140  0.3289  0.6657 -0.1425
15221TIP3    H267155   4.758   1.904   5.117  0.4712  0.2295 -1.3048
15222TIP3   OH267156   0.925   1.033  16.795 -0.1155  0.3288  0.2448
15222TIP3    H167157   0.995   1.001  16.852 -0.2393 -0.1320  0.1379
15222TIP3    H267158   0.970   1.059  16.714 -0.0861 -0.1373  0.1078
15223TIP3   OH267159   4.009   1.611  11.806 -0.2745 -0.0807 -0.1756
15223TIP3    H167160   4.002   1.552  11.881 -0.0609  1.3990  1.0508
15223TIP3    H267161   4.090   1.660  11.822 -1.4959  1.9721 -0.0568
15224TIP3   OH267162   4.815   1.541   3.524 -0.1872  0.1520 -0.2508
15224TIP3    H167163   4.737   1.597   3.528  0.9872  1.9498 -1.9370
15224TIP3    H267164   4.779   1.452   3.516 -2.0592  0.8529 -0.0539
15225TIP3   OH267165   6.491   5.116  16.649 -0.4328 -0.4649 -0.2362
15225TIP3    H167166   6.412   5.170  16.651 -0.0792  0.0239  0.6383
15225TIP3    H267167   6.555   5.165  16.701 -0.8631 -2.9258  2.7634
15226TIP3   OH267168   0.088   1.480  16.281  0.3226  0.2286  0.1246
15226TIP3    H167169   0.168   1.442  16.243  1.6602  2.9022  0.1829
15226TIP3    H267170   0.037   1.509  16.205  0.9222  1.4682  0.1826
15227TIP3   OH267171   3.881   1.977   5.202 -0.3693 -0.4209  0.2529
15227TIP3    H167172   3.829   1.916   5.254  2.0647 -3.0577 -0.2535
15227TIP3    H267173   3.911   1.926   5.128  1.6650  1.4389 -0.2695
15228TIP3   OH267174   1.094   5.752   0.439  0.4788 -0.0334 -0.3098
15228TIP3    H167175   1.099   5.659   0.419  2.0837 -0.4531  1.7894
15228TIP3    H267176   1.185   5.782   0.434  0.1394  1.1171  0.3227
15229TIP3   OH267177   5.502   1.882   0.324 -0.2280 -0.6453 -0.4539
15229TIP3    H167178   5.417   1.922   0.308 -0.0516  0.3989  1.1103
15229TIP3    H267179   5.483   1.800   0.370 -0.3834 -0.2638  0.1695
15230TIP3   OH267180   0.612   2.318   2.672 -0.3711 -0.4478  0.2581
15230TIP3    H167181   0.552   2.331   2.746  0.3174 -0.5297  0.8417
15230TIP3    H267182   0.693   2.361   2.700 -0.3661  0.2514 -0.8015
15231TIP3   OH267183   5.767   5.236  11.329 -0.9196 -0.1199 -0.0424
15231TIP3    H167184   5.743   5.280  11.411  0.6500  1.2863 -0.3182
15231TIP3    H267185   5.846   5.281  11.300  0.2303 -2.5588 -0.8063
15232TIP3   OH267186   1.704   6.423  16.701 -0.1984 -0.1756  0.2106
15232TIP3    H167187   1.736   6.514  16.704 -0.1755 -0.0953 -1.7127
15232TIP3    H267188   1.612   6.431  16.677 -0.5953 -0.6167  1.5195
15233TIP3   OH267189   3.478   3.979   2.632 -0.0658 -0.0529  0.9016
15233TIP3    H167190   3.533   3.940   2.700 -0.0129  0.9997  1.4633
15233TIP3    H267191   3.406   4.019   2.679 -1.6391 -1.9022  0.1265
15234TIP3   OH267192   4.110   0.189   0.580 -0.1625  0.0568  0.1737
15234TIP3    H167193   4.070   0.121   0.526  0.4274 -0.2011  0.0579
15234TIP3    H267194   4.146   0.142   0.655  1.0153  0.1163 -0.3328
15235TIP3   OH267195   4.337   6.127   0.508 -0.0703  0.3942  0.1880
15235TIP3    H167196   4.352   6.175   0.590 -2.5316  0.2064  0.7663
15235TIP3    H267197   4.375   6.041   0.523  1.2710  0.9961  0.3863
15236TIP3   OH267198   6.092   0.000   6.027  0.7623 -0.5102  0.0479
15236TIP3    H167199   6.121  -0.079   5.981 -0.3806 -2.7063  2.9405
15236TIP3    H267200   6.140  -0.002   6.110 -0.6118  0.9131  0.9062
15237TIP3   OH267201   3.972   5.694  14.061  0.1595  0.0467 -0.3308
15237TIP3    H167202   4.033   5.729  13.996  0.0704 -0.6119 -0.7761
15237TIP3    H267203   4.009   5.608  14.084  1.4215  1.1953  2.1556
15238TIP3   OH267204   4.126   0.382  17.288  0.5259  0.3025 -0.1790
15238TIP3    H167205   4.211   0.350  17.257  0.9679  0.5204  0.7932
15238TIP3    H267206   4.147   0.462  17.335 -0.2034  0.2694  0.2013
15239TIP3   OH267207   4.612   4.668   1.544  0.1352 -0.2708 -0.3591
15239TIP3    H167208   4.558   4.690   1.468  0.5593 -2.1131 -1.2179
15239TIP3    H267209   4.688   4.622   1.507  0.1359 -1.5590  1.2119
15240TIP3   OH267210   3.459   6.226   2.002  0.3820 -0.3125 -0.4559
15240TIP3    H167211   3.548   6.261   2.004 -0.3843  1.9537 -2.6889
15240TIP3    H267212   3.450   6.187   1.916 -1.5067  1.6203 -1.1865
15241TIP3   OH267213   5.792   2.961   1.543  0.3309  0.0700 -0.4496
15241TIP3    H167214   5.869   2.907   1.528  1.0002  1.3671 -1.8298
15241TIP3    H267215   5.822   3.051   1.528 -1.0843  0.7191  0.4590
15242TIP3   OH267216   2.375   1.502   2.627 -0.1598 -0.3871  1.1677
15242TIP3    H167217   2.399   1.555   2.702 -0.8665 -0.5617  1.5185
15242TIP3    H267218   2.458   1.486   2.581  0.4875 -1.4634  2.6751
15243TIP3   OH267219   5.994   0.857   3.807  0.0706  0.1578 -0.2139
15243TIP3    H167220   6.061   0.838   3.741  0.6089  1.7378 -0.1458
15243TIP3    H267221   6.024   0.938   3.849 -1.5322  0.5197  0.2665
15244TIP3   OH267222   1.523   3.886   2.407 -0.6030 -0.0992 -0.0418
15244TIP3    H167223   1.568   3.869   2.489  0.7971  1.3841 -0.4829
15244TIP3    H267224   1.521   3.981   2.400 -0.2905 -0.2088 -1.9427
15245TIP3   OH267225   6.744   1.360   3.937  0.1327 -0.4580 -0.1026
15245TIP3    H167226   6.747   1.432   3.875  0.7864  1.0416  1.6499
15245TIP3    H267227   6.756   1.282   3.883  1.7055  0.8782 -1.7499
15246TIP3   OH267228   4.330   4.805  16.598 -0.0913 -0.0095 -0.7377
15246TIP3    H167229   4.264   4.873  16.611 -1.3653 -0.7736 -2.9392
15246TIP3    H267230   4.294   4.727  16.641 -0.3835 -0.2858 -1.4765
15247TIP3   OH267231   3.964   6.628   1.957 -0.1818  0.2127  0.0340
15247TIP3    H167232   3.960   6.663   1.868  1.3801  0.7731  0.1649
15247TIP3    H267233   4.001   6.540   1.947 -0.8304 -0.0668  0.0511
15248TIP3   OH267234   6.751   1.297   0.525 -0.8281  0.0566 -0.3046
15248TIP3    H167235   6.737   1.384   0.561 -1.6025  0.6297 -1.9828
15248TIP3    H267236   6.823   1.261   0.577 -0.7793  1.5277  0.6580
15249TIP3   OH267237   1.085   6.475  14.734 -0.0413 -0.1336  0.2820
15249TIP3    H167238   1.041   6.533  14.672 -0.1293 -0.7133 -0.2002
15249TIP3    H267239   1.023   6.403  14.748 -0.6341  0.7021  2.1541
15250TIP3   OH267240   4.111   2.239   2.386 -0.1823  0.1882  0.4747
15250TIP3    H167241   4.023   2.264   2.415  0.3972  3.2442 -0.2113
15250TIP3    H267242   4.096   2.181   2.311 -1.6514  2.4695 -1.0597
15251TIP3   OH267243   1.634   1.619  15.064  0.0970 -0.3783  0.2329
15251TIP3    H167244   1.599   1.543  15.111 -0.4935  0.8462  1.8335
15251TIP3    H267245   1.557   1.672  15.043  0.3729 -0.8152 -2.0157
15252TIP3   OH267246   0.980   4.133   5.548  0.4235 -0.8696 -0.0557
15252TIP3    H167247   0.942   4.202   5.495  0.6185 -0.0628  0.8351
15252TIP3    H267248   1.068   4.120   5.513 -0.1236 -1.6810 -1.1453
15253TIP3   OH267249   6.546   3.061  17.271  0.6468 -0.2690 -0.2120
15253TIP3    H167250   6.537   3.126  17.201 -0.0295  0.0895  0.2020
15253TIP3    H267251   6.630   3.081  17.312  0.1844  0.6976  0.2670
15254TIP3   OH267252   4.397   6.236  13.777  0.1049  0.6420  0.1719
15254TIP3    H167253   4.336   6.226  13.703  0.7722  0.1469 -0.3092
15254TIP3    H267254   4.359   6.307  13.829 -0.3171  1.0686 -0.7036
15255TIP3   OH267255   3.033   0.576  15.310  0.0161  0.0899  0.2457
15255TIP3    H167256   3.108   0.516  15.314  0.3202  0.5195  1.1117
15255TIP3    H267257   3.071   0.659  15.282 -0.2475  0.1290  0.0053
15256TIP3   OH267258   5.053   5.907  15.603  0.3635  0.1474 -0.2710
15256TIP3    H167259   5.060   5.971  15.532 -0.0047  0.3849 -0.0963
15256TIP3    H267260   5.032   5.959  15.680 -0.0483 -0.1916 -0.1505
15257TIP3   OH267261   0.629   5.039  12.303  0.6347 -0.1206 -0.2947
15257TIP3    H167262   0.679   5.022  12.383 -0.1898 -0.8026  0.0863
15257TIP3    H267263   0.676   5.110  12.260  1.8859 -0.7156  0.0866
15258TIP3   OH267264   6.161   0.122   0.693  0.2087 -0.6206 -0.5155
15258TIP3    H167265   6.106   0.102   0.769  0.2883 -0.2273 -0.3552
15258TIP3    H267266   6.223   0.187   0.725 -0.3700  0.2590 -1.1789
15259TIP3   OH267267   0.380   4.761  15.315 -0.1865  0.1005  0.2889
15259TIP3    H167268   0.295   4.777  15.274 -0.6942 -0.1613  1.2299
15259TIP3    H267269   0.422   4.847  15.318  0.7187 -0.1710 -2.6388
15260TIP3   OH267270   2.846   4.402   5.540  0.5361  0.1563  0.2643
15260TIP3    H167271   2.920   4.462   5.529 -0.1199  1.1314  1.0700
15260TIP3    H267272   2.790   4.444   5.606 -0.7825 -0.5177 -0.3969
15261TIP3   OH267273   3.170   5.689  15.249 -0.2141  0.0284 -0.3089
15261TIP3    H167274   3.139   5.615  15.196  0.3389 -1.3011  1.1671
15261TIP3    H267275   3.159   5.765  15.193 -0.9611 -1.1565 -1.8141
15262TIP3   OH267276   0.218   3.386  14.767  0.2600 -0.3555  0.0852
15262TIP3    H167277   0.254   3.371  14.679 -0.5807 -2.0113  0.0116
15262TIP3    H267278   0.143   3.444  14.753  0.5253 -0.0829 -0.2092
15263TIP3   OH267279   0.906   4.871  15.099 -0.4679  0.2742  0.2143
15263TIP3    H167280   0.974   4.811  15.131 -0.5931 -0.5905 -1.1013
15263TIP3    H267281   0.888   4.928  15.174  2.1455  0.9195  0.4029
15264TIP3   OH267282   0.921   1.706  11.109  0.3890 -0.0967  0.4450
15264TIP3    H167283   0.901   1.691  11.202 -1.3741 -1.6556 -0.1496
15264TIP3    H267284   0.860   1.775  11.082 -1.2000 -1.7303 -0.2621
15265TIP3   OH267285   6.684   4.431  11.392  0.2823 -0.6005 -0.1132
15265TIP3    H167286   6.683   4.415  11.298  0.5502 -1.6164  0.0510
15265TIP3    H267287   6.776   4.435  11.415  0.2172  1.4187 -0.1813
15266TIP3   OH267288   2.189   0.019  15.095  0.4275  0.3109  0.2617
15266TIP3    H167289   2.224  -0.022  15.175  0.0364  0.0537  0.3033
15266TIP3    H267290   2.261   0.073  15.063  1.0502 -0.6341  0.0480
15267TIP3   OH267291   5.595   5.140   0.039 -0.0903  0.3420  0.2580
15267TIP3    H167292   5.573   5.217  -0.013 -0.6283 -0.1940 -0.3004
15267TIP3    H267293   5.671   5.102  -0.004 -0.3672  0.0549  0.0239
15268TIP3   OH267294   2.880   1.493   2.063 -0.0431  0.2157  0.2973
15268TIP3    H167295   2.948   1.545   2.022  0.7110 -1.6030 -0.8174
15268TIP3    H267296   2.816   1.477   1.993 -0.3514 -0.2079  0.6704
15269TIP3   OH267297   5.809   3.393  16.295 -0.0860 -0.0555 -0.2058
15269TIP3    H167298   5.773   3.313  16.257  2.0068 -0.7259 -0.8710
15269TIP3    H267299   5.816   3.375  16.388  0.3589 -0.6438 -0.3512
15270TIP3   OH267300   2.026   5.070   1.866  0.4911 -0.2458 -0.1192
15270TIP3    H167301   2.026   5.125   1.788  0.6217 -0.2860 -0.1476
15270TIP3    H267302   2.023   4.981   1.833  1.4798 -0.2868 -0.0943
15271TIP3   OH267303   1.636   6.518  16.010 -0.6149  0.2008 -0.0453
15271TIP3    H167304   1.726   6.488  15.999  0.4693  2.8924  1.0247
15271TIP3    H267305   1.616   6.500  16.102 -1.7737 -1.8888 -0.6830
15272TIP3   OH267306   3.803   6.187   3.985 -0.3492  0.5050  0.3382
15272TIP3    H167307   3.742   6.125   3.947  0.1071 -0.1210  0.6164
15272TIP3    H267308   3.856   6.217   3.911  0.5746 -0.7550  0.4775
15273TIP3   OH267309   3.108   5.327  12.546  0.5218  0.2640 -0.1758
15273TIP3    H167310   3.122   5.315  12.640 -1.4478 -3.0373 -0.2024
15273TIP3    H267311   3.020   5.362  12.538 -0.3434 -1.9416 -0.8273
15274TIP3   OH267312   6.032   2.191  14.215 -0.3672 -0.4061  0.1158
15274TIP3    H167313   5.944   2.174  14.248  0.5746 -2.7652  1.5750
15274TIP3    H267314   6.081   2.222  14.292  0.5531 -0.9863 -0.2213
15275TIP3   OH267315   4.369   0.892  15.586  0.0486  0.7764 -0.7675
15275TIP3    H167316   4.412   0.822  15.636 -3.4337  0.0322  1.2919
15275TIP3    H267317   4.434   0.963  15.584  1.8910 -0.7851  1.1350
15276TIP3   OH267318   5.202   2.047   4.436 -0.0499 -0.0895  0.1042
15276TIP3    H167319   5.108   2.050   4.422 -0.0146  0.9672  0.0428
15276TIP3    H267320   5.239   2.019   4.352 -0.2697  0.0896 -0.0511
15277TIP3   OH267321   2.729   4.714   0.778  0.0666 -0.1136  0.1635
15277TIP3    H167322   2.768   4.722   0.865 -1.6057 -0.5226  0.9574
15277TIP3    H267323   2.747   4.798   0.736  1.7780 -0.2833  0.5085
15278TIP3   OH267324   1.768   5.752   5.124 -0.3135  0.0297  0.6141
15278TIP3    H167325   1.804   5.817   5.184  0.7552 -0.0137  0.0369
15278TIP3    H267326   1.832   5.681   5.123  0.8183  1.0044 -2.2639
15279TIP3   OH267327   4.400   1.978   1.944 -0.7461 -0.2135  0.2942
15279TIP3    H167328   4.341   1.949   1.875 -0.7984 -1.3881  0.8064
15279TIP3    H267329   4.366   2.062   1.972 -0.7503  0.2423 -1.0721
15280TIP3   OH267330   6.298   4.145  12.812  0.4427  0.2057  0.2747
15280TIP3    H167331   6.367   4.203  12.844  0.8129 -0.5475  0.8652
15280TIP3    H267332   6.217   4.178  12.850  0.5008  0.9989 -0.2887
15281TIP3   OH267333   4.948   5.093  14.642 -0.2717 -0.2620 -0.0185
15281TIP3    H167334   4.968   5.156  14.573 -2.5246  0.6517  0.1099
15281TIP3    H267335   4.995   5.125  14.719  1.4240 -0.7126 -0.8490
15282TIP3   OH267336   0.101   5.175   2.997  0.5155 -0.7894 -0.1885
15282TIP3    H167337   0.007   5.158   3.007  0.4836 -1.8875 -2.1785
15282TIP3    H267338   0.115   5.256   3.046 -1.4593 -0.6560  0.2191
15283TIP3   OH267339   6.307   5.009  16.350  0.3173  0.3191  0.4133
15283TIP3    H167340   6.273   4.920  16.347  0.6338  0.2395 -0.8521
15283TIP3    H267341   6.316   5.027  16.444 -1.2788 -0.3817  0.7345
15284TIP3   OH267342   0.317   4.496  13.949  0.6775 -0.2518 -0.2151
15284TIP3    H167343   0.283   4.578  13.985  0.5221 -0.2351 -0.3964
15284TIP3    H267344   0.240   4.439  13.946  0.5803 -0.0740 -1.0322
15285TIP3   OH267345   2.871   3.461  13.742  0.3223  1.0465  0.5174
15285TIP3    H167346   2.937   3.471  13.810  0.2874  2.0820  0.4091
15285TIP3    H267347   2.875   3.369  13.717  1.4760  1.0313  0.7552
15286TIP3   OH267348   6.089   1.448   0.771 -0.5216 -0.1763 -0.2463
15286TIP3    H167349   6.011   1.423   0.723 -1.9372  0.7468  1.5190
15286TIP3    H267350   6.153   1.379   0.751 -2.0129 -1.3307 -1.1119
15287TIP3   OH267351   3.895   5.163  16.560  0.1217  0.0641  0.0593
15287TIP3    H167352   3.851   5.232  16.509  1.9339  0.8106 -0.5427
15287TIP3    H267353   3.890   5.194  16.650 -2.0955 -0.7108  0.2480
15288TIP3   OH267354   5.461   4.774   1.974 -0.6656  0.3475  0.0037
15288TIP3    H167355   5.501   4.859   1.952  0.0284 -0.3011 -1.3148
15288TIP3    H267356   5.527   4.710   1.948 -0.6827 -0.5612  2.1465
15289TIP3   OH267357   5.849   1.360  14.752 -0.4463 -0.1390  0.4007
15289TIP3    H167358   5.826   1.381  14.842 -0.7252  0.5690  0.1679
15289TIP3    H267359   5.778   1.396  14.700  0.7531  1.3315 -0.2581
15290TIP3   OH267360   2.803   4.454  10.382  0.0504 -0.3483  0.4607
15290TIP3    H167361   2.710   4.432  10.385 -0.5509  2.1801  2.0637
15290TIP3    H267362   2.848   4.369  10.390 -2.0743 -1.6636 -0.9846
15291TIP3   OH267363   1.122   3.021   5.343 -0.6005 -0.3108 -0.1732
15291TIP3    H167364   1.070   3.059   5.272  0.7178 -2.5299 -2.4216
15291TIP3    H267365   1.071   2.945   5.372 -0.5928 -0.0672  0.4816
15292TIP3   OH267366   3.812   6.378  16.624  0.2472 -0.6308 -0.9174
15292TIP3    H167367   3.862   6.433  16.685 -0.6135  0.4399 -1.1818
15292TIP3    H267368   3.867   6.300  16.613  0.8070 -0.4616  0.5691
15293TIP3   OH267369   2.388   4.513  11.492  0.2895  0.3346 -0.0837
15293TIP3    H167370   2.330   4.561  11.432 -0.9248 -0.3927  0.4807
15293TIP3    H267371   2.340   4.512  11.575  2.3281  2.0761  1.1719
15294TIP3   OH267372   6.173   6.073  13.235  0.3674 -0.4720 -0.4116
15294TIP3    H167373   6.199   6.058  13.326 -1.5662 -1.8877 -0.0660
15294TIP3    H267374   6.145   6.165  13.234  0.3207 -0.4695  0.4219
15295TIP3   OH267375   2.489   0.975   3.244 -0.2509 -0.2853  0.3074
15295TIP3    H167376   2.412   1.022   3.275 -1.0435 -1.1302 -0.3296
15295TIP3    H267377   2.453   0.897   3.201  0.9964 -1.0529  0.6416
15296TIP3   OH267378   5.349   5.105  17.024 -0.5163  0.3451 -0.1989
15296TIP3    H167379   5.280   5.044  17.049 -1.2690  0.5457 -1.7165
15296TIP3    H267380   5.315   5.191  17.047  0.3320  0.2438  1.4657
15297TIP3   OH267381   0.821   0.172  12.831 -0.1927 -0.1603 -0.6946
15297TIP3    H167382   0.847   0.249  12.882  2.5164 -1.1406 -0.5102
15297TIP3    H267383   0.797   0.207  12.745 -0.6994  1.0642 -0.0627
15298TIP3   OH267384   5.420   3.883  15.889 -0.2736  0.1573 -0.1287
15298TIP3    H167385   5.448   3.798  15.854  1.5567  1.0342 -0.8965
15298TIP3    H267386   5.417   3.869  15.984  3.2851  0.0786  0.0576
15299TIP3   OH267387   3.373   5.971   3.651  0.4885 -0.1763  0.2350
15299TIP3    H167388   3.289   5.932   3.630  1.0532 -0.8578 -0.7987
15299TIP3    H267389   3.436   5.901   3.639  1.6197  1.2004 -2.4927
15300TIP3   OH267390   5.611   4.234   2.513 -0.5579  0.0937 -0.2623
15300TIP3    H167391   5.673   4.283   2.459  0.2727 -1.0878 -0.3980
15300TIP3    H267392   5.664   4.169   2.558 -1.1834  1.3388  2.3520
15301TIP3   OH267393   6.772   4.855  13.909  0.6927 -0.1938  0.1453
15301TIP3    H167394   6.848   4.814  13.952  0.1610 -1.3718 -0.0409
15301TIP3    H267395   6.782   4.948  13.930  0.6427 -0.6800  2.5603
15302TIP3   OH267396   2.754   3.930  16.089  0.7562 -0.2884 -0.7212
15302TIP3    H167397   2.817   3.908  16.020  0.3993  1.1871 -1.5360
15302TIP3    H267398   2.735   4.023  16.076 -0.9986 -0.5156 -0.0062
15303TIP3   OH267399   4.035   5.334   6.618 -0.3980 -0.1132 -0.1559
15303TIP3    H167400   3.979   5.400   6.577  0.2399 -0.9933 -2.5449
15303TIP3    H267401   4.043   5.265   6.552 -1.8004 -3.0439  2.6244
15304TIP3   OH267402   4.407   4.003   2.750  0.3601 -0.1103  0.5396
15304TIP3    H167403   4.481   3.987   2.809 -2.0208 -2.1681  3.1100
15304TIP3    H267404   4.436   3.968   2.666  2.1778 -1.2843  1.6075
15305TIP3   OH267405   3.734   6.557   2.436 -0.0193 -0.2677  0.4986
15305TIP3    H167406   3.739   6.653   2.433  0.1974 -0.3127 -1.6512
15305TIP3    H267407   3.651   6.537   2.391  0.7232 -1.1415 -0.4972
15306TIP3   OH267408   4.983   3.768   4.915 -0.6745 -0.1324 -0.4242
15306TIP3    H167409   4.944   3.815   4.841 -1.1124  2.1515  1.1996
15306TIP3    H267410   5.035   3.834   4.960  0.6601 -1.8353  0.5658
15307TIP3   OH267411   3.464   2.035   4.103 -0.1517 -0.0302 -0.4102
15307TIP3    H167412   3.520   2.058   4.028  1.8125 -0.0673  0.9940
15307TIP3    H267413   3.504   1.955   4.139 -1.4140 -0.3409  0.3304
15308TIP3   OH267414   6.564   5.650  15.875 -0.3030  0.2858  0.3375
15308TIP3    H167415   6.474   5.677  15.859  0.0794  0.0677 -2.4176
15308TIP3    H267416   6.557   5.557  15.895 -0.7652  0.4740  1.0876
15309TIP3   OH267417   6.132   1.147  14.726 -0.0132  0.2996  0.2637
15309TIP3    H167418   6.168   1.197  14.653 -0.0348  0.4584  0.3626
15309TIP3    H267419   6.044   1.182  14.739 -0.2604 -0.1885 -0.0737
15310TIP3   OH267420   1.099   6.149   0.675  0.0944 -0.5747 -0.5488
15310TIP3    H167421   1.058   6.062   0.671 -1.4286  0.1673 -1.6005
15310TIP3    H267422   1.071   6.184   0.760  1.3231 -1.3860  0.2102
15311TIP3   OH267423   6.746   4.143  12.272  0.6157  0.0065 -0.0359
15311TIP3    H167424   6.752   4.195  12.352 -0.0705 -2.3025  1.5567
15311TIP3    H267425   6.767   4.205  12.202 -1.5217  2.7691  1.6660
15312TIP3   OH267426   2.618   3.346   4.246  0.1082 -0.6197  0.0109
15312TIP3    H167427   2.597   3.406   4.318  0.2355 -1.8984  1.1455
15312TIP3    H267428   2.545   3.285   4.243 -0.0884 -0.3416 -1.2328
15313TIP3   OH267429   5.710   2.072   2.708 -0.1539  0.1923 -0.3430
15313TIP3    H167430   5.630   2.028   2.678 -0.9629  1.3293  0.1350
15313TIP3    H267431   5.707   2.064   2.803  1.1284 -1.1815 -0.4057
15314TIP3   OH267432   6.566   4.653  12.607  0.2720  0.3719 -0.6589
15314TIP3    H167433   6.537   4.696  12.527  1.3666  0.0463 -1.2395
15314TIP3    H267434   6.660   4.674  12.613  0.6693 -1.3639 -0.5965
15315TIP3   OH267435   1.544   5.744  15.606 -0.7887 -0.5832 -0.0818
15315TIP3    H167436   1.508   5.808  15.669  0.0196 -0.7600  0.5697
15315TIP3    H267437   1.531   5.660  15.649  0.9951 -0.5984  0.4547
15316TIP3   OH267438   2.129   0.463   4.337 -0.4643 -0.2659  0.5333
15316TIP3    H167439   2.121   0.467   4.433 -3.7405 -0.6992  0.3340
15316TIP3    H267440   2.090   0.544   4.306 -1.8795 -1.3076 -0.5145
15317TIP3   OH267441   0.456   2.339   5.773 -0.1071  0.4420  0.1044
15317TIP3    H167442   0.532   2.391   5.799  0.5199 -0.1315 -0.5667
15317TIP3    H267443   0.465   2.258   5.824 -1.5559  1.3173  1.8216
15318TIP3   OH267444   5.211   0.807  12.844  0.4068 -0.7515  0.3165
15318TIP3    H167445   5.304   0.826  12.837 -0.0143  1.1865 -0.4347
15318TIP3    H267446   5.192   0.751  12.769  0.7214 -0.0999 -0.2565
15319TIP3   OH267447   5.907   3.629   2.672 -0.0152 -0.0471  0.5980
15319TIP3    H167448   5.992   3.628   2.627 -0.0966  0.4270  0.4283
15319TIP3    H267449   5.927   3.607   2.763  0.4382  1.1674  0.8013
15320TIP3   OH267450   6.187   4.320  16.074 -0.4186  0.1309  0.1775
15320TIP3    H167451   6.128   4.247  16.052 -1.3471  1.9631 -3.9641
15320TIP3    H267452   6.261   4.310  16.015 -0.1444  2.0024  0.1578
15321TIP3   OH267453   4.553   1.368  17.074 -0.6191  0.3852 -0.7753
15321TIP3    H167454   4.461   1.357  17.053 -1.1790 -0.3616  1.8413
15321TIP3    H267455   4.554   1.432  17.146  0.7091 -1.0739  0.5645
15322TIP3   OH267456   3.308   6.385   4.381 -0.7395  0.5734 -0.3140
15322TIP3    H167457   3.269   6.414   4.298 -1.3325  0.2643 -0.1479
15322TIP3    H267458   3.238   6.338   4.425  0.3105 -1.3971 -0.7182
15323TIP3   OH267459   1.490   6.468   1.791 -0.4877 -0.4088 -0.2213
15323TIP3    H167460   1.479   6.555   1.753 -0.1207 -0.2613  0.0095
15323TIP3    H267461   1.544   6.420   1.727  0.7282  0.0579  0.4321
15324TIP3   OH267462   3.036   0.368   4.676  0.0060  0.0653  0.3819
15324TIP3    H167463   2.995   0.433   4.619  1.8170  1.9604  1.1262
15324TIP3    H267464   3.074   0.304   4.617 -0.0969  0.7784 -0.4703
15325TIP3   OH267465   4.831   2.154  15.861 -0.0455  0.0864  0.0557
15325TIP3    H167466   4.763   2.108  15.910 -0.4005  1.0353  0.4476
15325TIP3    H267467   4.789   2.235  15.832  0.4072 -0.0901 -1.1225
15326TIP3   OH267468   3.393   1.208   3.654 -0.0126 -0.2100  0.6964
15326TIP3    H167469   3.459   1.147   3.619 -1.2531 -1.5542  0.6351
15326TIP3    H267470   3.430   1.237   3.737  1.1705 -0.0693  0.1345
15327TIP3   OH267471   6.702   4.378   1.804  0.4771 -0.0307 -0.1004
15327TIP3    H167472   6.723   4.286   1.787 -0.4970 -0.1167 -0.8805
15327TIP3    H267473   6.733   4.394   1.893  2.3957 -0.5828 -0.6473
15328TIP3   OH267474   1.116   4.016  13.520  0.3140  0.1536  0.2737
15328TIP3    H167475   1.114   3.946  13.454  2.4439 -0.5918  0.9497
15328TIP3    H267476   1.060   4.085  13.484 -1.1228 -1.5329 -0.8151
15329TIP3   OH267477   2.588   2.571  11.030 -0.0395 -0.0253 -0.4459
15329TIP3    H167478   2.574   2.530  11.115 -0.9682  0.9157 -0.1296
15329TIP3    H267479   2.679   2.553  11.009 -0.0026 -0.8901  0.4105
15330TIP3   OH267480   6.642   2.056  15.626  0.1993  0.4911  0.0398
15330TIP3    H167481   6.700   2.114  15.576 -1.0904  1.1986 -0.6428
15330TIP3    H267482   6.558   2.100  15.627 -0.4118 -0.6581  0.8231
15331TIP3   OH267483   1.183   6.744  15.037  0.3936 -0.0506 -0.2164
15331TIP3    H167484   1.261   6.732  14.982 -0.1636 -1.3784 -0.7224
15331TIP3    H267485   1.193   6.680  15.107  0.7811  1.2041  0.9036
15332TIP3   OH267486   2.161   6.006   3.101 -0.1644  0.3470  0.2670
15332TIP3    H167487   2.210   5.960   3.170  0.5297  0.5347 -0.0908
15332TIP3    H267488   2.080   5.956   3.091  0.5195 -0.7208 -0.0242
15333TIP3   OH267489   2.653   6.688  12.357  0.2967 -0.6357 -0.3502
15333TIP3    H167490   2.688   6.741  12.286  1.1873 -0.6879  0.0413
15333TIP3    H267491   2.721   6.691  12.425 -0.0514 -1.5036  0.0436
15334TIP3   OH267492   4.733   5.169   6.242  0.0777  0.0553  0.6117
15334TIP3    H167493   4.658   5.114   6.221  0.0610 -0.4392  1.9104
15334TIP3    H267494   4.771   5.129   6.320 -0.4770  2.4174  2.1206
15335TIP3   OH267495   2.593   6.171   2.811  0.3315 -0.0720  0.2854
15335TIP3    H167496   2.656   6.234   2.776  0.1703 -0.2687 -0.3763
15335TIP3    H267497   2.537   6.223   2.869  0.8602  0.1816  0.5688
15336TIP3   OH267498   3.393   1.639  13.376  0.1161  0.2950  0.2501
15336TIP3    H167499   3.437   1.568  13.329 -0.3060  0.2220 -0.0450
15336TIP3    H267500   3.447   1.716  13.361  1.4508 -0.2892  1.9129
15337TIP3   OH267501   6.517   5.386   3.323 -0.1476  0.2570 -0.1608
15337TIP3    H167502   6.481   5.445   3.256 -0.3323  0.1268 -0.1728
15337TIP3    H267503   6.444   5.332   3.350 -0.6040  1.7532  1.6990
15338TIP3   OH267504   0.229   1.695   3.929 -0.3392 -0.0589  0.1902
15338TIP3    H167505   0.177   1.747   3.869 -0.0392  1.0033  0.8367
15338TIP3    H267506   0.318   1.699   3.894 -0.0276  1.1717  1.0933
15339TIP3   OH267507   4.381   5.226   0.765  0.0843 -0.0834 -0.0590
15339TIP3    H167508   4.452   5.276   0.805  0.4428 -1.0360  0.5151
15339TIP3    H267509   4.341   5.287   0.703  3.0412 -0.3345 -2.3070
15340TIP3   OH267510   3.008   4.459  13.542  0.7462 -0.3599  0.3486
15340TIP3    H167511   2.941   4.508  13.590  0.8925 -0.4441  0.6331
15340TIP3    H267512   3.084   4.458  13.599  0.7180 -0.9885  0.3761
15341TIP3   OH267513   3.471   6.130  15.330  0.0216 -0.5141  0.2201
15341TIP3    H167514   3.483   6.166  15.242 -0.7824  0.1980  0.3998
15341TIP3    H267515   3.544   6.167  15.380 -0.0987 -0.1144  0.1020
15342TIP3   OH267516   1.527   0.535  13.732 -0.7412  0.3375  0.5037
15342TIP3    H167517   1.457   0.593  13.701  0.0336  0.9344 -0.1685
15342TIP3    H267518   1.516   0.532  13.827 -0.5348  1.9347  0.5965
15343TIP3   OH267519   4.345   5.394  13.628  0.1206 -0.2947  1.0181
15343TIP3    H167520   4.417   5.414  13.688  1.0140 -0.6486  0.0704
15343TIP3    H267521   4.345   5.299  13.623 -2.1407 -0.4464  3.0986
15344TIP3   OH267522   4.195   2.151  13.212  0.3346  0.3079 -0.6053
15344TIP3    H167523   4.165   2.069  13.252 -0.9299 -0.9786 -3.9738
15344TIP3    H267524   4.266   2.181  13.268 -1.3090 -1.4038  2.5021
15345TIP3   OH267525   5.017   1.279   3.491  0.1086 -0.8422 -0.1843
15345TIP3    H167526   5.091   1.324   3.450 -0.4184 -0.0171 -0.2294
15345TIP3    H267527   5.038   1.279   3.585 -0.7157  1.0686  0.0254
15346TIP3   OH267528   5.886   5.287  14.668  0.1698 -0.0109  0.4032
15346TIP3    H167529   5.927   5.346  14.604  0.8595 -0.8841  0.0330
15346TIP3    H267530   5.827   5.344  14.718  0.9388  1.0278  0.1523
15347TIP3   OH267531   4.849   2.543  17.074 -0.3004  0.5685 -0.1432
15347TIP3    H167532   4.822   2.629  17.039  0.1774  0.5406 -0.5844
15347TIP3    H267533   4.833   2.482  17.002  0.4874  0.4742 -0.2443
15348TIP3   OH267534   3.494   4.633   4.889 -0.5868  0.0283  0.0798
15348TIP3    H167535   3.559   4.638   4.820  0.3633 -0.0775  0.9590
15348TIP3    H267536   3.411   4.651   4.845  0.1116  0.8586 -0.9169
15349TIP3   OH267537   5.014   5.972  16.854 -0.1317 -0.6494  0.3517
15349TIP3    H167538   4.978   6.036  16.916  0.1054 -0.0468 -0.1248
15349TIP3    H267539   5.099   5.949  16.889  0.7855  1.0552 -0.6720
15350TIP3   OH267540   5.616   2.086  10.859 -0.2975 -0.3447 -0.3541
15350TIP3    H167541   5.683   2.042  10.806 -1.0759 -1.9376 -0.0526
15350TIP3    H267542   5.663   2.113  10.938  0.2634 -0.3572 -0.6770
15351TIP3   OH267543   4.966   5.573   1.231 -0.0629 -0.7932  0.0816
15351TIP3    H167544   4.895   5.623   1.271  1.5942  2.9909 -1.4790
15351TIP3    H267545   5.046   5.606   1.273  1.1863 -1.2357 -1.8536
15352TIP3   OH267546   4.504   0.408   2.475  0.6093 -0.1605 -0.7684
15352TIP3    H167547   4.507   0.377   2.385 -0.5577 -0.8557 -0.5671
15352TIP3    H267548   4.584   0.460   2.485  0.3900  0.5142 -2.4177
15353TIP3   OH267549   1.059   1.794  13.146 -0.4585 -0.3216  0.8322
15353TIP3    H167550   0.986   1.821  13.202 -2.2834 -1.9199 -0.7450
15353TIP3    H267551   1.109   1.875  13.133 -1.5933  0.6772  2.3979
15354TIP3   OH267552   4.645   0.996  16.768 -0.1350 -0.5811 -0.6402
15354TIP3    H167553   4.634   1.084  16.731  2.4389 -0.3614 -0.9279
15354TIP3    H267554   4.582   0.942  16.721 -0.8911  0.8571 -1.3126
15355TIP3   OH267555   0.296   5.251  11.226 -0.7116  0.8064 -0.2756
15355TIP3    H167556   0.356   5.316  11.262  1.7503 -0.4934 -1.9392
15355TIP3    H267557   0.293   5.182  11.293 -2.8135  2.2587  1.1935
15356TIP3   OH267558   1.334   6.621  13.216 -0.6247 -0.3632 -0.1025
15356TIP3    H167559   1.367   6.696  13.166  0.4941 -0.4560  0.4780
15356TIP3    H267560   1.319   6.554  13.150  1.5826 -0.7402 -0.2512
15357TIP3   OH267561   5.431   3.459  14.337  0.3870 -0.4069 -0.0021
15357TIP3    H167562   5.469   3.459  14.425 -0.0013  1.6829  0.1899
15357TIP3    H267563   5.469   3.536  14.294 -2.2653  0.7306 -0.3910
15358TIP3   OH267564   5.396   3.067   2.625 -0.4367 -0.5706  0.1302
15358TIP3    H167565   5.489   3.056   2.606 -0.0346  0.6251  1.3165
15358TIP3    H267566   5.384   3.027   2.712 -0.6953  0.6959  0.6817
15359TIP3   OH267567   1.041   2.632   6.344 -0.0805  0.1346 -0.1156
15359TIP3    H167568   1.044   2.662   6.435  0.4031 -2.2386  0.6828
15359TIP3    H267569   0.989   2.698   6.299 -0.2770  1.3781  1.8720
15360TIP3   OH267570   1.615   1.496   1.315 -0.1016  0.3106  0.1199
15360TIP3    H167571   1.664   1.554   1.373 -1.0334  1.0883  0.1550
15360TIP3    H267572   1.634   1.529   1.227 -1.5132  1.3910  0.2031
15361TIP3   OH267573   4.006   1.924  16.960  0.3202  0.0599  0.0467
15361TIP3    H167574   4.091   1.967  16.956  0.6198 -0.4670  0.7661
15361TIP3    H267575   4.026   1.832  16.976 -0.3358 -0.2909 -1.0515
15362TIP3   OH267576   6.524   4.525  13.242 -0.2931  0.1140  0.0545
15362TIP3    H167577   6.497   4.486  13.326 -0.3086  0.0103  0.0016
15362TIP3    H267578   6.469   4.482  13.177  0.8009 -0.9520 -0.1824
15363TIP3   OH267579   3.209   2.060   3.671  1.0013  0.3921 -0.4800
15363TIP3    H167580   3.234   2.150   3.650  4.5433 -0.4759 -0.3379
15363TIP3    H267581   3.232   2.050   3.764  0.7260 -0.6689 -0.5247
15364TIP3   OH267582   6.123   1.631   2.827  0.2004  0.1098  0.0295
15364TIP3    H167583   6.060   1.703   2.837 -0.4464 -0.4093 -0.1955
15364TIP3    H267584   6.190   1.665   2.767 -0.7936  0.0903 -1.1232
15365TIP3   OH267585   2.373   1.054  12.376 -0.1812 -0.6969 -0.0243
15365TIP3    H167586   2.330   1.084  12.456  0.9100  1.1874 -0.1181
15365TIP3    H267587   2.458   1.022  12.404  0.2564  0.0900 -0.4481
15366TIP3   OH267588   1.545   5.452   1.269 -0.2888 -0.0832 -0.5976
15366TIP3    H167589   1.465   5.502   1.283  1.5254  2.9601 -0.5108
15366TIP3    H267590   1.562   5.409   1.353  0.1963  2.4055  0.6275
15367TIP3   OH267591   2.128   6.201  17.061 -0.4060 -0.0773  0.2520
15367TIP3    H167592   2.185   6.214  16.985 -0.8365  0.4900  0.0192
15367TIP3    H267593   2.146   6.112  17.090 -1.5520 -0.9640 -1.6501
15368TIP3   OH267594   0.161   0.479  11.006 -0.1934 -0.1362 -0.2901
15368TIP3    H167595   0.173   0.486  10.912 -0.7575 -1.2554 -0.4506
15368TIP3    H267596   0.243   0.440  11.038 -0.1932 -0.2108 -0.3811
15369TIP3   OH267597   4.360   5.039  15.937 -0.0146  0.4661  0.2297
15369TIP3    H167598   4.414   4.996  16.003  0.2991  0.4268 -0.0517
15369TIP3    H267599   4.320   4.967  15.888 -0.1736  0.4946  0.3210
15370TIP3   OH267600   0.220   4.496  16.977 -0.0425 -0.4328  0.0876
15370TIP3    H167601   0.253   4.408  16.958 -1.4756 -1.1187  0.7061
15370TIP3    H267602   0.145   4.507  16.919  0.1945  0.4474 -0.0740
15371TIP3   OH267603   6.581   2.544  14.312 -0.3941  0.2775 -0.6173
15371TIP3    H167604   6.536   2.542  14.227 -0.6126 -0.5075 -0.4912
15371TIP3    H267605   6.516   2.577  14.373 -0.1113  1.2308 -0.8211
15372TIP3   OH267606   2.919   4.057  15.408 -0.2214 -0.6890 -0.3807
15372TIP3    H167607   3.001   4.054  15.358 -1.9398 -1.8572 -3.2899
15372TIP3    H267608   2.861   4.112  15.354 -1.6145 -0.5593  1.2292
15373TIP3   OH267609   1.689   5.538  14.205 -0.7566  1.5050  0.1732
15373TIP3    H167610   1.655   5.616  14.162 -2.3824  0.5852 -0.2688
15373TIP3    H267611   1.719   5.482  14.133  2.0241  2.4229  0.5709
15374TIP3   OH267612   6.725   1.983  12.543 -0.1819  0.0267  0.6164
15374TIP3    H167613   6.757   1.991  12.453  0.1418  0.5504  0.7764
15374TIP3    H267614   6.632   2.007  12.538 -0.9969 -3.0615 -0.1266
15375TIP3   OH267615   6.580   0.499   2.442 -0.3584 -0.5000 -0.2992
15375TIP3    H167616   6.574   0.558   2.367 -2.2450 -0.4143 -0.1063
15375TIP3    H267617   6.672   0.501   2.467 -0.0135  0.7170 -1.6074
15376TIP3   OH267618   0.015   4.373   4.544  0.3521 -0.0136 -0.7620
15376TIP3    H167619   0.003   4.409   4.456  1.1090 -1.1356 -1.3462
15376TIP3    H267620   0.079   4.302   4.531 -0.8629 -1.3376  0.3959
15377TIP3   OH267621   4.143   2.781  15.102  0.1217 -0.7164 -0.1834
15377TIP3    H167622   4.207   2.810  15.036  1.7347  0.1904  1.7182
15377TIP3    H267623   4.058   2.796  15.061  1.0319  1.8475 -1.2841
15378TIP3   OH267624   5.766   0.072  12.304  0.2858  0.1512  0.4314
15378TIP3    H167625   5.793   0.027  12.224  0.1161 -1.5858  1.3227
15378TIP3    H267626   5.845   0.077  12.357  0.2099  0.5384  0.5109
15379TIP3   OH267627   5.144   6.605   1.769  0.6798 -0.4121  0.0192
15379TIP3    H167628   5.218   6.565   1.815 -0.5611 -3.2192 -0.3377
15379TIP3    H267629   5.185   6.659   1.701  2.4408 -1.5983  0.0993
15380TIP3   OH267630   2.599   6.658  15.096  0.1499 -0.1533 -0.0411
15380TIP3    H167631   2.508   6.675  15.069 -0.1060 -1.1017  0.1783
15380TIP3    H267632   2.603   6.562  15.102  1.5590 -0.1941 -1.4302
15381TIP3   OH267633   5.919   3.081   2.153  0.7845  0.2190 -0.5548
15381TIP3    H167634   5.850   3.052   2.213  2.4331 -1.6946  0.4754
15381TIP3    H267635   5.962   3.000   2.126  2.9722  1.4225 -0.7613
15382TIP3   OH267636   6.004   6.489   4.651 -0.4925  0.2446 -0.2854
15382TIP3    H167637   5.962   6.500   4.566 -3.9148 -0.4783  1.2268
15382TIP3    H267638   5.946   6.532   4.713 -0.0599 -2.4818  2.1558
15383TIP3   OH267639   4.474   4.196  13.737 -0.3227  0.0039 -0.2943
15383TIP3    H167640   4.554   4.149  13.760 -1.1700 -1.3937 -0.1590
15383TIP3    H267641   4.461   4.259  13.808  1.6045  1.4715 -1.1969
15384TIP3   OH267642   0.589   5.439   5.665 -0.0186 -0.1144  0.4723
15384TIP3    H167643   0.683   5.424   5.658 -0.4509 -2.7859 -0.0783
15384TIP3    H267644   0.552   5.353   5.687 -2.3407  0.8630  0.5698
15385TIP3   OH267645   5.608   1.978   2.208 -0.0729  0.1183  0.3863
15385TIP3    H167646   5.549   1.965   2.134 -1.8373 -0.5255  1.8491
15385TIP3    H267647   5.671   1.907   2.202 -1.0127 -0.7169  0.2340
15386TIP3   OH267648   3.105   3.550   1.684 -0.1052  0.0316 -0.3759
15386TIP3    H167649   3.142   3.545   1.773  1.1643 -0.8193 -0.9382
15386TIP3    H267650   3.173   3.592   1.632 -1.6647  2.4782 -0.5554
15387TIP3   OH267651   0.794   0.215  16.438 -0.4218 -0.0124  0.4289
15387TIP3    H167652   0.755   0.157  16.503 -2.5933  1.3666  0.4272
15387TIP3    H267653   0.753   0.189  16.356  1.0393 -0.6127 -0.1301
15388TIP3   OH267654   2.488   3.031  12.814 -0.4086  0.2834 -0.0675
15388TIP3    H167655   2.413   2.974  12.800  1.0068 -1.3601 -1.1380
15388TIP3    H267656   2.551   2.976  12.861  0.4517  1.3904  0.0952
15389TIP3   OH267657   6.350   6.195   5.815 -0.2771  0.0505 -0.0817
15389TIP3    H167658   6.358   6.205   5.720 -0.7151  0.1620 -0.1043
15389TIP3    H267659   6.365   6.283   5.850 -1.7372  0.3341 -0.1445
15390TIP3   OH267660   2.995   1.606  13.308  0.0924  0.3405  0.0702
15390TIP3    H167661   3.011   1.684  13.254 -0.7338  0.0059 -0.6578
15390TIP3    H267662   2.919   1.629  13.361 -0.0131  0.1129  0.0167
15391TIP3   OH267663   0.199   2.063   6.297  0.3939 -0.5118 -0.1950
15391TIP3    H167664   0.199   2.083   6.391  0.6466 -2.2620  0.2017
15391TIP3    H267665   0.107   2.050   6.275  0.3788 -0.6555 -0.0509
15392TIP3   OH267666   1.866   2.311  16.980 -0.5289  0.7677  0.0838
15392TIP3    H167667   1.933   2.258  17.024 -0.3981  0.6385 -0.2726
15392TIP3    H267668   1.855   2.269  16.895  0.3336  1.9409 -0.6105
15393TIP3   OH267669   0.349   1.159   3.569  0.6909 -0.0352 -0.3474
15393TIP3    H167670   0.341   1.077   3.618 -1.9961  1.5145  1.9865
15393TIP3    H267671   0.360   1.133   3.478  0.5292 -2.9700  0.4431
15394TIP3   OH267672   5.383   5.799   5.264  0.3782  0.1644 -0.0194
15394TIP3    H167673   5.413   5.884   5.296  1.7602 -0.0796 -0.6439
15394TIP3    H267674   5.442   5.735   5.303  0.8362 -0.3011 -1.4351
15395TIP3   OH267675   3.129   0.261  16.212  0.4043 -0.0856  0.1137
15395TIP3    H167676   3.034   0.270  16.207  0.3761 -0.2405  0.3331
15395TIP3    H267677   3.152   0.297  16.298  0.8719  2.5292 -1.0575
15396TIP3   OH267678   3.377   5.512  10.680  0.1246  0.7496 -0.1467
15396TIP3    H167679   3.422   5.429  10.693 -0.5773  0.1786 -1.3175
15396TIP3    H267680   3.388   5.559  10.763 -0.5880 -1.0245  0.9758
15397TIP3   OH267681   2.467   3.271  12.990 -0.1677 -0.1272 -0.0371
15397TIP3    H167682   2.463   3.189  12.940  1.6599 -0.5824  0.5063
15397TIP3    H267683   2.558   3.277  13.018 -0.1870  2.3171 -0.3974
15398TIP3   OH267684   4.405   6.759  11.927  0.2602 -0.1953 -0.3839
15398TIP3    H167685   4.320   6.801  11.913 -0.6000 -1.6959  0.2691
15398TIP3    H267686   4.401   6.679  11.875  0.5453 -1.2051  1.1116
15399TIP3   OH267687   6.536   6.040   4.452 -0.0595  0.8957 -0.4630
15399TIP3    H167688   6.457   5.986   4.452  0.4627  0.1248 -0.4051
15399TIP3    H267689   6.538   6.081   4.539  1.0396 -1.2241  0.5443
15400TIP3   OH267690   1.989   2.232   0.105  0.6153  0.4698  0.3996
15400TIP3    H167691   1.920   2.284   0.064 -0.8615 -1.1603  0.7423
15400TIP3    H267692   2.002   2.158   0.046  2.7009  1.2017 -0.0896
15401TIP3   OH267693   3.362   3.865  11.799 -0.2641  0.0843 -0.6327
15401TIP3    H167694   3.390   3.914  11.876  0.9864 -2.2085  0.4420
15401TIP3    H267695   3.270   3.887  11.788  0.3114  2.7683 -0.3194
15402TIP3   OH267696   5.551   5.823  15.159 -0.3374  0.2065  0.1298
15402TIP3    H167697   5.529   5.855  15.247 -0.7094  1.5331 -0.4343
15402TIP3    H267698   5.479   5.854  15.104 -0.7365 -1.6712 -0.4447
15403TIP3   OH267699   5.519   6.147  12.832  0.3645 -0.0464  0.4076
15403TIP3    H167700   5.453   6.193  12.781  1.0074 -0.3606 -0.7239
15403TIP3    H267701   5.473   6.070  12.866 -0.3931  0.8000  1.3350
15404TIP3   OH267702   0.998   4.037  17.086  0.4907  0.8018  0.1274
15404TIP3    H167703   0.919   3.998  17.047  0.2050  1.4980 -0.0028
15404TIP3    H267704   0.964   4.106  17.144  0.9626  0.4582  0.8118
15405TIP3   OH267705   5.198   4.870  17.099  0.0847 -0.1231  0.1690
15405TIP3    H167706   5.234   4.911  17.178 -0.5622 -0.9862  0.9246
15405TIP3    H267707   5.181   4.779  17.125 -1.9255  0.0808 -0.3858
15406TIP3   OH267708   4.225   6.560  13.310  0.4528  0.5762  0.3012
15406TIP3    H167709   4.276   6.569  13.230  0.3638 -0.2536  0.1399
15406TIP3    H267710   4.162   6.632  13.307 -0.0194  0.1233 -0.7302
15407TIP3   OH267711   3.444   5.402   1.875  0.0927  0.1645 -0.5410
15407TIP3    H167712   3.380   5.474   1.872  1.1510  1.1133 -0.3994
15407TIP3    H267713   3.421   5.347   1.799 -2.5574 -0.9525  0.9723
15408TIP3   OH267714   1.857   4.531  13.883  0.7140  0.6709  0.1970
15408TIP3    H167715   1.830   4.509  13.793  0.7894  1.2222  0.0400
15408TIP3    H267716   1.793   4.486  13.938  1.9527 -1.5178 -0.0661
15409TIP3   OH267717   0.159   4.581   4.690 -0.9711 -0.4545 -0.8490
15409TIP3    H167718   0.109   4.511   4.649  0.6292 -1.5314 -0.9981
15409TIP3    H267719   0.178   4.642   4.619  1.6710 -2.2456 -1.7821
15410TIP3   OH267720   5.362   2.931  16.748  0.2158  0.0131  0.0145
15410TIP3    H167721   5.354   2.999  16.815 -1.2841 -1.2043  1.0800
15410TIP3    H267722   5.297   2.956  16.682  0.2129  0.0209  0.0194
15411TIP3   OH267723   4.690   4.477  14.958  0.3077  0.1181 -0.3486
15411TIP3    H167724   4.616   4.480  15.019  0.6834 -0.0435  0.1125
15411TIP3    H267725   4.692   4.387  14.928  0.8706 -0.0964  0.3208
15412TIP3   OH267726   5.128   4.828   1.556 -0.5897 -0.4115  0.0830
15412TIP3    H167727   5.074   4.829   1.635 -0.5108  0.0851  0.1317
15412TIP3    H267728   5.178   4.910   1.560 -0.2567 -0.5977 -0.2531
15413TIP3   OH267729   3.508   2.376  17.033 -0.0626  0.1167 -0.2277
15413TIP3    H167730   3.585   2.378  16.977  0.1563  1.7419  0.1295
15413TIP3    H267731   3.459   2.455  17.011 -1.1525 -0.4127  0.2256
15414TIP3   OH267732   6.725   6.593   6.353  1.0258 -0.4643  0.2735
15414TIP3    H167733   6.750   6.525   6.415 -1.4602 -0.9059  0.8365
15414TIP3    H267734   6.689   6.663   6.407 -2.1052 -1.2648 -0.6366
15415TIP3   OH267735   6.481   1.295   3.816  0.5920 -0.3184 -0.3910
15415TIP3    H167736   6.510   1.327   3.901 -0.6410 -1.6085  0.5374
15415TIP3    H267737   6.550   1.323   3.755  0.4685  2.4238  0.6562
15416TIP3   OH267738   2.812   3.271   4.526 -0.2475  0.4789 -0.1462
15416TIP3    H167739   2.720   3.255   4.506  0.1503  2.0903 -3.4203
15416TIP3    H267740   2.821   3.366   4.528  1.5305  0.3421 -0.6521
15417TIP3   OH267741   0.626   3.265   0.351 -0.3387 -0.1374 -0.1039
15417TIP3    H167742   0.666   3.281   0.265 -1.0451  1.0152 -0.2295
15417TIP3    H267743   0.534   3.244   0.331  0.2031 -2.9916  0.1634
15418TIP3   OH267744   5.008   5.921   0.309 -0.0805  0.2828 -0.2346
15418TIP3    H167745   5.073   5.988   0.286  1.8252 -0.8321  1.7402
15418TIP3    H267746   4.925   5.968   0.311  1.0404  2.3208 -0.1243
15419TIP3   OH267747   1.472   5.871  13.184 -0.0575 -0.2868 -0.0374
15419TIP3    H167748   1.498   5.941  13.124 -1.9917  1.3517  0.9902
15419TIP3    H267749   1.430   5.805  13.127 -0.5534  0.5713 -0.6713
15420TIP3   OH267750   5.513   0.265  15.693  0.1014  0.4596 -0.2213
15420TIP3    H167751   5.591   0.308  15.727 -1.2419  1.9457  1.0151
15420TIP3    H267752   5.449   0.271  15.764 -1.4346  0.0568 -1.5448
15421TIP3   OH267753   6.025   5.157   3.893 -0.8304  0.1065  0.1882
15421TIP3    H167754   6.053   5.114   3.812  0.3588 -0.0802  0.6897
15421TIP3    H267755   5.930   5.146   3.894 -0.7118 -1.0883 -0.4953
15422TIP3   OH267756   2.366   3.302  13.863 -0.1083 -0.2775  0.1071
15422TIP3    H167757   2.455   3.284  13.832 -0.7992 -0.9503 -1.6048
15422TIP3    H267758   2.359   3.255  13.946  1.0705 -0.3945  0.1463
15423TIP3   OH267759   0.246   3.370   1.124  0.1377 -0.1174  0.2708
15423TIP3    H167760   0.210   3.298   1.176 -0.6063 -1.4384 -2.0147
15423TIP3    H267761   0.169   3.422   1.100  0.1751 -0.7731 -1.3452
15424TIP3   OH267762   0.758   0.457   2.493  0.3636  0.3025  0.2138
15424TIP3    H167763   0.670   0.426   2.471  0.4040  0.9840 -0.9766
15424TIP3    H267764   0.753   0.482   2.585 -1.0679  1.5857 -0.1880
15425TIP3   OH267765   0.656   4.487   2.355  0.1059  0.7755  0.0422
15425TIP3    H167766   0.695   4.536   2.428 -1.4208  1.1017  0.6619
15425TIP3    H267767   0.612   4.554   2.303  1.9908  0.6774 -1.7387
15426TIP3   OH267768   0.245   1.581   2.265  0.4369  0.7648 -0.0477
15426TIP3    H167769   0.292   1.607   2.186  1.8470  3.1932  1.5426
15426TIP3    H267770   0.313   1.564   2.329 -0.7323 -0.0882  0.9938
15427TIP3   OH267771   5.670   5.689  17.102  0.0382 -0.5249  0.5390
15427TIP3    H167772   5.671   5.710  17.196 -0.2436  2.2360 -0.0144
15427TIP3    H267773   5.745   5.632  17.089  0.1254 -0.8793  2.4159
15428TIP3   OH267774   5.256   5.370   3.914 -0.2487 -0.2113 -0.2122
15428TIP3    H167775   5.295   5.396   3.998 -1.2016  2.5108 -0.5387
15428TIP3    H267776   5.276   5.443   3.855  1.7226 -2.7690 -2.8280
15429TIP3   OH267777   1.719   0.302   1.794  0.5044 -0.6013  1.2748
15429TIP3    H167778   1.797   0.349   1.823  1.0420 -0.9834  0.4774
15429TIP3    H267779   1.697   0.341   1.709  0.6977 -1.4740  0.8120
15430TIP3   OH267780   3.601   1.435  11.439  0.1406  0.0180  0.1059
15430TIP3    H167781   3.540   1.478  11.380  0.3632  0.9863  0.5615
15430TIP3    H267782   3.655   1.379  11.382 -0.2705  0.2043 -0.4707
15431TIP3   OH267783   6.705   2.278   3.529  0.2957 -0.0671 -0.2011
15431TIP3    H167784   6.721   2.251   3.620  0.5259 -0.1150 -0.2557
15431TIP3    H267785   6.756   2.359   3.520 -0.4840  0.4564 -0.0013
15432TIP3   OH267786   6.038   1.764  16.013 -0.3526 -0.2912 -0.1379
15432TIP3    H167787   6.029   1.836  15.951  2.7121 -1.4843 -2.0485
15432TIP3    H267788   6.109   1.790  16.071 -0.2274 -1.1274  0.0986
15433TIP3   OH267789   0.658   3.870  11.480  0.4533  0.1389 -0.1900
15433TIP3    H167790   0.606   3.879  11.400  2.6956  0.7009 -1.6472
15433TIP3    H267791   0.618   3.798  11.528 -0.4278 -0.7362 -2.2146
15434TIP3   OH267792   5.474   3.445   1.744 -0.1943 -0.5964  0.3233
15434TIP3    H167793   5.558   3.484   1.766  1.7246 -4.2568 -0.2028
15434TIP3    H267794   5.418   3.464   1.819  0.8308  2.4958  0.3751
15435TIP3   OH267795   2.244   2.409   4.664  0.1064  0.1863 -0.5878
15435TIP3    H167796   2.232   2.389   4.571  1.4994 -0.7006 -0.5934
15435TIP3    H267797   2.229   2.503   4.671 -0.0157  0.2551 -1.7039
15436TIP3   OH267798   6.330   0.434  12.764 -0.5126 -0.5128  0.1401
15436TIP3    H167799   6.313   0.520  12.725 -1.0813 -0.8306 -0.3184
15436TIP3    H267800   6.389   0.392  12.703  0.0462 -0.3220  0.5400
15437TIP3   OH267801   0.296   5.695   4.867  0.2321  0.5612  0.7092
15437TIP3    H167802   0.321   5.718   4.957  0.9816 -0.1431  0.6838
15437TIP3    H267803   0.351   5.620   4.845  1.2102  1.7491 -0.9259
15438TIP3   OH267804   0.703   5.248   4.380  0.2839 -0.0947 -0.5004
15438TIP3    H167805   0.760   5.211   4.447 -1.9129  0.2331  1.6218
15438TIP3    H267806   0.705   5.184   4.309  1.6436 -1.0676  0.3970
15439TIP3   OH267807   0.464   6.621   3.480 -0.4091  0.3820  0.0921
15439TIP3    H167808   0.405   6.648   3.551  0.2859  1.3951  0.2955
15439TIP3    H267809   0.457   6.690   3.415  0.1718  0.2528 -0.1099
15440TIP3   OH267810   0.898   4.318   0.806 -0.1090  0.0592 -0.4049
15440TIP3    H167811   0.904   4.246   0.869  0.3385 -0.5126 -1.0878
15440TIP3    H267812   0.813   4.305   0.764 -0.0783 -0.0091 -0.4471
15441TIP3   OH267813   1.545   4.748   5.373 -0.5054 -0.6804 -0.4052
15441TIP3    H167814   1.588   4.808   5.434 -0.2020 -1.0744 -0.2343
15441TIP3    H267815   1.564   4.661   5.407 -2.4101 -0.8352  0.3270
15442TIP3   OH267816   6.797   3.669   1.727  0.0911  0.0147 -0.1997
15442TIP3    H167817   6.755   3.741   1.680  0.4511  0.9660  0.8831
15442TIP3    H267818   6.737   3.649   1.798  1.3543  1.3047  1.2903
15443TIP3   OH267819   2.418   5.964   2.680  0.0345 -0.0210 -0.1834
15443TIP3    H167820   2.361   5.932   2.750  1.7811 -0.6051  0.9865
15443TIP3    H267821   2.457   6.044   2.715  0.9376 -0.3273 -0.4915
15444TIP3   OH267822   2.061   1.127   1.875  0.3917  0.2164  0.0666
15444TIP3    H167823   2.122   1.058   1.849  0.9667  0.3141  1.1113
15444TIP3    H267824   2.115   1.189   1.925 -0.1191  1.4088 -0.8329
15445TIP3   OH267825   1.843   4.247   3.600  0.3837  0.3926  0.3596
15445TIP3    H167826   1.792   4.291   3.532  1.5257  0.1013 -0.6802
15445TIP3    H267827   1.783   4.181   3.635 -0.1251  0.3828 -0.5227
15446TIP3   OH267828   6.714   1.319  11.496 -0.1455 -0.0781  0.3890
15446TIP3    H167829   6.770   1.252  11.455  1.4806  0.8748  0.9763
15446TIP3    H267830   6.687   1.376  11.425  0.9425  0.3600  0.3184
15447TIP3   OH267831   0.383   4.354   0.887 -0.0075 -0.4517  0.3788
15447TIP3    H167832   0.330   4.283   0.849  0.3011 -0.7245  0.4536
15447TIP3    H267833   0.438   4.384   0.814  0.9665 -1.3347  0.7385
15448TIP3   OH267834   4.685   6.059   4.937  0.5498  0.2098  0.1070
15448TIP3    H167835   4.743   6.073   4.863  0.1077  1.1927 -0.0666
15448TIP3    H267836   4.653   6.147   4.959  2.5687  0.2793  3.0138
15449TIP3   OH267837   5.949   2.276   2.126  0.3024  0.7837 -0.6926
15449TIP3    H167838   6.036   2.240   2.109  0.5470  1.1727 -0.2838
15449TIP3    H267839   5.920   2.230   2.205  0.9879  2.1123  0.3511
15450TIP3   OH267840   3.110   4.502  14.393  0.6884  0.1133 -0.5046
15450TIP3    H167841   3.025   4.515  14.436  1.2356  0.9664  0.3182
15450TIP3    H267842   3.147   4.590  14.385  1.3111 -0.2099 -1.2686
15451TIP3   OH267843   3.479   0.264   2.499  0.0853 -0.0480  0.1760
15451TIP3    H167844   3.430   0.326   2.552  0.1677 -0.6137  0.9217
15451TIP3    H267845   3.417   0.194   2.480  0.7430 -1.0230  1.5676
15452TIP3   OH267846   6.566   1.588   6.336  0.0443 -0.1086 -0.1354
15452TIP3    H167847   6.649   1.569   6.379  0.2983  1.4872  0.1342
15452TIP3    H267848   6.505   1.523   6.372  0.8742 -0.4778  0.6313
15453TIP3   OH267849   0.676   0.282   0.849  0.4052  0.1775  0.3687
15453TIP3    H167850   0.768   0.280   0.823 -0.1186 -0.7554 -1.4656
15453TIP3    H267851   0.665   0.202   0.901  0.1844 -0.7150 -1.0259
15454TIP3   OH267852   6.715   2.376   2.018  0.4558 -0.4113 -0.6427
15454TIP3    H167853   6.804   2.400   1.991  0.2860 -0.3125 -1.1221
15454TIP3    H267854   6.710   2.403   2.110  0.4394  0.9380 -1.0270
15455TIP3   OH267855   4.139   0.262   4.373  0.3507 -0.1858  0.4615
15455TIP3    H167856   4.045   0.254   4.392  0.2278 -1.7172 -0.6743
15455TIP3    H267857   4.156   0.356   4.374 -1.1915  0.1001  0.7331
15456TIP3   OH267858   2.263   3.278   3.908 -0.1944 -0.1580  0.4042
15456TIP3    H167859   2.332   3.327   3.863  0.5000 -2.6442 -1.3228
15456TIP3    H267860   2.182   3.325   3.886  0.4015 -0.0011 -1.5382
15457TIP3   OH267861   5.810   2.110  15.168  0.3377  0.5023  0.1209
15457TIP3    H167862   5.826   2.152  15.084 -0.1631 -0.2067 -0.3408
15457TIP3    H267863   5.714   2.106  15.174  0.3664  1.0182  0.9610
15458TIP3   OH267864   0.549   3.612   3.683 -0.4653  0.0880  0.0959
15458TIP3    H167865   0.479   3.606   3.748 -1.5394 -1.2229 -1.1573
15458TIP3    H267866   0.506   3.643   3.603  0.8348  1.6758 -0.0317
15459TIP3   OH267867   1.854   1.046   2.464 -0.0385  0.7714  0.0385
15459TIP3    H167868   1.857   1.066   2.558  0.1892 -0.9121  0.3987
15459TIP3    H267869   1.913   1.111   2.425 -0.9875  2.1949  0.9178
15460TIP3   OH267870   1.394   2.520   1.481 -0.1771  0.1088 -0.1905
15460TIP3    H167871   1.466   2.570   1.444  0.1779 -0.3927 -0.1787
15460TIP3    H267872   1.384   2.555   1.570  1.2217 -1.0506  0.4210
15461TIP3   OH267873   6.122   3.204  16.467  0.9523  0.4001  0.1603
15461TIP3    H167874   6.211   3.218  16.432  1.1955 -0.1990  0.5307
15461TIP3    H267875   6.135   3.194  16.561  0.6318 -0.8738  0.0817
15462TIP3   OH267876   5.711   1.969  12.943 -0.0672  0.5162  0.2563
15462TIP3    H167877   5.670   1.940  13.025  0.1922  1.0034  0.5603
15462TIP3    H267878   5.803   1.980  12.965  0.0531  0.3599 -0.1795
15463TIP3   OH267879   4.881   1.134   1.611 -0.5998 -0.3523 -0.1073
15463TIP3    H167880   4.791   1.167   1.604 -1.0111 -1.1238  1.3330
15463TIP3    H267881   4.910   1.164   1.697  0.1698 -0.9497 -0.1590
15464TIP3   OH267882   3.148   4.680  12.668  0.1726  0.4065 -0.0854
15464TIP3    H167883   3.167   4.668  12.761 -2.0874 -1.2565  0.2025
15464TIP3    H267884   3.067   4.731  12.666  0.0577  0.1980 -1.1417
15465TIP3   OH267885   0.732   5.961   2.423 -0.2944  0.0934 -0.0458
15465TIP3    H167886   0.760   5.929   2.337 -0.0143 -0.2969  0.1877
15465TIP3    H267887   0.718   5.881   2.474 -3.7486  0.1957 -0.7401
15466TIP3   OH267888   1.101   6.306  12.859  0.2358  0.2387 -0.2658
15466TIP3    H167889   1.085   6.295  12.765  1.7677  5.1298 -1.2384
15466TIP3    H267890   1.014   6.305  12.899 -0.6244  0.8443 -2.0866
15467TIP3   OH267891   6.175   5.021   4.126 -0.3261 -0.1562 -0.4185
15467TIP3    H167892   6.133   5.105   4.110  1.5796  0.6906 -1.1946
15467TIP3    H267893   6.211   4.996   4.040  0.5144 -0.9766  0.1624
15468TIP3   OH267894   6.784   6.339   4.829  0.0021 -0.7087 -0.0749
15468TIP3    H167895   6.796   6.432   4.848  0.5643 -0.9472  0.7558
15468TIP3    H267896   6.689   6.325   4.836  0.0307 -0.4402  0.9674
15469TIP3   OH267897   0.555   0.494  12.174 -0.0413  0.6904  0.3951
15469TIP3    H167898   0.559   0.404  12.207  0.2754  0.2031 -0.9656
15469TIP3    H267899   0.578   0.547  12.250  0.0185 -0.3899  1.1533
15470TIP3   OH267900   6.245   1.514  15.745 -0.4751 -0.0458  0.0212
15470TIP3    H167901   6.188   1.438  15.757  1.9304 -1.9202  0.0725
15470TIP3    H267902   6.202   1.567  15.678 -0.5705 -3.1351 -2.4287
15471TIP3   OH267903   0.388   4.376  15.815  0.5640  0.7742  0.6973
15471TIP3    H167904   0.423   4.449  15.764 -1.6512  1.0436 -0.5037
15471TIP3    H267905   0.315   4.414  15.864 -1.3758 -0.8459 -0.8504
15472TIP3   OH267906   4.898   3.711   6.920 -0.0784 -0.2418 -0.0380
15472TIP3    H167907   4.961   3.662   6.867  0.2543  0.0976  0.0378
15472TIP3    H267908   4.863   3.777   6.861 -0.3715 -0.4381 -0.0825
15473TIP3   OH267909   3.589   3.889  14.178 -0.5655  0.1643 -0.2460
15473TIP3    H167910   3.672   3.863  14.220 -0.2301 -0.6779 -1.4079
15473TIP3    H267911   3.522   3.859  14.239 -0.0266  0.6373  0.5944
15474TIP3   OH267912   6.314   0.948  11.461 -0.1182 -0.7925 -0.0753
15474TIP3    H167913   6.225   0.920  11.440 -0.3842  0.8666 -1.2935
15474TIP3    H267914   6.321   0.936  11.556 -1.5843 -1.0661  0.0170
15475TIP3   OH267915   5.410   4.376  13.918 -0.1588 -0.7509 -0.1177
15475TIP3    H167916   5.396   4.282  13.919 -0.0504 -0.7656  0.6364
15475TIP3    H267917   5.487   4.389  13.974 -0.8927 -0.1086  0.7492
15476TIP3   OH267918   6.024   0.347  14.308  0.0295  0.3097  0.1203
15476TIP3    H167919   6.023   0.317  14.398 -2.6309  0.1898  0.0854
15476TIP3    H267920   5.959   0.294  14.263  4.0263 -2.3920 -2.8705
15477TIP3   OH267921   2.551   2.749  16.615  1.0698  0.5208  0.9780
15477TIP3    H167922   2.532   2.663  16.578  2.5047  0.4038  0.4708
15477TIP3    H267923   2.496   2.755  16.693 -0.5054 -0.0479 -0.0627
15478TIP3   OH267924   4.089   0.299  13.596 -0.5086 -0.3774 -0.4280
15478TIP3    H167925   4.063   0.366  13.660  1.5332 -2.8155  3.1347
15478TIP3    H267926   4.040   0.221  13.623  0.6055 -1.5180 -1.6902
15479TIP3   OH267927   5.872   5.640   5.682 -0.3317 -0.1022 -0.2468
15479TIP3    H167928   5.922   5.705   5.732 -1.7514  0.2398  0.7331
15479TIP3    H267929   5.931   5.615   5.611  0.1750  2.4269 -0.7751
15480TIP3   OH267930   6.488   2.466   2.502 -0.4166  0.5340 -0.2560
15480TIP3    H167931   6.541   2.498   2.574 -0.8679  0.0879  0.2795
15480TIP3    H267932   6.415   2.527   2.496 -0.6280  0.3025 -0.0319
15481TIP3   OH267933   4.869   1.451  16.345 -0.0635 -0.1430  0.1899
15481TIP3    H167934   4.801   1.401  16.390  0.4948  0.9841  2.3721
15481TIP3    H267935   4.843   1.542  16.358  1.9853  0.3085  1.3138
15482TIP3   OH267936   0.772   6.560  11.317 -0.0047  0.0933  0.1362
15482TIP3    H167937   0.814   6.505  11.251 -1.0169  1.3846 -1.6294
15482TIP3    H267938   0.844   6.590  11.373  0.9207 -0.6301 -0.6468
15483TIP3   OH267939   1.183   2.603   2.341 -0.0156  0.2878 -0.0331
15483TIP3    H167940   1.233   2.685   2.345 -0.7279  0.7665 -0.7751
15483TIP3    H267941   1.112   2.621   2.279  1.2002 -1.6261 -2.0830
15484TIP3   OH267942   4.226   5.386   0.270 -0.5013 -0.9294  0.0454
15484TIP3    H167943   4.256   5.428   0.189 -1.1905  0.0360  0.2785
15484TIP3    H267944   4.152   5.440   0.298 -0.0927 -1.0997  1.4678
15485TIP3   OH267945   1.309   0.132  15.662  0.3319 -0.0950 -0.6373
15485TIP3    H167946   1.317   0.221  15.695  1.8022 -0.7330  0.8269
15485TIP3    H267947   1.273   0.142  15.574  0.3243  1.9272 -0.4307
15486TIP3   OH267948   1.286   3.633   3.199 -0.1940  0.4231  0.3548
15486TIP3    H167949   1.251   3.722   3.198 -1.2596  0.0357  2.2745
15486TIP3    H267950   1.297   3.612   3.291 -1.2380 -1.9301 -0.0295
15487TIP3   OH267951   3.827   2.003   0.687 -0.0798  0.3980  0.1693
15487TIP3    H167952   3.903   1.946   0.674 -0.9708 -1.0962  1.2435
15487TIP3    H267953   3.789   2.012   0.600 -0.5801 -1.6400  0.1417
15488TIP3   OH267954   3.064   3.227  12.279 -0.4244  0.1076 -0.0577
15488TIP3    H167955   3.083   3.250  12.188  0.9682 -0.9098 -0.0551
15488TIP3    H267956   3.082   3.307  12.328  1.5968 -0.1165 -0.3704
15489TIP3   OH267957   4.473   0.062   3.052 -0.4817  0.8271  0.1915
15489TIP3    H167958   4.502  -0.029   3.051  0.2835  1.0866 -1.9916
15489TIP3    H267959   4.554   0.113   3.056 -0.8662  1.4483  0.1047
15490TIP3   OH267960   0.253   5.554  13.723 -0.2906 -0.1686 -0.1105
15490TIP3    H167961   0.192   5.528  13.654 -1.7643  0.2024  1.0086
15490TIP3    H267962   0.200   5.607  13.782  0.6547 -1.3425  1.8590
15491TIP3   OH267963   0.418   4.227  14.594  0.6578 -0.2207  0.0334
15491TIP3    H167964   0.434   4.320  14.612 -0.2205 -0.0555 -0.0342
15491TIP3    H267965   0.428   4.185  14.680 -2.7594  0.4708  0.8694
15492TIP3   OH267966   2.609   1.588  13.974 -0.2836  0.2474  0.0848
15492TIP3    H167967   2.609   1.604  13.880  0.9553  2.3813  0.3984
15492TIP3    H267968   2.695   1.618  14.004 -1.1539  0.8826  2.0847
15493TIP3   OH267969   1.305   5.200  15.411 -0.0298  0.2095  0.0129
15493TIP3    H167970   1.382   5.166  15.457  1.3279  1.4641 -1.2773
15493TIP3    H267971   1.231   5.154  15.452  1.4568 -1.7912  0.5702
15494TIP3   OH267972   3.286   3.587   5.225  0.1012 -0.2345 -0.0983
15494TIP3    H167973   3.213   3.609   5.167  0.5807 -0.1244 -0.6648
15494TIP3    H267974   3.349   3.658   5.212  0.5117 -0.5730  0.0457
15495TIP3   OH267975   1.778   0.088   0.453 -0.3904  0.6322 -0.4353
15495TIP3    H167976   1.703   0.147   0.454  0.9513  2.4074  2.1443
15495TIP3    H267977   1.801   0.076   0.545  1.1345 -1.6613 -1.0573
15496TIP3   OH267978   3.578   0.123  16.475  0.1447 -0.3211  0.4033
15496TIP3    H167979   3.509   0.140  16.410 -0.1864 -0.7870  0.6323
15496TIP3    H267980   3.562   0.034  16.504 -0.2106  0.1757  1.7468
15497TIP3   OH267981   3.286   2.938  15.908 -0.4445 -0.3486  0.1915
15497TIP3    H167982   3.348   3.010  15.894 -1.2691 -0.0456 -1.9908
15497TIP3    H267983   3.342   2.863  15.926  0.4473  0.6569  1.7562
15498TIP3   OH267984   4.390   2.464   5.223  0.5152  0.0133  0.5112
15498TIP3    H167985   4.442   2.522   5.167 -0.1706 -1.0590 -1.2527
15498TIP3    H267986   4.321   2.521   5.258  2.0024  1.1058  1.7435
15499TIP3   OH267987   3.403   0.394  11.712 -0.4063  0.1164 -0.2890
15499TIP3    H167988   3.449   0.404  11.628 -0.6325 -0.0805 -0.4391
15499TIP3    H267989   3.473   0.394  11.778 -0.3800  2.5693 -0.2628
15500TIP3   OH267990   1.865   5.995  15.577  0.0482  0.0720  0.2109
15500TIP3    H167991   1.915   5.922  15.616  0.4367  0.8376  1.1627
15500TIP3    H267992   1.785   5.999  15.629  0.7047  1.2959  1.1470
15501TIP3   OH267993   1.377   6.193   2.309  0.1912 -0.1568  0.0459
15501TIP3    H167994   1.300   6.185   2.252  0.4381  1.0706 -0.4838
15501TIP3    H267995   1.451   6.176   2.252  0.2691 -2.6587  0.8526
15502TIP3   OH267996   3.137   1.635   1.920  0.4419 -0.3492 -0.0240
15502TIP3    H167997   3.188   1.624   2.000  3.3066  0.4570 -1.6949
15502TIP3    H267998   3.166   1.564   1.863  1.7962  1.7567 -2.0301
15503TIP3   OH267999   6.228   0.816  14.267  0.0167  0.0141  0.4678
15503TIP3    H168000   6.313   0.771  14.269  0.1968  0.3618  0.8844
15503TIP3    H268001   6.247   0.902  14.229 -0.5949 -0.7934 -1.6941
15504TIP3   OH268002   2.307   6.049   5.415 -0.0794  0.1336 -0.6593
15504TIP3    H168003   2.347   6.099   5.487 -1.1124  1.8993 -1.2800
15504TIP3    H268004   2.338   5.959   5.428  1.0992  0.7564  1.0097
15505TIP3   OH268005   2.661   4.860  12.195 -0.0971  0.2997 -0.4381
15505TIP3    H168006   2.754   4.842  12.211  0.3251  1.5726 -1.3567
15505TIP3    H268007   2.618   4.837  12.277  0.8226 -1.6459 -0.4537
15506TIP3   OH268008   6.127   1.560  12.546 -0.3695  0.1758  0.6231
15506TIP3    H168009   6.175   1.551  12.628 -2.1319  0.3433  1.7003
15506TIP3    H268010   6.108   1.470  12.520 -0.7435  0.1482  0.9803
15507TIP3   OH268011   3.992   6.737  12.978  0.4564  0.5223 -0.4257
15507TIP3    H168012   4.011   6.646  13.002  4.0649  1.4274  0.3986
15507TIP3    H268013   4.072   6.768  12.935 -0.9773  3.1156 -1.3509
15508TIP3   OH268014   0.425   4.692   2.708 -0.0717  0.1276 -0.2813
15508TIP3    H168015   0.498   4.630   2.695  0.3852  0.4479  0.7191
15508TIP3    H268016   0.376   4.655   2.782 -0.6329  0.1877 -0.6252
15509TIP3   OH268017   5.387   4.814  15.807 -0.4582  0.1466  0.2454
15509TIP3    H168018   5.361   4.901  15.779  0.3965  0.1176 -0.6490
15509TIP3    H268019   5.447   4.783  15.739 -0.7124 -1.1181  0.5748
15510TIP3   OH268020   3.863   5.606  13.811 -0.9099  0.2504 -0.4371
15510TIP3    H168021   3.897   5.636  13.727 -0.7685 -0.2476 -0.5622
15510TIP3    H268022   3.895   5.516  13.819 -1.1622  0.1971  0.0160
15511TIP3   OH268023   4.630   0.288   5.080 -0.5527  0.3796  0.2909
15511TIP3    H168024   4.646   0.255   4.991  0.0768  1.1815  0.1010
15511TIP3    H268025   4.709   0.265   5.128  0.1020  2.0507  0.0256
15512TIP3   OH268026   2.121   2.081   2.223  0.3856  0.1941  0.8203
15512TIP3    H168027   2.187   2.144   2.251 -0.7257  0.4417  2.9948
15512TIP3    H268028   2.123   2.013   2.290  0.0858 -1.0133 -0.3717
15513TIP3   OH268029   2.560   1.460   0.352  0.1756 -0.5807 -0.1865
15513TIP3    H168030   2.534   1.553   0.353  0.4038 -0.5201  0.6114
15513TIP3    H268031   2.515   1.424   0.276 -1.2901 -0.1918  0.4620
15514TIP3   OH268032   6.434   4.939   5.806 -0.6184  0.6322 -0.5908
15514TIP3    H168033   6.482   4.912   5.885 -1.2097 -0.1487 -0.5010
15514TIP3    H268034   6.485   5.013   5.772 -0.1086  0.6868  0.2721
15515TIP3   OH268035   5.370   4.469  17.245  0.6431  0.3689 -0.4630
15515TIP3    H168036   5.426   4.394  17.264 -0.2617 -0.2265 -0.1026
15515TIP3    H268037   5.375   4.524  17.323 -1.5174 -1.1029  0.7733
15516TIP3   OH268038   0.015   0.455  11.576 -0.1120  0.3739 -0.1760
15516TIP3    H168039   0.077   0.527  11.566  1.4715 -0.8336  0.5373
15516TIP3    H268040   0.046   0.388  11.515 -1.6564  0.3642 -0.9509
15517TIP3   OH268041   2.926   1.819  13.525 -0.1169 -0.1958  0.1266
15517TIP3    H168042   2.917   1.804  13.619  1.2012  1.8221  0.6058
15517TIP3    H268043   3.015   1.788  13.504  0.8550  2.3916  0.2333
15518TIP3   OH268044   2.814   2.134   3.462 -0.2711 -0.3308 -0.4452
15518TIP3    H168045   2.802   2.214   3.512 -0.2688 -0.5424 -0.1000
15518TIP3    H268046   2.908   2.126   3.451 -0.1473 -1.2300  1.0964
15519TIP3   OH268047   5.350   4.807   1.363 -0.1343 -0.0232 -0.3566
15519TIP3    H168048   5.280   4.823   1.426  0.3266  1.8909 -0.3091
15519TIP3    H268049   5.338   4.874   1.296  1.9573  0.6720 -0.0710
15520TIP3   OH268050   6.132   5.626  17.217 -0.3063 -0.7144 -0.5318
15520TIP3    H168051   6.185   5.546  17.223  0.1488 -0.3395  0.6413
15520TIP3    H268052   6.144   5.669  17.302  1.8957  2.1117 -2.1844
15521TIP3   OH268053   4.769   1.959   1.700 -0.1784  0.3994  0.2486
15521TIP3    H168054   4.844   2.017   1.707 -0.8207  1.0137  2.3272
15521TIP3    H268055   4.726   1.964   1.786 -2.5397  0.0041 -0.8637
15522TIP3   OH268056   6.771   6.378  15.054  0.4176 -0.0395 -0.4280
15522TIP3    H168057   6.700   6.384  14.990  0.9288  1.0045 -0.9059
15522TIP3    H268058   6.834   6.319  15.014  0.5623  0.3141 -0.7232
15523TIP3   OH268059   5.494   6.627   2.975  0.0145  0.1141  0.4701
15523TIP3    H168060   5.439   6.577   3.036  0.7495 -1.6705 -0.3039
15523TIP3    H268061   5.431   6.670   2.917 -0.6407  0.3966  1.3719
15524TIP3   OH268062   0.164   3.656  11.956  0.3692 -0.2811  0.0391
15524TIP3    H168063   0.163   3.567  11.921  0.0112 -0.0907 -0.4436
15524TIP3    H268064   0.252   3.667  11.992  0.7384 -0.4880 -0.7932
15525TIP3   OH268065   0.033   5.528  17.224  0.1341  0.6776 -0.0572
15525TIP3    H168066   0.034   5.599  17.160 -0.7895 -0.0688 -0.9098
15525TIP3    H268067  -0.007   5.454  17.178 -0.7462  0.1951  1.4426
15526TIP3   OH268068   0.360   0.397   0.172 -0.0055 -0.4099 -0.1513
15526TIP3    H168069   0.269   0.417   0.192 -1.0430 -1.8057 -3.1472
15526TIP3    H268070   0.388   0.340   0.244  0.2691  4.2232  3.6478
15527TIP3   OH268071   3.744   6.782  17.089  0.1809 -0.3595 -0.8445
15527TIP3    H168072   3.735   6.865  17.043  0.6463  0.3195  0.2700
15527TIP3    H268073   3.689   6.792  17.167  1.5013 -0.4680  0.1222
15528TIP3   OH268074   6.132   5.252   1.766 -0.6313  0.1474  0.3089
15528TIP3    H168075   6.060   5.313   1.787  0.0603  1.1106 -0.0736
15528TIP3    H268076   6.129   5.243   1.671 -0.3007  0.1260  0.3002
15529TIP3   OH268077   5.416   1.484   3.617 -0.0754 -0.5615  0.2657
15529TIP3    H168078   5.335   1.481   3.669 -1.3402 -0.2301 -1.6350
15529TIP3    H268079   5.396   1.545   3.546  1.6474 -0.9613 -0.5736
15530TIP3   OH268080   2.869   1.221  12.410  0.3139  0.8685  0.3134
15530TIP3    H168081   2.889   1.205  12.502 -3.4028  0.7011  1.1417
15530TIP3    H268082   2.832   1.309  12.408  0.5698  0.9590 -1.0833
15531TIP3   OH268083   2.795   4.014  16.914  0.5415  0.5698  0.3018
15531TIP3    H168084   2.724   4.075  16.897  1.1922  1.4972  0.8657
15531TIP3    H268085   2.872   4.055  16.873  1.2751  0.8344  1.9177
15532TIP3   OH268086   3.832   3.944  14.974 -0.3164  0.2563 -0.3286
15532TIP3    H168087   3.767   3.948  15.044 -0.4895 -1.3313 -0.3844
15532TIP3    H268088   3.916   3.956  15.019 -0.5003  0.2998  0.0048
15533TIP3   OH268089   2.940   0.055  13.135 -0.1878  0.5637 -0.1713
15533TIP3    H168090   2.854   0.077  13.098  0.6109  0.6359 -2.0265
15533TIP3    H268091   2.982   0.140  13.149  0.3455  0.4567 -1.1256
15534TIP3   OH268092   1.648   1.067   5.541 -0.2851  0.1587  0.3407
15534TIP3    H168093   1.619   0.983   5.508 -1.3352  0.5245  0.3060
15534TIP3    H268094   1.738   1.052   5.572  1.4285  0.2088 -4.2388
15535TIP3   OH268095   1.737   0.810  14.100  0.5829 -0.6705 -0.0323
15535TIP3    H168096   1.691   0.879  14.052 -0.2226 -1.2525 -0.0993
15535TIP3    H268097   1.759   0.745  14.033  2.0189 -0.1380 -0.1057
15536TIP3   OH268098   2.335   1.763   2.735  0.3948 -0.1086 -0.2886
15536TIP3    H168099   2.244   1.791   2.744 -0.2734 -2.1884 -0.3607
15536TIP3    H268100   2.365   1.750   2.825  0.0971 -1.0515 -0.3257
15537TIP3   OH268101   2.798   4.041   1.704 -0.0887  0.0815 -0.0688
15537TIP3    H168102   2.779   4.069   1.614 -0.6339  0.2063  0.0824
15537TIP3    H268103   2.881   3.994   1.698  0.2787  0.7824 -0.5067
15538TIP3   OH268104   5.237   3.576   0.850  0.4604 -0.2680  0.3663
15538TIP3    H168105   5.264   3.614   0.767 -0.5785  1.2538  0.6931
15538TIP3    H268106   5.310   3.592   0.909  1.6442 -2.2815 -0.4786
15539TIP3   OH268107   4.020   1.552   5.965  0.3372 -0.5743 -0.1244
15539TIP3    H168108   4.031   1.552   5.870  1.4669  2.2521 -0.0530
15539TIP3    H268109   4.110   1.545   5.999 -0.0100 -0.8818  0.7406
15540TIP3   OH268110   4.549   6.206  14.263  0.7419 -0.4050  0.6840
15540TIP3    H168111   4.534   6.298  14.241  0.9017 -0.5156  0.1025
15540TIP3    H268112   4.502   6.157  14.195 -2.3001 -0.7892  2.9389
15541TIP3   OH268113   0.656   3.358   0.636 -0.7512  0.4231  0.2389
15541TIP3    H168114   0.718   3.303   0.588  1.5576  1.3193  2.1272
15541TIP3    H268115   0.602   3.398   0.568  0.6343 -0.4747 -1.4287
15542TIP3   OH268116   5.746   2.332   1.134 -0.2062  0.2820  0.5769
15542TIP3    H168117   5.708   2.384   1.063  0.1175  1.3715  1.1935
15542TIP3    H268118   5.704   2.246   1.125 -0.5915  0.5775 -0.5795
15543TIP3   OH268119   5.358   3.068   4.040  0.1731  0.4130 -0.4734
15543TIP3    H168120   5.306   3.148   4.044  0.0290  0.3075 -0.1604
15543TIP3    H268121   5.445   3.097   4.013  0.7211  0.9870  1.7548
15544TIP3   OH268122   3.656   2.705  13.109  0.3794 -0.2683  0.1625
15544TIP3    H168123   3.738   2.656  13.104  0.1870 -0.3814 -2.0040
15544TIP3    H268124   3.669   2.780  13.051 -1.3560 -0.7379 -0.8453
15545TIP3   OH268125   1.901   4.861   5.269  0.5564 -0.2029 -0.2383
15545TIP3    H168126   1.874   4.926   5.334 -0.1287 -0.5559 -0.1597
15545TIP3    H268127   1.996   4.870   5.264  0.5879  0.0318  0.6073
15546TIP3   OH268128   3.006   0.087  12.280  0.6647 -0.3933  0.5522
15546TIP3    H168129   2.920   0.100  12.241  0.6761 -0.8488  0.3737
15546TIP3    H268130   2.993   0.105  12.374  1.2180  3.3711 -0.0091
15547TIP3   OH268131   6.237   6.498  14.370 -0.4473  0.1880  0.4371
15547TIP3    H168132   6.208   6.502  14.279 -0.5235  1.2706  0.5070
15547TIP3    H268133   6.333   6.491  14.364 -0.5157 -0.6470  0.2620
15548TIP3   OH268134   0.469   0.855  17.031  0.4618 -0.7921  0.0772
15548TIP3    H168135   0.451   0.947  17.011  1.3545 -0.7488 -0.5623
15548TIP3    H268136   0.496   0.817  16.947 -0.7963 -1.8699  0.1392
15549TIP3   OH268137   1.758   3.078   3.622  0.9168  1.0991  0.5871
15549TIP3    H168138   1.698   3.068   3.549  1.4521  1.7818  0.0460
15549TIP3    H268139   1.782   2.989   3.646 -1.7449  0.7092  2.0272
15550TIP3   OH268140   3.417   0.165   0.281  0.6047 -0.5003 -0.5249
15550TIP3    H168141   3.364   0.240   0.307  0.1234 -0.9978 -0.0532
15550TIP3    H268142   3.369   0.125   0.209  0.0670 -1.2399  0.2255
15551TIP3   OH268143   0.448   2.861   1.931  0.2693  0.2476 -0.2830
15551TIP3    H168144   0.389   2.823   1.866  1.5745 -2.2269 -0.0606
15551TIP3    H268145   0.500   2.925   1.882  0.0105 -0.3026 -1.2803
15552TIP3   OH268146   1.196   2.995  12.694 -0.2025  0.8202  0.1614
15552TIP3    H168147   1.178   2.917  12.641  0.5584  3.0898 -3.6034
15552TIP3    H268148   1.111   3.038  12.703 -0.5434 -0.1258  1.8901
15553TIP3   OH268149   0.804   3.220   6.662  0.2141 -0.1650  0.1664
15553TIP3    H168150   0.888   3.254   6.630  1.5276 -1.3221  2.2412
15553TIP3    H268151   0.738   3.277   6.623  2.0274  1.2823 -0.8465
15554TIP3   OH268152   6.763   4.991  15.705  0.0489  0.4003 -0.0760
15554TIP3    H168153   6.835   5.051  15.725  0.4374  0.4979 -1.6791
15554TIP3    H268154   6.686   5.048  15.698  0.2668  0.6201 -0.7690
15555TIP3   OH268155   0.881   5.248   0.712 -0.6306 -0.5055 -0.0487
15555TIP3    H168156   0.828   5.324   0.685 -1.2354 -1.3363 -1.2348
15555TIP3    H268157   0.891   5.197   0.632  1.0540 -0.9106  0.4189
15556TIP3   OH268158   4.042   6.740  13.285 -0.2149  0.1830 -0.2827
15556TIP3    H168159   4.026   6.834  13.293  2.2824  0.8978 -2.7696
15556TIP3    H268160   4.017   6.720  13.194  0.4179 -1.2925 -0.1308
15557TIP3   OH268161   6.459   0.054   6.733 -0.2897 -0.3247 -0.2029
15557TIP3    H168162   6.367   0.070   6.755  0.0996  1.9022 -0.0945
15557TIP3    H268163   6.481   0.122   6.670  1.3502 -0.7120 -0.0803
15558TIP3   OH268164   1.770   4.501   0.287 -0.3503  0.4531 -0.2252
15558TIP3    H168165   1.862   4.508   0.314 -0.3624 -0.5249  0.0872
15558TIP3    H268166   1.732   4.586   0.310  0.6882  1.1961 -1.1786
15559TIP3   OH268167   5.627   1.927  11.166 -0.2448  0.8871 -0.1159
15559TIP3    H168168   5.612   1.842  11.207 -2.6623  1.1831 -0.3049
15559TIP3    H268169   5.717   1.923  11.134 -0.3002 -1.5784 -0.0556
15560TIP3   OH268170   1.151   1.064  11.782  0.1399  0.2713 -0.2615
15560TIP3    H168171   1.078   1.126  11.775  0.7619  1.2118  1.3728
15560TIP3    H268172   1.229   1.115  11.760  0.5496 -0.1377  0.2227
15561TIP3   OH268173   1.856   1.202   2.021  0.1826 -0.4262  0.3499
15561TIP3    H168174   1.915   1.158   1.959  1.3506 -0.0427  1.1803
15561TIP3    H268175   1.913   1.235   2.090 -1.0570 -0.3952  1.3805
15562TIP3   OH268176   0.961   2.795  16.966  0.6652 -0.1093 -0.3103
15562TIP3    H168177   0.979   2.756  16.881 -0.7907 -0.3174 -0.5471
15562TIP3    H268178   0.868   2.776  16.982 -0.0370  2.9583 -0.2929
15563TIP3   OH268179   1.218   1.386   0.969  0.2897  1.2525 -0.4622
15563TIP3    H168180   1.152   1.397   0.900 -0.1898  0.4710 -0.1377
15563TIP3    H268181   1.205   1.461   1.027 -1.4981  0.1756  0.5658
15564TIP3   OH268182   6.338   5.034   5.507 -0.1834 -0.4538 -0.1902
15564TIP3    H168183   6.253   5.006   5.540 -0.4715 -0.8925 -1.2848
15564TIP3    H268184   6.364   4.966   5.445  0.5555  0.1262 -0.5321
15565TIP3   OH268185   4.133   2.519  14.009  0.1664  0.4968  0.5256
15565TIP3    H168186   4.193   2.586  14.042  0.9489 -0.6897  1.5844
15565TIP3    H268187   4.080   2.495  14.085  2.5711 -2.9057  1.2841
15566TIP3   OH268188   5.134   0.741   0.590  0.3129 -0.6165 -0.3906
15566TIP3    H168189   5.105   0.791   0.514  0.2043 -2.3461 -1.5128
15566TIP3    H268190   5.130   0.803   0.662 -0.1132  0.9020 -1.6931
15567TIP3   OH268191   0.568   2.170  11.852 -0.0827  0.4579  0.6481
15567TIP3    H168192   0.539   2.254  11.817 -1.8019  0.0312  0.9981
15567TIP3    H268193   0.578   2.185  11.946  2.5267  1.0499  0.3125
15568TIP3   OH268194   2.290   0.942  15.070  0.3292 -0.4019  0.3400
15568TIP3    H168195   2.268   0.866  15.015 -0.3327  0.2846 -0.3583
15568TIP3    H268196   2.375   0.971  15.038  0.9007 -1.2543  1.0584
15569TIP3   OH268197   4.343   4.718  11.937 -0.1256  0.3985 -0.5602
15569TIP3    H168198   4.253   4.718  11.905 -0.2997 -0.5700 -0.0870
15569TIP3    H268199   4.396   4.743  11.860 -0.8637  2.0049 -0.5769
15570TIP3   OH268200   0.917   0.341  15.495  0.1625 -0.2855 -0.5285
15570TIP3    H168201   0.920   0.247  15.475  1.4406 -0.2041 -0.7603
15570TIP3    H268202   0.997   0.358  15.545  1.3954  1.2104 -2.9156
15571TIP3   OH268203   5.854   1.258   4.351  0.0039 -0.7277  0.4889
15571TIP3    H168204   5.849   1.163   4.342  1.2398 -0.7163 -0.3683
15571TIP3    H268205   5.857   1.291   4.261  0.0032  0.1028  0.7863
15572TIP3   OH268206   1.354   3.384  14.692  0.2403 -0.7707 -0.0546
15572TIP3    H168207   1.313   3.434  14.762 -0.3013 -0.2522 -0.7345
15572TIP3    H268208   1.282   3.356  14.636  0.7555 -0.2946 -0.9749
15573TIP3   OH268209   6.675   3.851  16.098  0.2316  0.1576 -0.5311
15573TIP3    H168210   6.770   3.847  16.100  0.2397  0.8714  0.9502
15573TIP3    H268211   6.655   3.926  16.042  0.5674  0.5067 -0.1921
15574TIP3   OH268212   1.503   3.622   5.130 -0.0319  0.5887  0.0654
15574TIP3    H168213   1.432   3.599   5.070 -0.2271  1.3965 -0.0273
15574TIP3    H268214   1.502   3.718   5.131 -0.4272  0.5741  1.8448
15575TIP3   OH268215   6.498   1.903   3.594  0.0660  0.1397  0.3141
15575TIP3    H168216   6.478   1.888   3.686  0.1497 -0.9744  0.1484
15575TIP3    H268217   6.580   1.857   3.578  0.6608  1.2775 -0.0440
15576TIP3   OH268218   0.599   3.719  16.354 -0.0721 -0.0678  0.3026
15576TIP3    H168219   0.622   3.804  16.318 -1.1572 -0.5950 -1.6864
15576TIP3    H268220   0.681   3.670  16.355  0.6631  1.1556  1.9677
15577TIP3   OH268221   5.990   1.534   3.251  0.2257 -0.2153 -0.1753
15577TIP3    H168222   5.953   1.574   3.173  2.4954  1.1224 -0.6189
15577TIP3    H268223   6.034   1.606   3.297  0.8488 -1.4066  1.1493
15578TIP3   OH268224   5.448   2.991   4.296  0.2045  0.4318 -0.4923
15578TIP3    H168225   5.387   3.004   4.223  0.1201 -0.1258 -0.5312
15578TIP3    H268226   5.529   3.031   4.267  0.1004  0.4236 -0.7994
15579TIP3   OH268227   2.033   0.121   5.151 -0.5768 -0.1779  0.0864
15579TIP3    H168228   2.037   0.027   5.165  0.4979 -0.3791 -1.3505
15579TIP3    H268229   2.063   0.159   5.233 -0.8408 -1.0888  0.6139
15580TIP3   OH268230   0.366   1.548   0.315 -0.2729 -0.1449  0.0074
15580TIP3    H168231   0.421   1.564   0.238 -0.1147  1.3034  0.3981
15580TIP3    H268232   0.278   1.573   0.287 -0.3756 -0.5034  0.0124
15581TIP3   OH268233   3.781   2.105  11.382  0.2634  0.5783  0.1070
15581TIP3    H168234   3.748   2.109  11.293  0.1759  1.4809  0.1769
15581TIP3    H268235   3.876   2.091  11.372  0.4205  1.7810 -0.1466
15582TIP3   OH268236   2.619   5.374   3.702 -0.1392  0.0838 -0.5779
15582TIP3    H168237   2.672   5.298   3.724  0.4268  0.9019  0.9760
15582TIP3    H268238   2.569   5.393   3.781 -1.4981  0.3601 -1.4731
15583TIP3   OH268239   3.895   2.889  13.596 -0.0876 -0.5183 -0.7510
15583TIP3    H168240   3.814   2.883  13.545 -0.8866 -1.2076  0.5620
15583TIP3    H268241   3.882   2.827  13.668 -0.0444  2.2384  1.7131
15584TIP3   OH268242   5.168   1.379   5.028  0.1231 -0.7245  0.7896
15584TIP3    H168243   5.216   1.297   5.045  1.5947  0.2995  1.6982
15584TIP3    H268244   5.231   1.434   4.982 -1.2532 -0.5046 -0.8765
15585TIP3   OH268245   4.352   1.049   6.590 -0.0944 -0.0189 -0.0423
15585TIP3    H168246   4.328   1.135   6.626  2.2020  1.4068 -1.7867
15585TIP3    H268247   4.447   1.053   6.579 -0.2146 -1.9753 -2.1919
15586TIP3   OH268248   2.264   3.721   4.232  0.5047  0.5088  0.0131
15586TIP3    H168249   2.341   3.666   4.243  0.2717 -0.1245 -1.4073
15586TIP3    H268250   2.203   3.667   4.182  0.3305  2.0944 -1.5393
15587TIP3   OH268251   4.976   0.580   0.780 -0.8195 -0.3425  0.0837
15587TIP3    H168252   4.889   0.601   0.748 -0.3833  1.0765 -0.1881
15587TIP3    H268253   5.035   0.614   0.713 -0.0365 -0.9067  0.4737
15588TIP3   OH268254   1.198   4.195  13.705  0.1316  0.2751 -0.2764
15588TIP3    H168255   1.160   4.164  13.787  0.6818 -1.5606 -0.6991
15588TIP3    H268256   1.194   4.120  13.646  3.2625  0.3987 -0.7358
15589TIP3   OH268257   2.990   6.818  13.715  0.1035 -0.3713 -0.9936
15589TIP3    H168258   2.949   6.879  13.776 -0.2803  0.3162 -1.9292
15589TIP3    H268259   2.999   6.737  13.765 -0.8545 -0.0311 -0.2525
15590TIP3   OH268260   4.973   4.479   2.512 -0.2437  0.2436  0.1618
15590TIP3    H168261   5.064   4.458   2.533 -0.7473 -0.2151  1.9747
15590TIP3    H268262   4.976   4.509   2.421  1.4969 -1.1956 -0.2972
15591TIP3   OH268263   1.004   3.154   1.436  0.2410 -0.1688 -0.5352
15591TIP3    H168264   1.012   3.166   1.530 -0.1915  0.0593 -0.5291
15591TIP3    H268265   0.931   3.210   1.410  0.2255 -0.3882 -0.9751
15592TIP3   OH268266   1.827   2.791   0.672 -0.3835  0.2592 -0.0392
15592TIP3    H168267   1.792   2.867   0.626 -0.2397  0.5558  0.3392
15592TIP3    H268268   1.886   2.828   0.738 -0.8372 -0.1491  0.5934
15593TIP3   OH268269   5.307   5.740  16.326 -0.1710 -0.4818 -0.2129
15593TIP3    H168270   5.375   5.732  16.392 -0.3020 -1.0827 -0.1456
15593TIP3    H268271   5.251   5.812  16.357  1.2628  1.0006 -1.0206
15594TIP3   OH268272   2.869   1.199   2.563  0.0448 -0.4807 -0.2482
15594TIP3    H168273   2.907   1.247   2.489 -0.6422 -0.1514 -0.3862
15594TIP3    H268274   2.933   1.211   2.634  0.5101 -0.4601 -0.6716
15595TIP3   OH268275   3.414   4.843   0.111  0.0352  0.7972  0.0174
15595TIP3    H168276   3.441   4.849   0.020 -1.7257  0.8337 -0.5102
15595TIP3    H268277   3.323   4.872   0.112  0.1569  1.1968  1.8499
15596TIP3   OH268278   6.235   1.798   0.376  0.5116  0.6706 -0.0579
15596TIP3    H168279   6.290   1.782   0.299 -2.1137 -2.5775 -1.4115
15596TIP3    H268280   6.189   1.879   0.357 -1.3512 -0.9490 -2.7604
15597TIP3   OH268281   4.145   6.555   3.535 -0.3921  0.3712  0.2235
15597TIP3    H168282   4.118   6.476   3.489  0.4027  0.5373 -0.5548
15597TIP3    H268283   4.088   6.560   3.611 -0.6737 -0.7696  0.0940
15598TIP3   OH268284   6.725   2.797  15.212  0.1628  0.1421  0.5416
15598TIP3    H168285   6.711   2.799  15.117 -0.1247  1.4486  0.6111
15598TIP3    H268286   6.819   2.811  15.223  0.2953 -0.6211  0.4314
15599TIP3   OH268287   3.290   1.146   1.964  0.0074  0.0418  0.6922
15599TIP3    H168288   3.356   1.208   1.995  0.2437 -0.1510  0.5712
15599TIP3    H268289   3.323   1.060   1.990 -0.3230 -0.0326  0.8635
15600TIP3   OH268290   4.568   6.033  13.849  0.3639  0.3193  0.5090
15600TIP3    H168291   4.625   6.060  13.921 -0.0436 -0.4491  1.1224
15600TIP3    H268292   4.516   6.111  13.830  1.7635  1.1086 -0.2215
15601TIP3   OH268293   5.927   3.723   0.518  0.4227 -0.6443  0.5383
15601TIP3    H168294   5.840   3.749   0.489  0.3271  0.4208  1.7459
15601TIP3    H268295   5.937   3.763   0.605  1.3610 -2.3190  1.2373
15602TIP3   OH268296   2.456   0.079  10.823  0.4527  0.4984 -0.2704
15602TIP3    H168297   2.462   0.114  10.735  1.9255  2.3821  0.5373
15602TIP3    H268298   2.394   0.007  10.817 -0.3649  1.3807 -2.5818
15603TIP3   OH268299   4.288   3.429   1.372  0.6821  0.4806 -0.3208
15603TIP3    H168300   4.339   3.493   1.322  0.8932  0.6807  0.1540
15603TIP3    H268301   4.349   3.393   1.436  1.0098 -1.3687 -1.6139
15604TIP3   OH268302   1.408   1.995   3.938 -0.0245  0.5276  0.2531
15604TIP3    H168303   1.400   1.930   4.008  1.5141 -0.1846 -0.2069
15604TIP3    H268304   1.372   1.952   3.860  0.2191  0.5471  0.1307
15605TIP3   OH268305   6.516   1.725  13.420  0.3273  0.2495  0.0173
15605TIP3    H168306   6.500   1.816  13.446 -0.0516  0.4452 -0.8900
15605TIP3    H268307   6.439   1.701  13.370 -0.0916 -0.9522  1.2209
15606TIP3   OH268308   4.297   0.600   4.895 -0.1414 -0.1310  0.0314
15606TIP3    H168309   4.343   0.521   4.866  0.5286  0.5255 -0.7269
15606TIP3    H268310   4.214   0.568   4.931  0.4789 -1.2416  0.4949
15607TIP3   OH268311   0.126   4.431  12.197  0.2356 -0.1496  0.6548
15607TIP3    H168312   0.084   4.363  12.145  0.0428 -0.5702  1.3551
15607TIP3    H268313   0.182   4.384  12.258 -0.5980  0.2636  1.7544
15608TIP3   OH268314   6.010   1.315   6.399 -0.4164 -0.3012 -0.0870
15608TIP3    H168315   5.955   1.239   6.381  2.0843 -2.0937 -0.4529
15608TIP3    H268316   6.003   1.329   6.493 -2.0590 -0.0147 -0.2321
15609TIP3   OH268317   1.035   4.892   3.664  0.0715  1.4441 -0.2367
15609TIP3    H168318   0.949   4.867   3.631  0.5854  0.4568 -0.8657
15609TIP3    H268319   1.036   4.860   3.754  0.4392 -0.1754 -0.7960
15610TIP3   OH268320   5.688   0.071  14.395 -0.6775 -0.2227  0.3038
15610TIP3    H168321   5.694   0.165  14.378 -1.7355 -0.3970 -1.1184
15610TIP3    H268322   5.778   0.045  14.415 -0.6407  1.3701  2.3648
15611TIP3   OH268323   2.338   4.227   5.719 -0.0152 -0.0648 -0.0932
15611TIP3    H168324   2.292   4.310   5.729 -0.2649 -0.2290  0.1247
15611TIP3    H268325   2.296   4.168   5.781  0.9654 -0.0148  0.6288
15612TIP3   OH268326   3.791   4.126   2.512  0.5306  0.5141  0.2207
15612TIP3    H168327   3.882   4.142   2.490  0.6448  0.2269  0.4787
15612TIP3    H268328   3.794   4.072   2.591  0.1626 -1.2893 -0.9601
15613TIP3   OH268329   1.191   0.280   4.254 -0.4343  0.5571 -0.4213
15613TIP3    H168330   1.244   0.329   4.317  0.0041 -0.9519  0.4062
15613TIP3    H268331   1.123   0.238   4.306 -1.4030  1.0692 -1.2548
15614TIP3   OH268332   2.682   3.319  16.741  0.4205 -0.4705  0.1350
15614TIP3    H168333   2.671   3.391  16.803 -0.7790  0.7054 -1.4205
15614TIP3    H268334   2.770   3.330  16.707 -0.6469  1.8251 -1.9984
15615TIP3   OH268335   0.773   0.384  14.090  0.5920  0.2838  0.4193
15615TIP3    H168336   0.791   0.474  14.062 -2.1482  0.1884 -1.9357
15615TIP3    H268337   0.817   0.329  14.026  1.1073 -0.0431  1.0500
15616TIP3   OH268338   2.147   1.736  16.997 -0.5522  0.1189 -0.4182
15616TIP3    H168339   2.193   1.811  17.036  0.0958 -0.0592 -0.8282
15616TIP3    H268340   2.105   1.692  17.071  1.1806 -0.5674  0.1719
15617TIP3   OH268341   5.589   5.800  12.568 -0.9449  0.6638  0.4279
15617TIP3    H168342   5.550   5.877  12.526 -1.5490  1.4741  2.4062
15617TIP3    H268343   5.554   5.801  12.657 -0.8443 -1.8418  0.5329
15618TIP3   OH268344   1.404   0.140  12.012  0.2401  0.7559 -0.3080
15618TIP3    H168345   1.315   0.162  12.038  0.4758 -0.1795  1.3160
15618TIP3    H268346   1.393   0.076  11.941 -0.3718 -1.0298  1.3816
15619TIP3   OH268347   3.532   4.556  13.783  0.3731 -0.2378  0.1724
15619TIP3    H168348   3.482   4.627  13.743 -0.4091 -1.6327 -1.3769
15619TIP3    H268349   3.619   4.562  13.742  0.1436 -0.5001 -0.3616
15620TIP3   OH268350   3.740   2.613   6.544 -0.0267  0.0640 -0.0551
15620TIP3    H168351   3.648   2.591   6.552  0.2762 -0.9302  0.7225
15620TIP3    H268352   3.744   2.669   6.466 -1.2487 -0.0316 -0.1999
15621TIP3   OH268353   5.395   5.091  14.989  0.1529  0.2432  0.0894
15621TIP3    H168354   5.433   5.062  14.906  1.1175 -0.6212  0.8172
15621TIP3    H268355   5.449   5.166  15.014  0.1166  0.2570  0.1252
15622TIP3   OH268356   5.828   6.718   2.714  0.4410  0.2385 -0.4964
15622TIP3    H168357   5.891   6.682   2.652 -0.3407 -1.1105 -0.5209
15622TIP3    H268358   5.823   6.653   2.784 -0.9964  0.2836 -0.5389
15623TIP3   OH268359   2.278   6.277  13.283  0.1209  0.1362 -0.2777
15623TIP3    H168360   2.366   6.242  13.290 -0.6838 -1.9176 -0.0148
15623TIP3    H268361   2.236   6.255  13.366 -0.8127  0.5807 -0.6156
15624TIP3   OH268362   3.748   0.933   3.334  0.1392  1.0544  0.2193
15624TIP3    H168363   3.761   0.893   3.248 -1.6868 -0.7317  0.7209
15624TIP3    H268364   3.806   1.009   3.334  0.4928  0.8471 -2.4127
15625TIP3   OH268365   3.110   0.036   5.296 -0.1135  0.6741 -0.3617
15625TIP3    H168366   3.079   0.115   5.252  0.4146  1.2063  0.2227
15625TIP3    H268367   3.096  -0.034   5.231  1.4463  1.5785 -1.7103
15626TIP3   OH268368   5.086   5.354  16.226  0.5199 -0.2134  0.2020
15626TIP3    H168369   4.997   5.357  16.258 -0.0584 -3.6215 -0.8236
15626TIP3    H268370   5.134   5.305  16.293  0.5945 -2.2217 -1.2709
15627TIP3   OH268371   2.037   4.146   0.753 -0.3056 -0.1541 -0.1058
15627TIP3    H168372   1.943   4.167   0.756 -0.2475 -0.0218  1.0822
15627TIP3    H268373   2.040   4.051   0.748 -0.5114 -0.1630 -0.0647
15628TIP3   OH268374   6.165   1.635   2.163  0.2104  0.0812  0.5395
15628TIP3    H168375   6.090   1.676   2.119 -0.8202 -1.5638  0.6969
15628TIP3    H268376   6.131   1.550   2.192  1.8442 -0.2310  1.5704
15629TIP3   OH268377   5.540   0.952   0.511  0.2093  0.0533 -0.6675
15629TIP3    H168378   5.482   1.029   0.513  0.8967  0.5631  0.8005
15629TIP3    H268379   5.540   0.924   0.420 -0.3054  1.6218 -1.1717
15630TIP3   OH268380   6.363   5.421  13.626  0.7902  0.2104 -0.8067
15630TIP3    H168381   6.270   5.410  13.609  1.0360  0.2387 -2.1829
15630TIP3    H268382   6.379   5.369  13.706 -0.6225  1.1832  0.1210
15631TIP3   OH268383   1.622   2.717  10.543  0.6154  0.1389 -0.5541
15631TIP3    H168384   1.575   2.634  10.550  0.1222  0.2976 -1.7961
15631TIP3    H268385   1.707   2.700  10.584 -0.2064 -0.3930  0.9645
15632TIP3   OH268386   0.629   6.212  10.860 -0.0836 -0.1304  0.2877
15632TIP3    H168387   0.709   6.260  10.839  1.1552 -1.4113  1.9327
15632TIP3    H268388   0.558   6.271  10.835  1.3409  0.4825 -2.4697
15633TIP3   OH268389   2.411   2.116  14.849  0.0265 -0.3036 -0.4385
15633TIP3    H168390   2.439   2.193  14.899 -0.5536  0.2808 -1.0052
15633TIP3    H268391   2.372   2.152  14.769 -1.6573 -1.1327 -0.0091
15634TIP3   OH268392   4.449   2.986  12.518 -0.8853 -0.6872  0.1943
15634TIP3    H168393   4.414   3.001  12.606 -1.1892 -1.8998  0.2834
15634TIP3    H268394   4.540   3.013  12.523 -1.3008  0.7134  0.4633
15635TIP3   OH268395   2.614   1.572  11.439  0.1612 -0.2667 -0.0009
15635TIP3    H168396   2.618   1.583  11.344  1.8357  1.7325  0.2714
15635TIP3    H268397   2.593   1.659  11.473 -1.2505 -1.1430  1.4321
15636TIP3   OH268398   4.865   5.789  11.303  0.6600 -0.0642  0.0721
15636TIP3    H168399   4.884   5.760  11.213  2.3953 -2.3633  1.1255
15636TIP3    H268400   4.792   5.734  11.331 -1.3861  2.2005 -0.6602
15637TIP3   OH268401   1.347   5.856   5.073 -0.3541  0.0376 -0.1239
15637TIP3    H168402   1.305   5.773   5.051  1.2448 -1.1516  1.1233
15637TIP3    H268403   1.382   5.888   4.990 -1.1905 -0.4035 -0.6541
15638TIP3   OH268404   4.610   3.670   3.702  0.1198 -0.2580  0.6932
15638TIP3    H168405   4.693   3.633   3.671  0.7500  1.6410  0.0163
15638TIP3    H268406   4.631   3.762   3.720 -1.7581  0.1414  0.8810
15639TIP3   OH268407   4.395   2.129  14.568 -0.1056 -0.6085 -0.4655
15639TIP3    H168408   4.485   2.153  14.544  0.4769 -0.6944  1.5340
15639TIP3    H268409   4.381   2.045  14.524  1.3892 -1.3871  0.4933
15640TIP3   OH268410   6.238   5.314  14.583 -0.0709  0.3908  0.1113
15640TIP3    H168411   6.172   5.247  14.567  0.6331  0.1516 -2.0990
15640TIP3    H268412   6.241   5.324  14.678 -0.9524 -1.9341  0.4147
15641TIP3   OH268413   6.657   5.803  14.588 -0.0282  0.0371  0.1336
15641TIP3    H168414   6.642   5.708  14.583 -2.2374  0.4171 -0.9056
15641TIP3    H268415   6.607   5.832  14.664  2.6254  0.0573  1.9525
15642TIP3   OH268416   6.758   4.631  13.031  0.2728  0.5136 -0.5583
15642TIP3    H168417   6.675   4.646  12.986  0.0757 -0.2038 -0.4306
15642TIP3    H268418   6.738   4.566  13.098  0.5293  1.6893  0.6726
15643TIP3   OH268419   2.154   5.012  16.146 -0.5834 -0.0829  0.3020
15643TIP3    H168420   2.140   4.950  16.217  1.8029  1.1016  1.8451
15643TIP3    H268421   2.165   4.957  16.068 -0.0836 -1.5325  1.3717
15644TIP3   OH268422   0.170   6.147   0.547  0.2101 -0.0544  0.4563
15644TIP3    H168423   0.173   6.219   0.483  0.1366 -1.0637 -0.7062
15644TIP3    H268424   0.244   6.091   0.522  1.4871  0.6116  2.5767
15645TIP3   OH268425   1.594   2.489   0.856  0.3477  0.9994 -0.0180
15645TIP3    H168426   1.577   2.419   0.919 -1.3822  1.5794  0.1624
15645TIP3    H268427   1.542   2.465   0.779  0.8026  1.3943 -0.4502
15646TIP3   OH268428   2.572   6.776  16.512 -0.0020  0.2585 -0.6677
15646TIP3    H168429   2.495   6.728  16.542 -0.3934  0.3818 -1.4724
15646TIP3    H268430   2.626   6.709  16.470  0.0006  0.3063 -0.7394
15647TIP3   OH268431   4.023   4.437   2.431  0.2729 -0.0153 -0.4838
15647TIP3    H168432   4.000   4.459   2.522  0.2231 -0.4592 -0.3893
15647TIP3    H268433   4.054   4.347   2.435  0.2942 -0.0287 -0.9080
15648TIP3   OH268434   3.719   5.912   2.066 -0.7180 -0.1021 -0.0443
15648TIP3    H168435   3.627   5.925   2.087 -0.6566 -0.4281  0.4281
15648TIP3    H268436   3.742   5.828   2.106 -0.7229 -0.9590 -1.7911
15649TIP3   OH268437   1.767   3.204   2.597  0.0268  0.3125 -0.3340
15649TIP3    H168438   1.747   3.277   2.655 -1.2609 -1.2506  1.2424
15649TIP3    H268439   1.839   3.158   2.640 -0.6744 -0.6329 -0.1572
15650TIP3   OH268440   4.340   2.988   1.186 -0.1640 -0.0773 -0.8221
15650TIP3    H168441   4.367   3.078   1.205 -0.9369  0.0273 -0.2018
15650TIP3    H268442   4.406   2.933   1.229 -1.0796  0.1763  0.9457
15651TIP3   OH268443   5.146   2.284  14.747  0.0388 -0.2383 -0.5809
15651TIP3    H168444   5.113   2.201  14.715  0.3903 -0.2476 -0.9299
15651TIP3    H268445   5.239   2.268  14.762  0.0568  0.0221 -0.4128
15652TIP3   OH268446   5.931   2.567   5.521 -0.1820 -0.0633 -0.1838
15652TIP3    H168447   5.969   2.538   5.438  1.3194 -0.9351  0.7865
15652TIP3    H268448   5.897   2.486   5.561  2.4292 -0.2834  1.7267
15653TIP3   OH268449   4.239   4.667   3.982  0.0226 -0.1911 -0.1855
15653TIP3    H168450   4.160   4.686   3.932 -0.9590 -0.5855  1.1951
15653TIP3    H268451   4.262   4.751   4.023  0.0461 -0.1893 -0.2028
15654TIP3   OH268452   3.504   4.648  10.920 -0.1197  0.2007 -0.1743
15654TIP3    H168453   3.543   4.730  10.891  0.8986  0.0446  0.7375
15654TIP3    H268454   3.562   4.580  10.885 -1.7490 -0.2243 -2.1721
15655TIP3   OH268455   6.132   4.045  11.970 -0.1098 -0.1847  0.3426
15655TIP3    H168456   6.092   3.961  11.993  0.1022 -0.9437 -1.9375
15655TIP3    H268457   6.084   4.074  11.892  2.1969  0.0160 -1.0585
15656TIP3   OH268458   3.997   0.015  12.372  0.3149  0.3404 -0.1051
15656TIP3    H168459   3.907   0.019  12.340 -0.2125 -2.1965  0.8753
15656TIP3    H268460   4.049   0.056  12.303 -1.4778  0.9470 -1.1398
15657TIP3   OH268461   1.536   5.954   5.259 -0.3450  0.1426  0.2259
15657TIP3    H168462   1.454   5.939   5.212 -0.3403 -0.6188  0.4477
15657TIP3    H268463   1.582   6.021   5.208 -0.8166  0.0948 -0.2569
15658TIP3   OH268464   3.803   0.773   3.136 -0.2402 -0.1452  0.3073
15658TIP3    H168465   3.836   0.738   3.054  1.1137  0.7258  0.4567
15658TIP3    H268466   3.762   0.699   3.180 -1.6659 -0.4441 -1.4814
15659TIP3   OH268467   0.706   4.518  12.607  0.2428  1.3343 -0.1393
15659TIP3    H168468   0.716   4.453  12.676 -0.6316 -0.6351 -1.8242
15659TIP3    H268469   0.796   4.537  12.579  0.4065 -1.2556 -1.5130
15660TIP3   OH268470   5.304   6.499   4.168 -0.1659 -0.9581 -0.0275
15660TIP3    H168471   5.293   6.543   4.253 -2.2058 -0.3634 -0.5570
15660TIP3    H268472   5.392   6.463   4.171  0.8561  1.5027  1.2142
15661TIP3   OH268473   6.056   0.292  15.739 -0.4525  0.0823 -0.4979
15661TIP3    H168474   5.988   0.241  15.783 -1.6452  1.6934 -0.4162
15661TIP3    H268475   6.029   0.383  15.751  1.5868  0.7464 -0.7054
15662TIP3   OH268476   2.140   1.971   3.998 -1.0633 -0.2046 -0.4056
15662TIP3    H168477   2.101   2.054   4.026  2.2853  0.1504  3.6573
15662TIP3    H268478   2.117   1.909   4.067 -0.6276 -1.8145 -1.6815
15663TIP3   OH268479   0.948   0.385   1.915 -0.0022  0.3936 -0.1779
15663TIP3    H168480   0.876   0.442   1.942 -1.1940 -0.6800 -1.0469
15663TIP3    H268481   0.963   0.327   1.989 -1.4356 -0.7505 -0.7683
15664TIP3   OH268482   2.262   2.274   5.543  0.5686  0.7028  0.3228
15664TIP3    H168483   2.320   2.206   5.576  0.0981 -0.6582 -1.5602
15664TIP3    H268484   2.213   2.232   5.472  0.0011  2.8975 -0.6476
15665TIP3   OH268485   4.525   4.926  15.523  0.0682 -0.0366 -0.7168
15665TIP3    H168486   4.553   4.841  15.558  1.2255  0.2885 -0.8489
15665TIP3    H268487   4.589   4.946  15.455 -2.2597 -0.7649 -3.2195
15666TIP3   OH268488   6.447   6.055  15.904 -0.2929  0.7623 -0.6107
15666TIP3    H168489   6.361   6.057  15.862  0.3110  2.2993 -1.8141
15666TIP3    H268490   6.464   5.962  15.918 -1.6720  0.3790 -1.3554
15667TIP3   OH268491   3.322   5.849   6.217  0.0695 -0.1191 -0.0045
15667TIP3    H168492   3.239   5.809   6.192  0.1976 -1.0005  0.9423
15667TIP3    H268493   3.321   5.935   6.175 -1.6403  0.1745  0.5992
15668TIP3   OH268494   1.284   0.041  11.617  0.0949 -0.1373 -0.0086
15668TIP3    H168495   1.294  -0.002  11.703  1.6740 -0.0322 -0.1177
15668TIP3    H268496   1.371   0.077  11.599 -1.0739  2.6829 -0.1592
15669TIP3   OH268497   0.890   4.258   2.872 -0.2886 -0.1978  0.2500
15669TIP3    H168498   0.820   4.257   2.938 -0.4928  0.8641  0.0632
15669TIP3    H268499   0.848   4.233   2.791 -0.8337  2.0704 -0.2016
15670TIP3   OH268500   6.086   3.744   4.882 -0.0315  0.3148  0.4142
15670TIP3    H168501   6.177   3.720   4.868  0.0128  0.8421 -0.2291
15670TIP3    H268502   6.036   3.676   4.836  0.0609  0.6013 -0.1136
15671TIP3   OH268503   6.660   0.479   6.241 -0.3297  0.5978  0.2285
15671TIP3    H168504   6.709   0.455   6.319 -0.0217  0.1584 -0.0942
15671TIP3    H268505   6.714   0.544   6.197  0.5583 -0.7490 -0.7409
15672TIP3   OH268506   2.609   0.582  11.721 -0.0770 -0.2179 -0.0127
15672TIP3    H168507   2.558   0.504  11.742 -1.2349  0.4912 -0.1108
15672TIP3    H268508   2.592   0.597  11.627 -1.6792  1.4092  0.4924
15673TIP3   OH268509   2.640   4.073  11.418  0.2558 -0.2607  0.0000
15673TIP3    H168510   2.714   4.131  11.398 -1.0718  2.4339  2.5980
15673TIP3    H268511   2.680   3.995  11.456  1.8921  0.0095 -1.0986
15674TIP3   OH268512   0.702   2.233   2.385 -0.4805 -0.2336 -0.1564
15674TIP3    H168513   0.687   2.219   2.478  0.8078 -2.0966 -0.2160
15674TIP3    H268514   0.731   2.324   2.379  0.6343 -0.4679  1.4145
15675TIP3   OH268515   3.420   0.903  12.458 -0.3110  0.0083 -0.0984
15675TIP3    H168516   3.376   0.917  12.373  0.2439 -3.5616 -1.0419
15675TIP3    H268517   3.361   0.844  12.505  1.6364 -1.8389  0.0911
15676TIP3   OH268518   1.963   0.424   0.531  0.0990 -0.2666  0.0649
15676TIP3    H168519   2.044   0.426   0.581  0.6684 -2.8224 -0.7286
15676TIP3    H268520   1.986   0.461   0.446 -0.0390  0.7175  0.4383
15677TIP3   OH268521   3.613   4.066  15.477 -0.4944 -0.0236  0.2617
15677TIP3    H168522   3.523   4.070  15.509 -0.6594  1.4157 -0.3387
15677TIP3    H268523   3.621   3.979  15.439 -2.2817  0.5342 -1.5085
15678TIP3   OH268524   6.477   2.905  12.299 -0.4697  0.6312  0.1392
15678TIP3    H168525   6.434   2.862  12.373  0.5448  1.3557  1.1637
15678TIP3    H268526   6.506   2.832  12.243  1.6623 -0.0742  2.0957
15679TIP3   OH268527   5.501   4.799   5.024  0.2342 -0.1707 -0.3502
15679TIP3    H168528   5.491   4.791   4.929 -1.4052  0.4227 -0.2523
15679TIP3    H268529   5.507   4.709   5.055 -1.1330 -0.4622 -0.8594
15680TIP3   OH268530   0.170   2.157   1.873 -0.0152  0.0567 -0.4012
15680TIP3    H168531   0.228   2.091   1.837  0.5453  1.0417 -1.3385
15680TIP3    H268532   0.089   2.110   1.894  0.5147 -0.9896 -0.6854
15681TIP3   OH268533   1.405   5.166  17.124 -0.0508  0.2795  0.4910
15681TIP3    H168534   1.316   5.167  17.089  0.3009 -0.5887 -0.4427
15681TIP3    H268535   1.415   5.078  17.160  0.3203  0.4863  0.8957
15682TIP3   OH268536   6.112   0.617   1.059 -0.2996  0.3596 -0.3990
15682TIP3    H168537   6.067   0.557   1.000  1.6285 -0.0656 -1.4843
15682TIP3    H268538   6.109   0.574   1.145 -0.7485 -0.3008 -0.7444
15683TIP3   OH268539   3.886   4.419   0.036 -0.3584 -0.3137  1.1081
15683TIP3    H168540   3.864   4.470   0.114  1.1334  0.9377  0.7397
15683TIP3    H268541   3.879   4.482  -0.036 -0.1469 -1.0634  0.4245
15684TIP3   OH268542   1.086   5.328   2.166  0.1475 -0.8140  0.2599
15684TIP3    H168543   1.064   5.409   2.121  0.4771 -0.0654  1.4258
15684TIP3    H268544   1.179   5.335   2.185  0.0619 -1.2002  0.8632
15685TIP3   OH268545   0.083   0.883   0.045  0.0241  0.0454  0.3671
15685TIP3    H168546   0.041   0.931  -0.027  0.2638  1.0791  0.9012
15685TIP3    H268547   0.085   0.792   0.015 -1.3541  0.1992 -0.2385
15686TIP3   OH268548   5.066   1.744  13.775 -0.0285 -0.1001 -0.1468
15686TIP3    H168549   5.081   1.649  13.775  1.7193  0.1428  1.5495
15686TIP3    H268550   5.067   1.768  13.682  0.5489 -1.5856 -0.5505
15687TIP3   OH268551   3.975   0.839   6.029 -0.2994 -0.2722 -0.3096
15687TIP3    H168552   3.972   0.907   5.961 -0.4043 -0.1786 -0.2100
15687TIP3    H268553   3.954   0.884   6.110 -0.6475 -0.4803 -0.2846
15688TIP3   OH268554   5.490   1.471   1.409  0.1883 -0.8427  0.1068
15688TIP3    H168555   5.502   1.401   1.473  0.8104 -0.9464 -0.1255
15688TIP3    H268556   5.423   1.438   1.350 -0.8261 -0.5059  1.0541
15689TIP3   OH268557   3.995   2.200   1.607 -0.1902  0.2866  0.3118
15689TIP3    H168558   4.070   2.215   1.664 -0.5150  0.9740  0.5641
15689TIP3    H268559   3.918   2.220   1.662 -0.5423 -0.1341 -0.0256
15690TIP3   OH268560   0.525   6.432   0.530 -0.4770 -0.4857 -0.1706
15690TIP3    H168561   0.489   6.503   0.476 -2.4520 -1.0985  0.2885
15690TIP3    H268562   0.453   6.408   0.588  0.4971 -2.2126  0.3507
15691TIP3   OH268563   6.033   6.255   3.462 -0.3611  0.9588  0.1117
15691TIP3    H168564   6.082   6.239   3.542 -1.3341  0.2258  0.5657
15691TIP3    H268565   5.976   6.178   3.452  1.2914 -0.0220 -2.4244
15692TIP3   OH268566   3.301   0.238   4.166  0.0433  0.1900  1.4517
15692TIP3    H168567   3.352   0.292   4.105 -0.1158  0.2644  1.3834
15692TIP3    H268568   3.361   0.168   4.193 -0.3350 -0.6879  0.0779
15693TIP3   OH268569   0.541   6.212  14.999 -0.4314 -0.3815  0.4130
15693TIP3    H168570   0.493   6.219  14.917 -0.4488 -0.3139  0.4280
15693TIP3    H268571   0.631   6.232  14.977 -0.4736 -0.1458  0.4489
15694TIP3   OH268572   4.412   3.823  16.486 -0.0932 -0.8260 -0.0953
15694TIP3    H168573   4.367   3.747  16.450  0.5618 -0.9844 -0.6086
15694TIP3    H268574   4.505   3.802  16.477  0.0928 -0.0432 -0.0829
15695TIP3   OH268575   5.227   1.263  13.279 -0.6533  0.0408  0.2812
15695TIP3    H168576   5.188   1.341  13.319  0.0659  0.2429  0.5868
15695TIP3    H268577   5.220   1.196  13.347 -1.4043 -0.2109 -0.0329
15696TIP3   OH268578   4.436   3.980   4.219 -0.2766  0.1183  0.2443
15696TIP3    H168579   4.415   4.069   4.189  0.7368 -0.5270 -2.6076
15696TIP3    H268580   4.454   3.989   4.312 -1.4765  2.6829  0.2560
15697TIP3   OH268581   3.487   6.251  15.073 -0.2056 -0.3846 -0.4511
15697TIP3    H168582   3.409   6.307  15.063  0.3760  0.6352  0.6076
15697TIP3    H268583   3.561   6.312  15.069  0.4837 -1.1986 -0.2162
15698TIP3   OH268584   3.628   1.536  15.489  0.5916 -0.3481  0.0424
15698TIP3    H168585   3.697   1.497  15.435 -0.1537 -1.8458  0.1664
15698TIP3    H268586   3.622   1.626  15.458  3.6217  0.2632  1.0025
15699TIP3   OH268587   4.516   4.607  11.295  0.0255 -0.0652 -0.0012
15699TIP3    H168588   4.507   4.516  11.266 -1.0236 -0.1278  0.5228
15699TIP3    H268589   4.589   4.605  11.358 -0.0458 -0.5527  0.0648
15700TIP3   OH268590   3.473   1.742  11.446 -0.1682 -0.0982 -0.0642
15700TIP3    H168591   3.540   1.705  11.389 -1.8196  0.0423 -2.1959
15700TIP3    H268592   3.517   1.811  11.495  1.7337 -1.4785  0.2204
15701TIP3   OH268593   2.494   2.265  16.895  0.2873  0.4159  0.4393
15701TIP3    H168594   2.579   2.284  16.854 -0.0812  0.8937 -0.1161
15701TIP3    H268595   2.432   2.263  16.822 -0.0969 -0.4257  0.7908
15702TIP3   OH268596   1.453   4.112  12.411 -0.0705 -0.0257  0.1126
15702TIP3    H168597   1.420   4.045  12.471 -0.0090 -0.4244 -0.3038
15702TIP3    H268598   1.377   4.168  12.394 -1.0422 -2.0230 -2.3427
15703TIP3   OH268599   2.714   6.103   4.875  0.4413  0.1059  0.1567
15703TIP3    H168600   2.682   6.013   4.864  0.2020  0.3888 -1.5913
15703TIP3    H268601   2.805   6.093   4.902  0.7733 -0.6606 -1.2185
15704TIP3   OH268602   2.703   3.224  11.435 -0.4236  0.6497  0.0553
15704TIP3    H168603   2.700   3.319  11.422 -3.0943  0.4922 -0.8505
15704TIP3    H268604   2.636   3.190  11.375 -0.6602 -1.6529  1.5786
15705TIP3   OH268605   4.989   0.990   1.272  0.0459 -0.1711  0.4237
15705TIP3    H168606   4.997   1.074   1.318  0.0631  1.3812 -2.3468
15705TIP3    H268607   4.898   0.988   1.241  0.6789 -0.1032 -1.4962
15706TIP3   OH268608   6.313   4.475   4.034  0.2498  0.5537  0.2262
15706TIP3    H168609   6.387   4.536   4.040 -1.1795  2.3728 -0.4127
15706TIP3    H268610   6.349   4.392   4.066  2.7717  1.2205 -0.7158
15707TIP3   OH268611   3.124   4.222   3.206  0.0869 -0.0027 -0.5982
15707TIP3    H168612   3.079   4.252   3.126 -0.5455  0.5571 -0.0392
15707TIP3    H268613   3.068   4.252   3.277  2.1430  2.1268  0.1910
15708TIP3   OH268614   2.285   6.259  11.209  0.3277  0.4236  0.0334
15708TIP3    H168615   2.308   6.286  11.297 -2.0184  0.2002  0.7635
15708TIP3    H268616   2.189   6.259  11.208  0.2982 -0.8313 -2.1135
15709TIP3   OH268617   5.132   3.116   3.017  0.1660  0.2639 -0.1084
15709TIP3    H168618   5.147   3.206   3.046  1.5912  0.0848 -0.2547
15709TIP3    H268619   5.214   3.071   3.036 -0.3193 -0.8580 -0.6267
15710TIP3   OH268620   2.891   5.351  14.955  0.5520  0.0292 -0.9736
15710TIP3    H168621   2.902   5.306  14.871 -2.9533 -1.1698 -0.8779
15710TIP3    H268622   2.848   5.287  15.011 -0.1812  1.9147  0.6874
15711TIP3   OH268623   0.280   0.158   6.746  0.2296  0.5937  0.1837
15711TIP3    H168624   0.342   0.147   6.673 -0.4462  2.6319 -0.7170
15711TIP3    H268625   0.224   0.081   6.740 -0.1625  0.9874 -1.8152
15712TIP3   OH268626   4.912   2.956  13.049 -0.9877 -0.3791 -0.5804
15712TIP3    H168627   4.832   3.004  13.070  1.3685  3.0413  1.2172
15712TIP3    H268628   4.935   2.910  13.129 -0.6753 -0.6016 -0.7962
15713TIP3   OH268629   0.128   2.321  12.257  0.2215  0.0194 -0.1122
15713TIP3    H168630   0.217   2.290  12.242  0.0735  0.5098 -2.1176
15713TIP3    H268631   0.138   2.397  12.316  0.9182 -1.2342  1.4295
15714TIP3   OH268632   2.822   0.413   4.295  0.0332 -0.1672  0.4419
15714TIP3    H168633   2.887   0.344   4.284 -1.7277 -2.0987  1.9906
15714TIP3    H268634   2.748   0.387   4.240 -0.2212  1.0638  0.1655
15715TIP3   OH268635   4.158   2.493  12.905 -0.0792  0.1944  0.2076
15715TIP3    H168636   4.067   2.506  12.878  0.3120  0.3086 -1.0937
15715TIP3    H268637   4.209   2.505  12.825  0.9494 -1.5856  0.5557
15716TIP3   OH268638   6.672   1.799   1.021 -0.1767  0.2421 -0.0814
15716TIP3    H168639   6.612   1.731   1.052 -0.8642 -0.1012 -2.0602
15716TIP3    H268640   6.646   1.814   0.930  1.2055  1.8068 -0.2512
15717TIP3   OH268641   2.349   2.792   4.040  0.3438 -0.3012  0.6608
15717TIP3    H168642   2.427   2.828   4.082  1.6055  0.6126 -2.3452
15717TIP3    H268643   2.345   2.836   3.955 -2.0023 -2.2521 -0.2934
15718TIP3   OH268644   5.362   6.198  12.216 -0.3037  0.4982  0.2301
15718TIP3    H168645   5.457   6.189  12.222 -0.3395 -1.0705 -1.1029
15718TIP3    H268646   5.340   6.162  12.130 -1.9041  2.6091 -0.2758
15719TIP3   OH268647   4.207   1.875  11.860 -0.0407 -0.0150 -0.3057
15719TIP3    H168648   4.229   1.849  11.949 -3.1006  0.4291  0.6541
15719TIP3    H268649   4.169   1.962  11.869 -1.7334 -0.5614 -1.8150
15720TIP3   OH268650   4.661   3.864  14.577  0.2206  0.4147 -0.4578
15720TIP3    H168651   4.716   3.845  14.501 -1.4204 -0.0910 -1.5318
15720TIP3    H268652   4.666   3.784  14.630  1.0771  0.6325 -0.2051
15721TIP3   OH268653   2.538   3.414  11.303 -0.3253  0.1833 -0.1253
15721TIP3    H168654   2.540   3.481  11.234 -1.9271 -0.2046 -0.5572
15721TIP3    H268655   2.446   3.392  11.312  0.0075 -0.6326  1.3271
15722TIP3   OH268656   4.115   4.309  14.238  0.1371 -0.6326  0.1144
15722TIP3    H168657   4.028   4.310  14.198  0.2908 -0.3768 -0.2165
15722TIP3    H268658   4.173   4.346  14.171  0.5834 -1.2612  0.1419
15723TIP3   OH268659   3.369   0.825  11.536  0.0660 -0.6154  0.2013
15723TIP3    H168660   3.442   0.767  11.559 -0.8852 -1.0199  2.3432
15723TIP3    H268661   3.303   0.808  11.604 -2.5949 -1.2458 -2.4279
15724TIP3   OH268662   6.019   2.722  15.176  0.2275  0.3768 -0.1713
15724TIP3    H168663   6.040   2.815  15.168 -0.7119  0.9771  3.6488
15724TIP3    H268664   6.000   2.708  15.269  0.4654 -3.6740 -0.6058
15725TIP3   OH268665   3.741   3.901   0.994 -0.6526 -0.2371  0.3601
15725TIP3    H168666   3.792   3.939   0.922 -2.2471  0.7408 -0.2793
15725TIP3    H268667   3.804   3.848   1.043  0.6049 -0.3628 -1.3645
15726TIP3   OH268668   4.070   2.217   5.961  0.1540  0.0805 -0.0420
15726TIP3    H168669   4.072   2.255   5.873 -0.7809  0.5799  0.1432
15726TIP3    H268670   4.161   2.218   5.990  0.3548  0.6705 -0.6818
15727TIP3   OH268671   1.678   1.142   3.318 -0.1178  0.0925  0.2669
15727TIP3    H168672   1.590   1.169   3.290 -0.4397 -0.1625  1.0200
15727TIP3    H268673   1.686   1.177   3.407  0.1565 -0.7644  0.5806
15728TIP3   OH268674   3.572   3.704   5.628  0.3521  0.3946  0.2121
15728TIP3    H168675   3.554   3.688   5.721 -1.1568  0.5866 -0.0280
15728TIP3    H268676   3.654   3.658   5.611 -0.3604 -1.2718  1.1870
15729TIP3   OH268677   5.187   0.846  16.911  0.0882  0.1006 -0.0232
15729TIP3    H168678   5.177   0.940  16.897  0.5128 -0.0461 -1.4207
15729TIP3    H268679   5.209   0.837  17.004  2.8468  1.6130 -0.4721
15730TIP3   OH268680   6.380   0.402   3.348  0.1033  0.0003 -0.2822
15730TIP3    H168681   6.448   0.468   3.358 -1.0841  1.0499  1.1032
15730TIP3    H268682   6.366   0.368   3.436 -2.6096  1.2851 -0.1655
15731TIP3   OH268683   0.637   0.833   5.103 -0.4225 -0.4709  0.2906
15731TIP3    H168684   0.687   0.814   5.183 -0.6494  1.4382  0.9097
15731TIP3    H268685   0.601   0.920   5.117 -1.5044 -0.6127 -1.3980
15732TIP3   OH268686   5.800   4.068   5.140 -0.0420  0.5068 -0.0131
15732TIP3    H168687   5.779   4.162   5.143  0.1052  0.5486 -0.3164
15732TIP3    H268688   5.891   4.065   5.111 -0.5708  0.2092 -1.6896
15733TIP3   OH268689   5.032   6.688   2.625 -0.4045  0.1654  0.4134
15733TIP3    H168690   4.956   6.633   2.644 -0.3493 -0.0478  0.0327
15733TIP3    H268691   5.070   6.649   2.546  0.4740 -0.1070  0.9642
15734TIP3   OH268692   6.505   2.681  12.131  0.2981 -0.2100  0.1707
15734TIP3    H168693   6.413   2.708  12.127  0.5972  0.8385  0.1330
15734TIP3    H268694   6.507   2.613  12.198 -0.8713 -1.8011 -1.3720
15735TIP3   OH268695   1.674   2.961   1.780  0.1313  0.1681 -0.3504
15735TIP3    H168696   1.757   2.940   1.737  0.5545 -0.5366  0.7756
15735TIP3    H268697   1.613   2.897   1.746  0.2589  0.1544 -0.5533
15736TIP3   OH268698   5.569   6.159   5.573  0.0486  0.6616 -0.2621
15736TIP3    H168699   5.583   6.252   5.593  0.2867  1.1429 -2.5551
15736TIP3    H268700   5.550   6.119   5.658  3.3584  2.1630  1.3110
15737TIP3   OH268701   0.510   6.815  14.607 -0.0886 -0.6055  0.0737
15737TIP3    H168702   0.572   6.759  14.653  0.0498 -0.3687  0.1755
15737TIP3    H268703   0.529   6.904  14.639  1.1100 -0.2088 -1.6554
15738TIP3   OH268704   5.085   1.461   5.272 -0.4249 -0.3601  0.1577
15738TIP3    H168705   4.998   1.461   5.312 -0.5929  1.0360 -0.1758
15738TIP3    H268706   5.080   1.393   5.205 -2.3775  1.9863 -2.1844
15739TIP3   OH268707   2.738   3.739  11.084  0.3059 -0.6368  0.7103
15739TIP3    H168708   2.826   3.760  11.115  1.0522 -0.4026 -1.5125
15739TIP3    H268709   2.750   3.711  10.993 -1.7859 -1.6974  0.7303
15740TIP3   OH268710   5.892   5.115   6.131  0.4189 -0.1174 -0.5589
15740TIP3    H168711   5.935   5.200   6.133  0.3606 -0.0807 -0.8007
15740TIP3    H268712   5.919   5.072   6.212  0.1380  0.2850 -0.2488
15741TIP3   OH268713   4.550   4.726   5.967 -0.0347  0.3345 -0.2850
15741TIP3    H168714   4.641   4.753   5.955 -0.2521  0.5140 -1.5427
15741TIP3    H268715   4.531   4.746   6.059  0.7926  1.4935 -0.3537
15742TIP3   OH268716   3.592   6.625  15.056  0.4236 -0.5741 -0.2276
15742TIP3    H168717   3.508   6.671  15.049 -0.2092 -1.5717  0.5327
15742TIP3    H268718   3.639   6.669  15.126  0.6064  0.0983 -0.7728
15743TIP3   OH268719   0.923   0.491  12.057  0.0776  0.0659 -0.1545
15743TIP3    H168720   0.923   0.507  12.151 -1.0876 -0.9470  0.0346
15743TIP3    H268721   1.015   0.483  12.033  0.4536  1.7393  0.6432
15744TIP3   OH268722   3.084   3.548   4.341  0.0495  0.1291 -0.3464
15744TIP3    H168723   3.144   3.516   4.408 -0.6775  0.1279  0.3040
15744TIP3    H268724   3.033   3.616   4.384 -0.2730  0.2850 -0.9618
15745TIP3   OH268725   5.885   5.820   4.810  0.5079 -0.1331 -0.5320
15745TIP3    H168726   5.833   5.744   4.782  1.1114 -0.1135 -1.7337
15745TIP3    H268727   5.972   5.804   4.775  0.7773  0.8674 -0.3375
15746TIP3   OH268728   5.694   1.055   0.168 -0.3476  0.1485 -0.5810
15746TIP3    H168729   5.696   1.089   0.079  2.0978 -0.2315 -0.6847
15746TIP3    H268730   5.727   0.965   0.161 -1.9707 -0.5694  0.4390
15747TIP3   OH268731   0.250   1.586   4.182 -0.3437  0.0310 -0.1570
15747TIP3    H168732   0.166   1.557   4.216 -1.9613 -0.4197 -4.2146
15747TIP3    H268733   0.234   1.602   4.089  4.0052  0.1474 -1.0095
15748TIP3   OH268734   2.390   4.625   3.111  0.1388 -0.0486  0.0269
15748TIP3    H168735   2.335   4.562   3.064  0.9649 -1.1128  0.4682
15748TIP3    H268736   2.332   4.700   3.127 -0.7474 -0.5423 -0.8230
15749TIP3   OH268737   3.210   1.475   5.108  0.0595 -0.0617 -0.8772
15749TIP3    H168738   3.186   1.386   5.132 -1.3096  0.9659  1.7753
15749TIP3    H268739   3.178   1.485   5.018 -2.2441 -1.3588 -0.2399
15750TIP3   OH268740   6.456   4.284   3.585 -0.0834 -0.1319  0.1289
15750TIP3    H168741   6.432   4.245   3.670 -0.1909 -0.3815 -0.0154
15750TIP3    H268742   6.404   4.364   3.580 -1.1926 -0.8798 -0.3642
15751TIP3   OH268743   3.235   4.562   3.477 -0.0238  0.0065  0.3982
15751TIP3    H168744   3.235   4.619   3.554  0.7902  0.1799  0.2714
15751TIP3    H268745   3.324   4.566   3.444 -0.5566  0.5840 -1.0283
15752TIP3   OH268746   3.040   6.773   0.963  0.4806  0.1616  0.4320
15752TIP3    H168747   3.084   6.812   1.039 -0.2819  1.8195  0.0542
15752TIP3    H268748   3.102   6.787   0.891  0.8452 -0.6590  0.5879
15753TIP3   OH268749   3.515   5.149   0.819 -0.8473 -0.5117  0.0744
15753TIP3    H168750   3.591   5.109   0.860 -1.3296 -1.7975 -0.2740
15753TIP3    H268751   3.519   5.122   0.727 -1.0941  0.3643 -0.2008
15754TIP3   OH268752   4.670   2.339  14.168 -0.0215  0.0492 -0.0765
15754TIP3    H168753   4.737   2.275  14.191  0.2480  0.7885  1.2320
15754TIP3    H268754   4.634   2.307  14.085  2.2679 -0.1065 -1.0524
15755TIP3   OH268755   6.549   3.805   5.038  0.3267 -0.1312  0.3996
15755TIP3    H168756   6.644   3.787   5.038  0.4307  0.2465 -2.7325
15755TIP3    H268757   6.543   3.899   5.027 -0.4265 -0.4626 -2.1695
15756TIP3   OH268758   1.209   5.086  12.514 -0.1750 -0.1232  0.4933
15756TIP3    H168759   1.136   5.040  12.473 -0.8576  1.3691  0.0440
15756TIP3    H268760   1.285   5.029  12.497 -0.8743 -0.7213 -0.6992
15757TIP3   OH268761   2.021   5.891  15.894 -0.3815  0.2967  0.1441
15757TIP3    H168762   1.960   5.850  15.833 -0.4527 -0.1531  0.5186
15757TIP3    H268763   2.001   5.851  15.979  0.1347  0.4747  0.3494
15758TIP3   OH268764   6.648   3.881   3.085 -0.6373 -0.6539  0.5988
15758TIP3    H168765   6.718   3.852   3.026 -0.3588  1.2891 -0.0753
15758TIP3    H268766   6.581   3.814   3.077  0.6234 -1.8977  0.2774
15759TIP3   OH268767   4.728   3.802   1.028  0.1464 -0.0025  0.4270
15759TIP3    H168768   4.755   3.868   1.092  0.0322 -1.2178  1.7712
15759TIP3    H268769   4.770   3.828   0.947  0.9163  1.1601  1.1867
15760TIP3   OH268770   4.813   2.239  11.717 -0.2350 -0.0168 -0.2727
15760TIP3    H168771   4.819   2.145  11.698 -1.2232 -0.0308 -0.5383
15760TIP3    H268772   4.795   2.279  11.632  0.5116  0.4439 -0.2104
15761TIP3   OH268773   6.236   4.321  16.772 -0.5207 -0.2677  0.3515
15761TIP3    H168774   6.227   4.292  16.681  0.8829 -0.6988  0.3253
15761TIP3    H268775   6.328   4.304  16.793 -1.2411 -1.8028  2.4017
15762TIP3   OH268776   1.920   4.837  10.785 -0.2087 -0.0509 -0.4431
15762TIP3    H168777   1.865   4.839  10.864 -0.6022 -2.7783 -0.5911
15762TIP3    H268778   1.977   4.761  10.798  1.0547  0.6232 -1.9402
15763TIP3   OH268779   4.532   5.526  11.138  0.6623 -0.5670 -0.0014
15763TIP3    H168780   4.500   5.436  11.140 -1.0313  0.0132  0.0634
15763TIP3    H268781   4.620   5.520  11.103  0.2993 -2.1867 -0.6618
15764TIP3   OH268782   1.676   0.344   5.222  0.2793 -0.3232 -0.4212
15764TIP3    H168783   1.734   0.409   5.183  0.3688  0.4491  0.9578
15764TIP3    H268784   1.713   0.327   5.309 -1.6406  0.3502  0.5607
15765TIP3   OH268785   0.002   3.727   1.198 -0.0577  0.5811 -0.0894
15765TIP3    H168786  -0.060   3.736   1.126  0.8305  0.1115 -0.9265
15765TIP3    H268787   0.064   3.799   1.185 -0.8252  1.4819  1.1563
15766TIP3   OH268788   6.302   0.058   5.083 -0.1024 -0.3637  0.1824
15766TIP3    H168789   6.305  -0.036   5.065  2.4528 -0.3558  0.3674
15766TIP3    H268790   6.390   0.089   5.065 -1.5517  2.5419 -2.4907
15767TIP3   OH268791   6.383   5.458  11.487  0.3518 -0.1297  0.2823
15767TIP3    H168792   6.453   5.511  11.449 -0.3985  0.9784  0.3982
15767TIP3    H268793   6.303   5.509  11.469 -0.2949 -0.8467  1.1015
15768TIP3   OH268794   1.577   2.893   0.212  0.1356 -0.3014 -0.1206
15768TIP3    H168795   1.585   2.969   0.154  1.3518 -0.2569  0.1029
15768TIP3    H268796   1.607   2.819   0.160 -1.4845 -0.7171 -0.4904
15769TIP3   OH268797   4.102   4.569   0.794  0.5496  0.2920  0.4811
15769TIP3    H168798   4.117   4.475   0.785  2.0319  0.5896 -0.1703
15769TIP3    H268799   4.138   4.608   0.715 -1.0704  1.3260  0.2071
15770TIP3   OH268800   0.381   2.244   4.758 -0.0479 -0.2444 -0.2259
15770TIP3    H168801   0.375   2.162   4.806 -1.6498 -0.1251 -0.1753
15770TIP3    H268802   0.393   2.311   4.826 -1.5146 -0.1592 -0.0329
15771TIP3   OH268803   0.983   4.354   4.295 -0.0695 -0.2700 -0.3601
15771TIP3    H168804   0.897   4.395   4.304  0.4162  0.6012  0.4204
15771TIP3    H268805   0.982   4.280   4.357 -0.2445 -0.2363 -0.3244
15772TIP3   OH268806   6.071   2.542  13.627  0.4246  0.3445  0.0923
15772TIP3    H168807   6.069   2.635  13.604 -2.6335 -0.0499 -1.4555
15772TIP3    H268808   6.114   2.499  13.553 -3.7359 -0.1584 -2.1475
15773TIP3   OH268809   3.008   4.399  17.260 -0.1848  0.3859  0.0906
15773TIP3    H168810   2.955   4.384  17.338 -0.5053  1.0907  0.0101
15773TIP3    H268811   3.066   4.323  17.255 -0.8842 -0.1713  0.4235
15774TIP3   OH268812   1.404   2.421   0.238  0.3076 -0.2387  0.1832
15774TIP3    H168813   1.389   2.357   0.167  1.1871 -0.5230  0.2495
15774TIP3    H268814   1.360   2.500   0.208  0.2094 -0.5215 -0.4386
15775TIP3   OH268815   3.148   2.257   0.786 -0.3050  0.2707  0.5746
15775TIP3    H168816   3.243   2.255   0.783 -0.3610 -0.1307 -4.0941
15775TIP3    H268817   3.123   2.167   0.808  0.4092 -0.8118 -2.7426
15776TIP3   OH268818   4.392   1.997  11.556  0.6857 -0.5672  0.5312
15776TIP3    H168819   4.371   1.904  11.561 -1.1755 -0.1043  1.8984
15776TIP3    H268820   4.372   2.031  11.643  2.0713  0.9671  0.2591
15777TIP3   OH268821   3.609   1.632   2.848  0.3684  0.1066 -0.1313
15777TIP3    H168822   3.622   1.587   2.765 -1.4835  0.0429 -0.4254
15777TIP3    H268823   3.647   1.573   2.914  3.3763  0.9582 -1.0735
15778TIP3   OH268824   3.097   6.679  12.923 -0.3914  0.0368  0.2779
15778TIP3    H168825   3.120   6.714  13.009 -1.7688  0.7600  0.3679
15778TIP3    H268826   3.074   6.588  12.939 -0.7988  0.2132  0.6983
15779TIP3   OH268827   0.517   5.342  12.293  0.6744  0.3274  0.3132
15779TIP3    H168828   0.574   5.285  12.242 -2.0373 -2.6259  0.4176
15779TIP3    H268829   0.436   5.348  12.242 -1.0826 -0.4402  2.9088
15780TIP3   OH268830   1.694   3.933  14.284 -0.1407 -0.3917  0.1491
15780TIP3    H168831   1.718   3.967  14.198 -0.5110 -0.4322  0.0264
15780TIP3    H268832   1.666   4.011  14.333 -0.7242 -0.4776 -0.0409
15781TIP3   OH268833   4.689   3.612  12.753 -0.1072  0.0564 -0.0132
15781TIP3    H168834   4.685   3.577  12.664 -1.7571  1.6994 -0.6090
15781TIP3    H268835   4.771   3.662  12.756  0.8734 -1.5132 -0.0080
15782TIP3   OH268836   1.241   2.103  11.993 -0.1522  0.1876  0.0759
15782TIP3    H168837   1.152   2.078  11.968 -1.1922  0.7119  3.1085
15782TIP3    H268838   1.296   2.034  11.956 -1.8660 -0.5519 -1.1848
15783TIP3   OH268839   2.557   0.092  15.980  0.5202  0.9022 -0.0677
15783TIP3    H168840   2.587   0.144  15.905  1.6967 -0.6654 -0.6999
15783TIP3    H268841   2.586   0.142  16.057 -0.1937  2.2232 -0.6306
15784TIP3   OH268842   5.404   1.584   3.305  0.3610  0.2352  0.0055
15784TIP3    H168843   5.350   1.601   3.228 -0.3520  2.0388  0.8576
15784TIP3    H268844   5.493   1.606   3.277  0.0480  1.2943 -0.2023
15785TIP3   OH268845   5.734   0.832   3.725  0.2831 -0.7187 -0.0359
15785TIP3    H168846   5.826   0.844   3.747  0.4757 -2.3859  0.1595
15785TIP3    H268847   5.736   0.786   3.641 -0.3852  0.1582 -0.5372
15786TIP3   OH268848   1.428   2.223   2.500  0.1145  0.0053  0.1156
15786TIP3    H168849   1.409   2.197   2.410  2.6158  0.6899 -0.6454
15786TIP3    H268850   1.359   2.285   2.522  0.1433  0.7439 -1.7532
15787TIP3   OH268851   4.265   1.785   2.212 -0.1774  0.2986  0.4366
15787TIP3    H168852   4.214   1.861   2.186  2.3420  1.8498 -0.0955
15787TIP3    H268853   4.348   1.821   2.244  0.9525 -2.1861  0.4276
15788TIP3   OH268854   5.063   6.433   0.236 -0.7150 -0.5867  0.3972
15788TIP3    H168855   5.073   6.472   0.323 -2.8198 -2.1557  1.3718
15788TIP3    H268856   4.982   6.471   0.202  0.2009  0.1709 -1.0021
15789TIP3   OH268857   5.116   3.094   4.945  0.1986 -0.4748  0.2481
15789TIP3    H168858   5.197   3.096   4.996  0.1373 -2.0731  0.4447
15789TIP3    H268859   5.143   3.110   4.855  0.6461 -0.3229  0.4118
15790TIP3   OH268860   3.590   3.155  16.225 -0.5550  0.4641 -1.2458
15790TIP3    H168861   3.519   3.196  16.275 -0.1033 -0.3019  0.0331
15790TIP3    H268862   3.642   3.229  16.192  0.2243  0.9510  0.9997
15791TIP3   OH268863   5.879   4.649   4.261 -0.1422 -0.1586  0.5468
15791TIP3    H168864   5.834   4.567   4.275 -0.6431  0.7777  5.2139
15791TIP3    H268865   5.971   4.630   4.280 -0.1228  0.1312  0.7588
15792TIP3   OH268866   4.777   5.392  15.361 -0.4543 -0.1249  0.2864
15792TIP3    H168867   4.793   5.342  15.281  0.9270 -0.4330  0.7359
15792TIP3    H268868   4.839   5.465  15.357  0.1522 -0.5682  1.4307
15793TIP3   OH268869   4.171   1.572   5.186 -0.3410  0.6014 -0.0494
15793TIP3    H168870   4.235   1.644   5.179 -0.5813  0.9444  1.0487
15793TIP3    H268871   4.112   1.601   5.256 -0.8762 -0.3415 -0.1128
15794TIP3   OH268872   4.304   2.896  14.911 -0.1084  0.0365 -0.2786
15794TIP3    H168873   4.336   2.986  14.912  1.3727 -0.4732 -0.5306
15794TIP3    H268874   4.325   2.864  14.823 -2.5653  0.1046 -0.9411
15795TIP3   OH268875   2.256   5.316   5.697  0.0588  0.1690  0.4871
15795TIP3    H168876   2.228   5.367   5.773 -1.8543  0.7273 -0.5552
15795TIP3    H268877   2.259   5.226   5.728 -1.0367  0.3596  1.1441
15796TIP3   OH268878   2.414   4.344   6.056 -0.0645 -0.2220 -0.8796
15796TIP3    H168879   2.337   4.287   6.057 -0.2861 -0.0058 -3.0334
15796TIP3    H268880   2.481   4.292   6.011  1.1108 -0.4617  1.1105
15797TIP3   OH268881   6.563   5.574  13.483  0.5561  0.7478 -0.3391
15797TIP3    H168882   6.576   5.545  13.393  2.9931 -3.2195  1.1275
15797TIP3    H268883   6.478   5.537  13.508  0.3955  0.8975 -0.6611
15798TIP3   OH268884   5.160   4.503  14.684 -0.1081  0.1296 -0.0621
15798TIP3    H168885   5.083   4.445  14.687 -0.4918  0.6888  0.9090
15798TIP3    H268886   5.197   4.487  14.597 -0.3129 -1.4400  0.1251
15799TIP3   OH268887   5.344   3.783   4.715  0.0358 -0.1853 -0.0567
15799TIP3    H168888   5.411   3.849   4.734 -0.6306  1.1255 -2.0537
15799TIP3    H268889   5.270   3.834   4.681 -0.6220 -1.9502 -1.3042
15800TIP3   OH268890   0.884   0.434  13.697  0.1508 -0.2195  0.6047
15800TIP3    H168891   0.875   0.504  13.761 -1.4516 -1.4435  1.7742
15800TIP3    H268892   0.974   0.404  13.707  0.3261  0.5209  1.3143
15801TIP3   OH268893   1.145   5.863  15.413 -0.0057 -0.5722 -0.1760
15801TIP3    H168894   1.137   5.893  15.322  2.3088  0.0408 -0.2165
15801TIP3    H268895   1.083   5.917  15.461 -0.2689  0.0583 -1.1924
15802TIP3   OH268896   4.856   4.506   1.419 -0.2361 -0.1963  0.2253
15802TIP3    H168897   4.912   4.438   1.381  1.2093  1.1746 -0.1433
15802TIP3    H268898   4.870   4.498   1.513  1.5780  0.9650  0.0688
15803TIP3   OH268899   1.384   4.710  15.886 -0.2214  0.1209  0.6188
15803TIP3    H168900   1.377   4.794  15.840 -0.4480  0.4870  1.3014
15803TIP3    H268901   1.378   4.644  15.818 -3.8200  0.5489  0.4017
15804TIP3   OH268902   0.651   3.545  14.354  0.4723 -0.0535 -0.4975
15804TIP3    H168903   0.564   3.577  14.333 -0.0613 -1.9398 -1.2045
15804TIP3    H268904   0.683   3.505  14.273  1.1258 -1.3084  0.3601
15805TIP3   OH268905   2.861   0.868   0.150  0.3466 -0.1422 -0.5411
15805TIP3    H168906   2.923   0.885   0.079  0.5407 -0.1565 -0.3762
15805TIP3    H268907   2.913   0.823   0.217 -0.3658 -2.2282 -1.3504
15806TIP3   OH268908   5.969   3.523  15.817  0.5103  0.2037  0.1174
15806TIP3    H168909   5.967   3.434  15.853  1.6133  0.5813  1.1147
15806TIP3    H268910   6.044   3.564  15.858  1.2981  0.9331 -1.9632
15807TIP3   OH268911   6.644   6.725   2.990  0.4774  0.2389  0.3112
15807TIP3    H168912   6.611   6.702   3.077  0.7332 -0.9200  0.1150
15807TIP3    H268913   6.609   6.657   2.933  0.8573  0.6230 -0.3827
15808TIP3   OH268914   5.121   3.286   4.580 -0.0498  0.1568  0.0880
15808TIP3    H168915   5.169   3.369   4.587  1.6178 -0.8236  0.5805
15808TIP3    H268916   5.046   3.296   4.638  2.1843 -0.0571  3.1225
15809TIP3   OH268917   5.779   6.327   5.416 -0.1382  0.2269  0.4744
15809TIP3    H168918   5.726   6.347   5.338 -0.6624 -0.4117  0.6636
15809TIP3    H268919   5.733   6.370   5.488  0.7183  1.3950  0.3386
15810TIP3   OH268920   6.738   0.188   4.530 -0.6717  0.2133 -0.2501
15810TIP3    H168921   6.735   0.211   4.437 -0.6269  0.5016 -0.1831
15810TIP3    H268922   6.768   0.268   4.573 -1.5822  0.3747  0.1100
15811TIP3   OH268923   4.653   2.330  15.976  0.2350 -0.0437  0.3627
15811TIP3    H168924   4.712   2.405  15.982  0.7079 -0.3876  0.0010
15811TIP3    H268925   4.565   2.368  15.985  0.4725  0.5508  0.1762
15812TIP3   OH268926   6.067   3.364  10.754  0.1350 -0.0269 -0.0374
15812TIP3    H168927   5.994   3.319  10.711  0.0190  0.9193 -0.8390
15812TIP3    H268928   6.029   3.441  10.794  0.5221 -0.0681  0.4189
15813TIP3   OH268929   2.779   1.280  11.754 -0.2588 -0.1624 -0.1015
15813TIP3    H168930   2.819   1.315  11.675 -1.8874 -0.5247 -1.0936
15813TIP3    H268931   2.726   1.351  11.788 -1.6658 -0.8601 -0.8061
15814TIP3   OH268932   5.898   1.593   0.009  0.1370  0.0852 -0.2440
15814TIP3    H168933   5.897   1.689   0.013  2.2093  0.1220 -0.0701
15814TIP3    H268934   5.812   1.567   0.043 -0.2662  1.8641  0.1635
15815TIP3   OH268935   2.814   3.580   5.364  0.8306 -0.3475  0.0979
15815TIP3    H168936   2.883   3.614   5.422 -0.3853  2.3282  0.0158
15815TIP3    H268937   2.765   3.519   5.419  2.0407 -0.7678  0.7414
15816TIP3   OH268938   2.927   4.943  10.291 -0.0143  0.4638 -0.1703
15816TIP3    H168939   2.836   4.936  10.322 -0.0642 -1.8852 -0.7674
15816TIP3    H268940   2.961   5.020  10.337 -1.7154  0.2442  1.5605
15817TIP3   OH268941   4.451   1.986  15.403 -0.0634  0.0137 -0.1497
15817TIP3    H168942   4.510   1.991  15.328  0.5634 -3.2366  0.0275
15817TIP3    H268943   4.374   2.037  15.376  1.3409  1.2986 -1.8248
15818TIP3   OH268944   1.715   4.176   1.707 -0.4406 -0.1036 -0.6895
15818TIP3    H168945   1.790   4.235   1.693  0.6919 -1.2743  0.3298
15818TIP3    H268946   1.754   4.090   1.720 -1.8341 -0.3803  1.9915
15819TIP3   OH268947   0.949   6.661   6.246  0.2841  0.1356 -0.2774
15819TIP3    H168948   1.014   6.730   6.232  0.3643 -0.3500 -2.4766
15819TIP3    H268949   0.893   6.664   6.169 -2.7024  0.9073  1.8672
15820TIP3   OH268950   4.492   0.432  13.590 -0.3249  0.1997 -0.0213
15820TIP3    H168951   4.464   0.439  13.681  1.8571 -1.8248  0.8586
15820TIP3    H268952   4.453   0.350  13.559  0.1213  0.1467 -0.4534
15821TIP3   OH268953   4.866   1.342  16.833  0.2315  0.0509 -0.1260
15821TIP3    H168954   4.868   1.248  16.849  1.6867 -0.0347 -0.7286
15821TIP3    H268955   4.840   1.380  16.917 -0.0924 -0.8637  0.1964
15822TIP3   OH268956   1.839   0.194   2.299  0.0989  0.3750  0.4374
15822TIP3    H168957   1.893   0.119   2.273  1.1459  0.6720  1.6856
15822TIP3    H268958   1.847   0.196   2.395 -1.0725  1.2261  0.5213
15823TIP3   OH268959   1.777   0.932  16.407 -0.7064  0.6115  0.0804
15823TIP3    H168960   1.794   1.007  16.465  0.6713  1.0979 -0.9157
15823TIP3    H268961   1.837   0.864  16.439  0.6489  1.1501 -1.2481
15824TIP3   OH268962   4.096   5.380  12.884 -0.0728 -0.2718 -0.2781
15824TIP3    H168963   4.123   5.315  12.819 -0.3240 -0.1645 -0.4886
15824TIP3    H268964   4.161   5.372  12.954  0.6394  0.1541 -0.8889
15825TIP3   OH268965   5.775   4.302   6.507  0.0615 -0.4221 -0.1637
15825TIP3    H168966   5.681   4.320   6.515 -0.1651  0.2731 -3.6480
15825TIP3    H268967   5.781   4.230   6.445  1.8132 -1.0307  0.6823
15826TIP3   OH268968   0.451   0.012   2.109 -0.0221 -0.1415  0.2307
15826TIP3    H168969   0.432  -0.014   2.019 -1.3642  0.8467  0.2113
15826TIP3    H268970   0.543   0.035   2.108 -0.2275  0.7084 -1.1088
15827TIP3   OH268971   1.351   3.794   1.991 -0.2329  0.1239  0.0526
15827TIP3    H168972   1.264   3.829   1.974  0.4467  2.4260  1.1013
15827TIP3    H268973   1.407   3.872   1.998  1.9134 -1.3266 -0.7193
15828TIP3   OH268974   1.395   0.402  12.621  0.0971 -0.2657 -0.7102
15828TIP3    H168975   1.367   0.492  12.602 -1.3851 -0.1740  1.6681
15828TIP3    H268976   1.327   0.368  12.679  2.3437 -1.8111  1.1148
15829TIP3   OH268977   2.715   5.911   5.629  0.0079 -0.2763  0.0231
15829TIP3    H168978   2.721   5.830   5.679 -1.9260  0.1635  0.9977
15829TIP3    H268979   2.793   5.961   5.654  0.0819 -0.9105  1.0845
15830TIP3   OH268980   5.471   1.236  14.699  0.3882  0.8460  0.0412
15830TIP3    H168981   5.411   1.265  14.631 -1.3019 -0.5358  0.8989
15830TIP3    H268982   5.454   1.293  14.774  0.0874  0.4116  0.3077
15831TIP3   OH268983   1.062   4.035  12.054 -0.5679 -0.1121  0.3928
15831TIP3    H168984   1.038   4.116  12.099 -0.6842  0.7952 -1.2693
15831TIP3    H268985   1.036   4.049  11.963  2.5179 -0.7054 -0.6291
15832TIP3   OH268986   6.671   5.871  11.235  0.4675 -0.4875 -0.3853
15832TIP3    H168987   6.660   5.849  11.143 -2.0002  1.2747 -0.5697
15832TIP3    H268988   6.585   5.857  11.274  1.0209  0.4708  1.2552
15833TIP3   OH268989   2.562   2.587  12.708  0.4513  0.3442  0.2760
15833TIP3    H168990   2.647   2.594  12.666 -0.8984 -0.4976 -2.7482
15833TIP3    H268991   2.564   2.652  12.778  3.5036  0.3995  0.1711
15834TIP3   OH268992   5.837   0.974  12.320  1.0094 -0.2463  0.1079
15834TIP3    H168993   5.747   0.996  12.345  0.5133 -3.0274  0.8963
15834TIP3    H268994   5.869   0.919  12.392  3.6217  1.3178  0.2109
15835TIP3   OH268995   3.553   6.061   4.210 -0.0762  0.6269  0.5969
15835TIP3    H168996   3.506   6.016   4.139  2.1454  2.7021 -2.3083
15835TIP3    H268997   3.612   5.994   4.245  0.4608  0.1866 -1.0871
15836TIP3   OH268998   3.283   1.485   3.588  0.0885 -0.3281  0.5630
15836TIP3    H168999   3.310   1.543   3.659 -0.0857 -0.1275  0.4685
15836TIP3    H269000   3.334   1.405   3.601  0.3491 -0.1439  0.6793
15837TIP3   OH269001   0.365   0.372   2.768  0.8981 -0.0146 -0.7753
15837TIP3    H169002   0.429   0.345   2.834  0.0116  0.9534  0.5164
15837TIP3    H269003   0.389   0.323   2.690  2.5093 -0.5327  0.0160
15838TIP3   OH269004   5.388   3.358   0.148  0.3263  0.0793 -0.1464
15838TIP3    H169005   5.347   3.443   0.133 -0.1486 -0.2429 -0.7240
15838TIP3    H269006   5.383   3.313   0.063 -1.1378 -1.2429  0.5995
15839TIP3   OH269007   5.907   2.399  13.819  0.3505  0.1435 -0.4906
15839TIP3    H169008   5.965   2.384  13.893  0.1613  2.6295  0.1855
15839TIP3    H269009   5.958   2.452  13.758 -0.1347 -0.3430 -1.3390
15840TIP3   OH269010   4.228   6.553   6.165 -0.0816  0.1246 -0.0665
15840TIP3    H169011   4.243   6.553   6.259 -1.9031 -1.3585  0.2607
15840TIP3    H269012   4.200   6.464   6.145  2.3071 -0.1751 -2.3793
15841TIP3   OH269013   5.997   5.808   5.385 -0.1864 -0.3616  0.2141
15841TIP3    H169014   6.078   5.808   5.334 -0.4990 -2.3096 -0.3088
15841TIP3    H269015   5.958   5.894   5.368  0.2916 -0.5429 -1.9129
15842TIP3   OH269016   2.196   2.599  15.815  0.0931  0.2908 -0.0373
15842TIP3    H169017   2.278   2.552  15.826 -0.0473  0.4743  1.8717
15842TIP3    H269018   2.134   2.532  15.787  0.3759 -0.2780  0.6793
15843TIP3   OH269019   2.594   3.726  15.822  0.2638  0.3861  0.3468
15843TIP3    H169020   2.507   3.689  15.806  0.9363 -1.4425  0.8134
15843TIP3    H269021   2.582   3.784  15.897 -0.6851  0.6560 -0.0066
15844TIP3   OH269022   5.490   2.743  16.250  0.1583 -0.1013  0.5171
15844TIP3    H169023   5.485   2.769  16.343 -0.4641  0.2366  0.3885
15844TIP3    H269024   5.506   2.825  16.204  0.6029 -0.2912  0.3370
15845TIP3   OH269025   2.978   5.897   2.935  0.5367  0.0875 -0.2774
15845TIP3    H169026   2.997   5.991   2.932 -0.0422  0.1674 -1.9365
15845TIP3    H269027   2.905   5.886   2.874  0.0403 -1.3175  0.5553
15846TIP3   OH269028   0.320   3.017   1.582 -0.2070 -0.7716 -0.9928
15846TIP3    H169029   0.328   3.043   1.674 -0.5916  0.4239 -1.2951
15846TIP3    H269030   0.261   3.082   1.543  1.7399  0.0410 -2.6318
15847TIP3   OH269031   0.615   4.090  12.687 -0.0820  0.4179  0.8218
15847TIP3    H169032   0.658   4.023  12.740 -1.1743 -1.0868 -0.1783
15847TIP3    H269033   0.658   4.083  12.601 -0.9393  0.2631  0.4018
15848TIP3   OH269034   6.746   1.426   5.350  0.1087  1.1161  0.4281
15848TIP3    H169035   6.693   1.346   5.345  0.7764  0.6278  1.0829
15848TIP3    H269036   6.836   1.396   5.334  0.4304  1.6596  1.2053
15849TIP3   OH269037   5.219   0.726  14.426 -0.4362 -0.2455  0.3586
15849TIP3    H169038   5.264   0.798  14.469 -1.3816  0.1132  0.7684
15849TIP3    H269039   5.134   0.763  14.400 -0.4268 -0.8462 -0.5690
15850TIP3   OH269040   4.974   2.868  13.306  0.0398 -0.5073  0.3006
15850TIP3    H169041   4.975   2.777  13.336 -1.3455 -1.2052 -1.6453
15850TIP3    H269042   4.953   2.919  13.384  1.4307 -1.7987  1.5407
15851TIP3   OH269043   0.735   3.225  13.879  0.2608 -0.7753  0.2859
15851TIP3    H169044   0.785   3.302  13.850  2.7908 -1.5072  2.4782
15851TIP3    H269045   0.671   3.211  13.810  0.1743  2.8980 -0.4957
15852TIP3   OH269046   0.647   3.015   0.932  0.0099 -0.0119  0.0393
15852TIP3    H169047   0.688   3.032   0.847  0.7855 -2.3018 -0.0998
15852TIP3    H269048   0.690   3.076   0.992  0.6093  0.5104 -0.9105
15853TIP3   OH269049   2.544   6.716   2.159 -0.1014 -0.0955  0.0315
15853TIP3    H169050   2.561   6.807   2.180  1.5721 -0.4720  0.3984
15853TIP3    H269051   2.471   6.691   2.215  0.2276  0.6854  0.8192
15854TIP3   OH269052   1.072   1.244  15.231  0.0382 -0.0985 -0.2428
15854TIP3    H169053   1.130   1.174  15.202 -0.0705  0.2435 -1.2924
15854TIP3    H269054   0.988   1.200  15.248  0.0830 -0.2841 -0.5052
15855TIP3   OH269055   5.721   3.170  13.635  0.7706 -0.1909  0.1347
15855TIP3    H169056   5.714   3.214  13.720  0.2993 -1.6093  0.8348
15855TIP3    H269057   5.655   3.101  13.638  0.5663 -0.0868 -1.4915
15856TIP3   OH269058   1.784   4.136   0.575 -0.1391 -0.0602  0.1777
15856TIP3    H169059   1.782   4.173   0.486 -3.4965  0.6426  0.4729
15856TIP3    H269060   1.780   4.042   0.562 -1.1664  0.0565 -0.4476
15857TIP3   OH269061   2.615   5.398  12.937 -0.5746 -0.2911  0.7824
15857TIP3    H169062   2.535   5.438  12.968 -0.5555  2.2723 -2.2125
15857TIP3    H269063   2.598   5.377  12.845  1.6555 -1.0985  0.5072
15858TIP3   OH269064   3.488   6.554   2.289 -0.3344 -0.0217  0.5278
15858TIP3    H169065   3.407   6.522   2.249 -0.0806  1.0465 -0.8840
15858TIP3    H269066   3.544   6.577   2.214  0.7770  0.4607  1.4950
15859TIP3   OH269067   1.056   2.694  16.699  0.2418 -0.6069  0.2368
15859TIP3    H169068   1.137   2.644  16.714  0.1653 -0.5373  0.9028
15859TIP3    H269069   0.991   2.627  16.677 -0.5861 -1.1563  4.0505
15860TIP3   OH269070   0.172   6.743   5.307 -0.7613  0.2951  0.1817
15860TIP3    H169071   0.133   6.657   5.297 -1.4871  0.8114 -1.6314
15860TIP3    H269072   0.198   6.747   5.399 -0.9557 -1.7393  0.3467
15861TIP3   OH269073   3.865   3.339  14.987  0.3427 -0.7953  0.0405
15861TIP3    H169074   3.929   3.340  15.058 -1.1062 -0.2640  1.3597
15861TIP3    H269075   3.807   3.413  15.005 -0.1422 -0.7380 -1.6142
15862TIP3   OH269076   2.807   3.601  13.431  0.0548 -0.9124  0.8366
15862TIP3    H169077   2.724   3.612  13.477  0.3636  0.0938  1.1762
15862TIP3    H269078   2.840   3.516  13.460 -0.4940 -0.9701  1.2929
15863TIP3   OH269079   5.933   4.912   2.865 -0.0412 -0.6574  0.1022
15863TIP3    H169080   5.872   4.925   2.793 -0.8636 -0.7032  0.7734
15863TIP3    H269081   5.965   5.000   2.886  1.0598 -0.7753 -1.0447
15864TIP3   OH269082   3.335   2.871   0.567  0.0909  0.3999  0.2196
15864TIP3    H169083   3.250   2.915   0.560  1.2998  2.4836 -2.0722
15864TIP3    H269084   3.387   2.928   0.623  0.5510  0.0573  0.1421
15865TIP3   OH269085   2.595   5.062  10.619  0.4757 -0.1143  0.2775
15865TIP3    H169086   2.648   5.102  10.689 -0.2206  0.3694  0.5333
15865TIP3    H269087   2.526   5.126  10.602  1.5714  0.5146 -2.0007
15866TIP3   OH269088   0.434   6.589   2.988 -0.7547  0.3023  0.3409
15866TIP3    H169089   0.463   6.595   3.079  0.6824 -0.4527 -0.0546
15866TIP3    H269090   0.450   6.499   2.963  1.3135  1.1332 -1.4672
15867TIP3   OH269091   3.912   1.734  16.643 -0.6793  0.2052 -0.0053
15867TIP3    H169092   3.993   1.742  16.692 -0.9265 -0.5307  0.5213
15867TIP3    H269093   3.938   1.742  16.551 -0.2002  1.4484  0.2249
15868TIP3   OH269094   2.439   1.634  15.637  0.4226 -0.3045 -0.3567
15868TIP3    H169095   2.405   1.545  15.622 -1.8230  0.7524 -1.8198
15868TIP3    H269096   2.395   1.663  15.716 -1.5223  0.7420 -1.7734
15869TIP3   OH269097   1.054   2.806   5.726  0.2316 -0.2438  0.7601
15869TIP3    H169098   1.116   2.825   5.655 -1.8334  1.7327 -0.6043
15869TIP3    H269099   1.062   2.881   5.785  0.1704 -0.6869  1.3388
15870TIP3   OH269100   5.817   4.900  15.296 -0.0670  0.2817  0.3045
15870TIP3    H169101   5.767   4.900  15.378 -0.2398  1.3967  0.2122
15870TIP3    H269102   5.821   4.992  15.271  0.4029 -0.0041 -0.6936
15871TIP3   OH269103   2.767   3.646  15.640 -0.4180  0.0628 -0.7866
15871TIP3    H169104   2.719   3.670  15.720 -1.5284  0.0326 -1.4291
15871TIP3    H269105   2.796   3.729  15.603  1.5750 -0.0114  0.5229
15872TIP3   OH269106   4.850   6.120   1.549 -0.0340  0.2997  0.2492
15872TIP3    H169107   4.909   6.176   1.600 -1.1480  1.1213  0.6486
15872TIP3    H269108   4.868   6.031   1.580  1.7816  0.4135 -0.4247
15873TIP3   OH269109   3.235   5.761   4.293  0.1770 -0.4207 -1.0523
15873TIP3    H169110   3.272   5.815   4.224 -2.1806  3.1866  0.3885
15873TIP3    H269111   3.280   5.790   4.373 -0.7355 -1.0008 -0.3204
15874TIP3   OH269112   0.206   5.606   0.483  0.5068  0.6545  0.0630
15874TIP3    H169113   0.218   5.621   0.577  0.5517  0.8131  0.0318
15874TIP3    H269114   0.112   5.589   0.474  0.3737  1.3838  0.0368
15875TIP3   OH269115   1.723   5.107  14.862  0.0962 -0.3027  0.3291
15875TIP3    H169116   1.723   5.017  14.831  1.0816 -0.1974 -0.0092
15875TIP3    H269117   1.769   5.156  14.793 -1.7442  0.7056 -0.2076
15876TIP3   OH269118   2.947   5.248  16.431 -0.6291  0.0677 -0.2631
15876TIP3    H169119   2.956   5.248  16.527 -0.8591 -0.2213 -0.2421
15876TIP3    H269120   2.915   5.335  16.410 -1.1419 -0.0621 -0.0224
15877TIP3   OH269121   1.692   5.038   0.320  0.3324 -0.0573 -0.3260
15877TIP3    H169122   1.686   5.068   0.411 -0.5881 -1.1386 -0.0212
15877TIP3    H269123   1.686   5.118   0.268 -0.7234  0.4323  0.5206
15878TIP3   OH269124   5.194   1.702  15.663 -0.5410 -0.0396 -0.4948
15878TIP3    H169125   5.165   1.759  15.735 -1.7954  0.6436 -1.5246
15878TIP3    H269126   5.260   1.644  15.703  1.7973  3.0192  0.2493
15879TIP3   OH269127   6.443   6.275   0.369 -0.1355  0.3659  0.3472
15879TIP3    H169128   6.360   6.251   0.327  0.1910 -0.9334  0.4211
15879TIP3    H269129   6.445   6.370   0.364 -0.7866  0.3153 -1.2972
15880TIP3   OH269130   4.640   1.046  12.549 -0.1464 -0.5287  0.1790
15880TIP3    H169131   4.656   1.121  12.606 -1.3797  0.1240 -0.3023
15880TIP3    H269132   4.725   1.027  12.509  0.2039  0.5452  0.3970
15881TIP3   OH269133   1.890   6.047   3.309  0.3168  0.1082 -0.2261
15881TIP3    H169134   1.876   5.977   3.373  1.9553 -2.7603 -2.8592
15881TIP3    H269135   1.955   6.104   3.350 -1.0324  0.1121  1.9678
15882TIP3   OH269136   6.006   0.924  12.773  0.5583  0.0030 -0.2753
15882TIP3    H169137   5.948   0.947  12.845  1.3374  0.8724  0.0846
15882TIP3    H269138   6.055   0.848  12.806  0.5897  0.1136 -0.0658
15883TIP3   OH269139   5.086   2.565  10.880  0.2319  0.0388 -0.0682
15883TIP3    H169140   5.013   2.612  10.841 -0.0732 -0.6929 -0.4005
15883TIP3    H269141   5.072   2.571  10.974  1.5431  2.7189 -0.0196
15884TIP3   OH269142   3.661   0.072   2.639  0.2118  0.0459  0.1451
15884TIP3    H169143   3.609   0.055   2.560  0.4573 -0.7660  0.1517
15884TIP3    H269144   3.751   0.075   2.608  0.0857  2.6016 -0.0414
15885TIP3   OH269145   6.222   0.055   3.915 -0.0356  0.1709  0.6843
15885TIP3    H169146   6.160  -0.018   3.916  0.4165 -0.2095  2.1587
15885TIP3    H269147   6.255   0.056   3.825 -0.2392 -1.2841  0.5750
15886TIP3   OH269148   5.774   6.800   5.297  0.1826 -0.1404  1.0284
15886TIP3    H169149   5.852   6.850   5.320  0.7425 -0.5515  0.0678
15886TIP3    H269150   5.722   6.798   5.377 -0.2157  2.6296  0.9087
15887TIP3   OH269151   6.277   5.250  13.301 -0.5647 -0.3309 -0.1237
15887TIP3    H169152   6.298   5.275  13.392 -0.1334 -0.6104 -0.1435
15887TIP3    H269153   6.213   5.315  13.273  0.3064  0.5741 -0.0679
15888TIP3   OH269154   4.125   2.545  10.468 -0.0179  0.2471  0.0926
15888TIP3    H169155   4.159   2.519  10.554  1.1526 -0.0794 -0.4720
15888TIP3    H269156   4.105   2.463  10.424  1.2908  0.3563 -0.7183
15889TIP3   OH269157   5.202   3.391  14.531 -0.4072  0.1780  1.2232
15889TIP3    H169158   5.237   3.473  14.566 -1.0568  1.5443 -1.2461
15889TIP3    H269159   5.263   3.366  14.461 -2.2586  0.5782 -0.5664
15890TIP3   OH269160   0.043   3.854   5.289  0.2581 -0.6581  0.1252
15890TIP3    H169161   0.053   3.865   5.383  0.2553 -1.6982  0.2589
15890TIP3    H269162  -0.049   3.830   5.277 -0.3292  1.7542 -0.3799
15891TIP3   OH269163   0.188   0.473   0.788 -0.0999 -0.0559 -0.2795
15891TIP3    H169164   0.194   0.569   0.785 -1.8540  0.0324 -1.6915
15891TIP3    H269165   0.279   0.444   0.796  0.5746  1.6844 -1.3039
15892TIP3   OH269166   0.271   5.027  12.782  0.5127  0.2003 -0.1903
15892TIP3    H169167   0.195   5.045  12.727  0.3733  0.0043 -0.0628
15892TIP3    H269168   0.249   5.065  12.867  1.5357  2.2345 -0.8079
15893TIP3   OH269169   5.230   4.069  14.731 -0.4747 -0.6200  0.4291
15893TIP3    H169170   5.319   4.102  14.734 -0.3879 -0.8997  1.0957
15893TIP3    H269171   5.224   4.023  14.647  0.0109 -0.6084  0.3868
15894TIP3   OH269172   4.182   2.494   0.365 -0.1601 -0.4755  0.4238
15894TIP3    H169173   4.265   2.454   0.391  0.5927  2.2779  2.4295
15894TIP3    H269174   4.128   2.490   0.444 -0.1739  2.1115  0.5913
15895TIP3   OH269175   0.701   2.447  14.781 -0.3801  0.2685 -0.0164
15895TIP3    H169176   0.668   2.533  14.755 -1.5806  0.2686  1.4128
15895TIP3    H269177   0.623   2.391  14.779 -0.2538 -0.0116  2.2551
15896TIP3   OH269178   6.205   1.362  17.119  0.2035 -0.4084 -0.2765
15896TIP3    H169179   6.153   1.366  17.038  2.0861  1.0584 -1.4405
15896TIP3    H269180   6.239   1.272  17.120 -3.0385 -1.7124  0.9957
15897TIP3   OH269181   5.287   1.349   2.523 -0.3076 -0.1462 -0.4763
15897TIP3    H169182   5.198   1.324   2.501 -0.1032 -1.2521 -0.0976
15897TIP3    H269183   5.318   1.279   2.581  1.3449 -0.6494 -1.9095
15898TIP3   OH269184   6.815   1.894  13.348  0.0825 -0.0323  0.0856
15898TIP3    H169185   6.904   1.917  13.322  0.1631 -1.6422 -1.0790
15898TIP3    H269186   6.809   1.922  13.439  2.1501 -0.9540  0.5315
15899TIP3   OH269187   6.488   6.251  10.669 -0.1662 -0.1197  0.2237
15899TIP3    H169188   6.433   6.244  10.591  3.0682 -0.7562 -2.1047
15899TIP3    H269189   6.474   6.168  10.715  1.6165 -1.9279 -2.3281
15900TIP3   OH269190   3.599   2.429   0.668 -0.1113 -0.0584 -0.7475
15900TIP3    H169191   3.548   2.510   0.668  1.9702  1.2941 -0.7985
15900TIP3    H269192   3.643   2.428   0.753  1.3201 -0.1868 -1.4764
15901TIP3   OH269193   6.121   4.368   2.270 -0.3892 -0.0286  0.7699
15901TIP3    H169194   6.216   4.373   2.257  0.2138  0.6870  4.7939
15901TIP3    H269195   6.086   4.443   2.221  1.1351 -0.0768 -0.4226
15902TIP3   OH269196   5.306   5.698   2.109 -0.3751  0.2089  0.2582
15902TIP3    H169197   5.273   5.787   2.098 -1.3591 -0.4337 -2.4807
15902TIP3    H269198   5.389   5.697   2.062 -0.8402 -0.5758 -0.5485
15903TIP3   OH269199   0.282   5.722   5.150 -0.6920 -0.0785 -0.0427
15903TIP3    H169200   0.190   5.715   5.176 -0.5790  0.5086  0.5381
15903TIP3    H269201   0.316   5.795   5.201 -0.6885  1.7436 -2.5549
15904TIP3   OH269202   1.809   0.528   2.429 -0.5057  0.4252 -0.7379
15904TIP3    H169203   1.824   0.620   2.410 -1.0636  0.8881  0.9239
15904TIP3    H269204   1.740   0.529   2.496  1.2302 -1.0837  1.1316
15905TIP3   OH269205   3.428   5.253  10.703  0.2881  0.0688 -0.2334
15905TIP3    H169206   3.368   5.179  10.715  0.7287 -0.6979 -2.5810
15905TIP3    H269207   3.512   5.212  10.683  1.0861  1.1892  0.7616
15906TIP3   OH269208   4.980   3.375  12.651 -0.1891 -0.1763 -0.0427
15906TIP3    H169209   4.918   3.432  12.607  0.7884 -0.2242 -1.4900
15906TIP3    H269210   4.950   3.373  12.742 -1.7221  0.5781 -0.5243
15907TIP3   OH269211   0.574   0.025   3.793  0.0525  0.2776  0.3881
15907TIP3    H169212   0.507   0.009   3.727 -0.9507  1.6887  1.0435
15907TIP3    H269213   0.634   0.087   3.753 -0.3398  0.8329  0.6594
15908TIP3   OH269214   4.546   3.992   0.677  0.8057 -0.2006 -0.1665
15908TIP3    H169215   4.625   4.019   0.725  1.6357 -1.5666 -0.7488
15908TIP3    H269216   4.507   3.924   0.732 -0.2995  0.8725  0.4039
15909TIP3   OH269217   4.349   3.542  12.766 -0.2338  0.2919 -0.0733
15909TIP3    H169218   4.261   3.533  12.801 -0.6078  0.5266 -0.9288
15909TIP3    H269219   4.407   3.520  12.839 -0.9917  0.6308  0.6431
15910TIP3   OH269220   2.043   2.993  13.931  0.2904  0.3431  0.1383
15910TIP3    H169221   2.126   2.995  13.979  1.2322 -2.2492 -1.2704
15910TIP3    H269222   1.976   2.992  13.999  1.4723  0.5827  1.3336
15911TIP3   OH269223   0.647   5.970  10.956 -0.0981  0.3214 -0.6107
15911TIP3    H169224   0.621   6.053  10.914 -0.3536 -0.4784 -2.0445
15911TIP3    H269225   0.734   5.952  10.922  0.3979  0.5243  0.5223
15912TIP3   OH269226   6.199   1.664   4.193 -0.2569  0.5399  0.0770
15912TIP3    H169227   6.265   1.715   4.239 -1.6892  0.3731  2.4200
15912TIP3    H269228   6.118   1.713   4.204 -0.7818  0.1030 -1.6501
15913TIP3   OH269229   1.882   1.312   4.270 -0.3344 -0.7502 -0.1005
15913TIP3    H169230   1.838   1.343   4.349  0.8961 -1.8697  1.0548
15913TIP3    H269231   1.953   1.257   4.303 -0.1351 -1.6561 -2.0092
15914TIP3   OH269232   5.970   6.573  13.768 -0.2604 -0.2974 -0.2033
15914TIP3    H169233   5.992   6.481  13.775 -0.6069 -0.3977 -0.4152
15914TIP3    H269234   6.016   6.603  13.689 -1.0448 -0.5550 -0.7595
15915TIP3   OH269235   5.013   0.766  11.481  0.1695 -0.0141  0.2187
15915TIP3    H169236   5.068   0.723  11.546  1.3849  0.2561 -0.6158
15915TIP3    H269237   4.924   0.736  11.500  0.5363 -0.0722  1.8883
15916TIP3   OH269238   1.957   1.218  15.611 -0.1610 -0.0712 -0.1425
15916TIP3    H169239   1.887   1.282  15.624 -0.5585 -0.2984 -1.1490
15916TIP3    H269240   1.956   1.200  15.517  1.0253 -0.3337 -0.1132
15917TIP3   OH269241   1.575   6.817  16.462  0.1337  0.8218 -0.7456
15917TIP3    H169242   1.622   6.799  16.380 -0.3408 -2.5197 -0.3657
15917TIP3    H269243   1.643   6.818  16.529  0.2429  0.9194 -0.8604
15918TIP3   OH269244   0.496   0.732  15.367  0.4234 -0.0638 -0.4233
15918TIP3    H169245   0.518   0.790  15.294 -3.9085  0.0906 -1.7584
15918TIP3    H269246   0.474   0.648  15.326  0.7854 -0.8674  0.9810
15919TIP3   OH269247   5.809   5.776  15.084 -0.8484  0.0495 -0.4408
15919TIP3    H169248   5.834   5.868  15.094  1.2595 -0.8546  3.4759
15919TIP3    H269249   5.716   5.774  15.108 -1.0119  1.1554 -0.9124
15920TIP3   OH269250   2.520   1.348  12.728 -0.3388 -0.1526  0.3102
15920TIP3    H169251   2.554   1.309  12.809  0.3848  1.7865  0.9752
15920TIP3    H269252   2.434   1.310  12.717  0.8222 -2.8583  0.2636
15921TIP3   OH269253   4.457   1.359   2.142  0.3319 -0.6497  0.2299
15921TIP3    H169254   4.422   1.289   2.197 -2.4337 -0.4015 -1.1055
15921TIP3    H269255   4.411   1.349   2.059  0.3386  2.3370 -0.1947
15922TIP3   OH269256   1.992   4.682  12.320  0.5056 -0.6212  0.2128
15922TIP3    H169257   1.942   4.609  12.356  0.4880 -1.0876 -0.7455
15922TIP3    H269258   2.076   4.680  12.367  0.1507 -0.6808  0.8440
15923TIP3   OH269259   1.012   2.438   3.828  0.0443  0.3483 -0.1228
15923TIP3    H169260   1.069   2.454   3.753 -0.1419  0.3537 -0.2628
15923TIP3    H269261   1.016   2.518   3.880 -1.3108  1.0622 -1.0940
15924TIP3   OH269262   3.330   5.056  15.280  0.2292 -0.0128 -0.9464
15924TIP3    H169263   3.286   5.067  15.196 -1.1644 -0.7711 -0.3312
15924TIP3    H269264   3.287   5.118  15.339  1.4016  0.7288 -0.8539
15925TIP3   OH269265   5.298   4.002  11.569  0.3471 -0.3173  0.1157
15925TIP3    H169266   5.382   4.026  11.607 -0.2014 -0.5717  1.5091
15925TIP3    H269267   5.295   4.051  11.486  0.3213  2.5729  1.7437
15926TIP3   OH269268   2.472   4.278  16.323  0.3171  0.0205  0.2696
15926TIP3    H169269   2.549   4.334  16.312  0.3777  0.0264  0.6994
15926TIP3    H269270   2.405   4.336  16.359  0.3089 -0.1269  0.4982
15927TIP3   OH269271   6.305   6.059   3.564 -0.0351 -0.1000 -0.1323
15927TIP3    H169272   6.350   5.991   3.614 -1.0830  0.8265  2.1559
15927TIP3    H269273   6.262   6.011   3.492  0.9869 -1.5529  0.1981
15928TIP3   OH269274   6.385   2.636   3.549  0.0167  0.3236  0.6824
15928TIP3    H169275   6.417   2.591   3.628 -0.6956  0.0212  0.8005
15928TIP3    H269276   6.403   2.728   3.566  0.3270  0.2111  0.9842
15929TIP3   OH269277   5.541   5.678   0.759 -0.1095 -0.7251 -0.4586
15929TIP3    H169278   5.545   5.701   0.852  0.3864 -0.9172 -0.4293
15929TIP3    H269279   5.459   5.629   0.750 -0.9573  0.6695 -0.4460
15930TIP3   OH269280   5.381   0.753   3.309 -0.0009  0.6249 -0.7632
15930TIP3    H169281   5.309   0.726   3.252 -0.0454 -0.3557 -0.2603
15930TIP3    H269282   5.351   0.732   3.397  1.0914 -0.2613 -0.5896
15931TIP3   OH269283   4.173   4.171  12.209 -0.2233 -0.1770  0.2802
15931TIP3    H169284   4.123   4.207  12.135  1.2197  0.9777 -0.1461
15931TIP3    H269285   4.236   4.111  12.169  0.9167  0.8542  0.5052
15932TIP3   OH269286   0.769   0.562  12.374 -0.2190  0.0258 -0.7496
15932TIP3    H169287   0.819   0.624  12.321  0.0991 -0.3634 -0.9085
15932TIP3    H269288   0.816   0.479  12.365  0.3123  0.1421  0.8286
15933TIP3   OH269289   3.217   1.257  16.170 -0.2905  0.0741  0.2484
15933TIP3    H169290   3.139   1.307  16.195  0.0253  0.5422  0.3033
15933TIP3    H269291   3.221   1.264  16.075 -1.3243 -1.4575  0.0737
15934TIP3   OH269292   5.701   2.540   2.789 -0.4243 -0.1865  0.3666
15934TIP3    H169293   5.762   2.469   2.809 -0.2446  0.3781  1.9726
15934TIP3    H269294   5.701   2.593   2.869 -1.6137  0.8413 -0.3083
15935TIP3   OH269295   4.966   3.308   2.471 -0.3991  0.7927 -0.4810
15935TIP3    H169296   5.042   3.271   2.516 -2.6866 -1.5700  1.6030
15935TIP3    H269297   4.958   3.396   2.509 -0.1288  0.1713  1.0857
15936TIP3   OH269298   2.944   3.436  11.000 -0.2472 -0.7393  0.2056
15936TIP3    H169299   2.912   3.352  11.033 -0.5551 -0.0266  1.7261
15936TIP3    H269300   2.870   3.471  10.950  0.4789 -2.1648 -1.9321
15937TIP3   OH269301   1.748   1.836   0.374  0.0700 -0.2081  0.4969
15937TIP3    H169302   1.752   1.931   0.364 -1.2533 -0.3202 -1.4570
15937TIP3    H269303   1.655   1.816   0.368  0.3978 -1.6786  0.2663
15938TIP3   OH269304   1.319   6.527   0.713  0.5819 -0.7209 -0.0865
15938TIP3    H169305   1.400   6.565   0.745  1.0882 -0.1833 -1.9391
15938TIP3    H269306   1.335   6.433   0.710  1.6432 -0.4894 -1.8255
15939TIP3   OH269307   6.493   6.224  15.316 -0.1930 -0.0605 -0.0743
15939TIP3    H169308   6.520   6.215  15.408  0.5757  1.5948 -0.1223
15939TIP3    H269309   6.539   6.302  15.285  1.6375 -2.0933 -2.6476
15940TIP3   OH269310   4.892   3.369   4.265  0.2264 -0.1304 -0.0070
15940TIP3    H169311   4.981   3.395   4.242  0.8587 -0.7426  1.6636
15940TIP3    H269312   4.860   3.323   4.188  2.8115 -3.4208  0.7734
15941TIP3   OH269313   6.738   2.486  16.155  0.1236  0.2734 -0.5345
15941TIP3    H169314   6.833   2.489  16.155  0.1912 -1.2181 -0.0847
15941TIP3    H269315   6.717   2.394  16.175 -1.4002  0.8223  0.4730
15942TIP3   OH269316   3.700   2.183   2.280 -0.1654  0.1910 -0.1326
15942TIP3    H169317   3.615   2.141   2.293 -0.9555  2.3816  1.9714
15942TIP3    H269318   3.683   2.253   2.216 -0.1593  1.2140  0.9704
15943TIP3   OH269319   1.280   5.452   2.437  0.6586 -0.2369  0.2913
15943TIP3    H169320   1.252   5.537   2.402 -1.2071 -1.2457 -0.7202
15943TIP3    H269321   1.287   5.396   2.360 -0.3051 -1.6148  1.2107
15944TIP3   OH269322   5.999   6.576  16.254 -0.4384 -0.3440 -0.1745
15944TIP3    H169323   5.981   6.487  16.285 -0.2780 -0.3561 -0.1119
15944TIP3    H269324   6.059   6.564  16.181 -2.9409 -0.4821 -2.2506
15945TIP3   OH269325   5.742   5.864  13.827  0.5865 -0.0790 -0.2414
15945TIP3    H169326   5.825   5.910  13.837  0.2412  0.3445  0.7018
15945TIP3    H269327   5.676   5.934  13.821  0.3585 -0.3977 -1.5677
15946TIP3   OH269328   3.347   5.916   0.228 -0.3839  0.3000  0.7185
15946TIP3    H169329   3.307   5.940   0.144 -0.1082  1.0844  0.8051
15946TIP3    H269330   3.423   5.862   0.204 -0.7128 -0.0677  0.4980
15947TIP3   OH269331   5.133   4.796   4.683  0.0752 -0.7924  0.1051
15947TIP3    H169332   5.208   4.855   4.666 -0.0012 -0.8566 -0.4477
15947TIP3    H269333   5.082   4.799   4.603 -0.0570 -1.4354  0.1684
15948TIP3   OH269334   0.603   0.402   4.684  0.0944 -0.7740 -0.6599
15948TIP3    H169335   0.588   0.341   4.756 -1.3956 -0.6767 -0.8886
15948TIP3    H269336   0.605   0.347   4.605 -0.3146 -0.6297 -0.7691
15949TIP3   OH269337   2.264   2.615  11.582 -0.0076 -0.2893 -0.0168
15949TIP3    H169338   2.359   2.609  11.588 -0.0694 -0.2701  1.0001
15949TIP3    H269339   2.247   2.709  11.575  0.0344 -0.2735  0.0881
15950TIP3   OH269340   6.644   5.989  11.676  0.4066  0.2002 -0.1662
15950TIP3    H169341   6.640   6.035  11.759  1.4699  0.5360 -0.2814
15950TIP3    H269342   6.689   5.907  11.696 -1.1566 -0.6433 -0.0308
15951TIP3   OH269343   1.692   0.428   4.325  0.4088 -0.0448  0.0864
15951TIP3    H169344   1.706   0.337   4.351  1.6160  0.4331  1.1437
15951TIP3    H269345   1.729   0.480   4.396 -0.8501  1.2876 -0.1954
15952TIP3   OH269346   1.466   4.158  16.383  0.5257  0.3091  0.2189
15952TIP3    H169347   1.484   4.187  16.294  0.6585 -0.6207 -0.0604
15952TIP3    H269348   1.553   4.143  16.421  0.4214 -1.4728 -0.2285
15953TIP3   OH269349   4.101   5.204   4.962  0.3798 -0.2373  0.0500
15953TIP3    H169350   4.017   5.198   4.917 -0.5759  0.2441  1.7087
15953TIP3    H269351   4.084   5.169   5.050  1.8171  0.1837  0.5164
15954TIP3   OH269352   2.154   0.777  12.551  0.1584  0.1342  0.0297
15954TIP3    H169353   2.178   0.755  12.461 -0.8650 -0.5500 -0.0879
15954TIP3    H269354   2.235   0.770  12.600  0.0821 -2.9207 -0.1935
15955TIP3   OH269355   5.500   1.708   5.268 -0.1099  0.0340 -0.1626
15955TIP3    H169356   5.411   1.693   5.301 -0.5694 -0.4519 -1.5633
15955TIP3    H269357   5.555   1.649   5.320 -0.9108 -1.2439 -0.7148
15956TIP3   OH269358   5.719   4.171  14.357  0.2334 -0.2637  0.1007
15956TIP3    H169359   5.651   4.104  14.364 -1.4609  1.1677 -1.9010
15956TIP3    H269360   5.721   4.212  14.443 -0.4010 -1.3001  0.6206
15957TIP3   OH269361   4.399   1.997   2.360 -0.2001  0.5261  0.1826
15957TIP3    H169362   4.392   2.085   2.322  0.2925  1.3500  1.9599
15957TIP3    H269363   4.345   2.001   2.439 -2.6300 -1.6940 -1.3065
15958TIP3   OH269364   1.694   1.634   1.566 -0.2756  0.0149  1.1255
15958TIP3    H169365   1.636   1.694   1.519  0.4346  1.5550  2.1727
15958TIP3    H269366   1.636   1.584   1.623 -1.0909 -1.5459 -0.9968
15959TIP3   OH269367   6.475   4.926   3.014  0.5610  0.0519  0.6204
15959TIP3    H169368   6.534   4.874   2.959  0.3462  0.1705  0.2720
15959TIP3    H269369   6.402   4.868   3.032  1.2523 -0.4343  1.8945
15960TIP3   OH269370   0.621   4.835  12.927 -0.5584 -0.3359  0.3887
15960TIP3    H169371   0.623   4.742  12.950  1.0570 -0.3768  0.1274
15960TIP3    H269372   0.596   4.836  12.835 -0.2534 -0.5209  0.3039
15961TIP3   OH269373   0.053   2.887   5.141 -0.1241  0.3429  0.4176
15961TIP3    H169374   0.105   2.812   5.110  0.0484  0.0990  1.3045
15961TIP3    H269375   0.080   2.959   5.083  2.1425  0.5403  1.6333
15962TIP3   OH269376   0.589   2.955  16.113  0.1500 -0.4228 -0.2451
15962TIP3    H169377   0.587   3.004  16.195  1.4055  0.8619 -0.9570
15962TIP3    H269378   0.671   2.906  16.116  0.4108 -0.0350 -0.9172
15963TIP3   OH269379   4.139   2.114  11.984  0.4441 -0.2402  0.0033
15963TIP3    H169380   4.089   2.177  11.933  2.1622  0.4675 -0.8568
15963TIP3    H269381   4.184   2.167  12.050  1.5820 -0.6081 -0.4634
15964TIP3   OH269382   6.542   3.264  17.093 -0.3790  0.3444  0.5619
15964TIP3    H169383   6.505   3.322  17.159  0.2251  1.8450 -0.3767
15964TIP3    H269384   6.589   3.323  17.034 -1.3749 -0.8977 -1.5223
15965TIP3   OH269385   0.633   3.246   3.175 -0.0242  0.0972  0.2905
15965TIP3    H169386   0.584   3.303   3.116 -1.3342 -0.6052  0.6853
15965TIP3    H269387   0.586   3.253   3.258  1.8885  1.2015  1.3114
15966TIP3   OH269388   1.947   3.502   3.449 -0.1394  0.2624 -0.5920
15966TIP3    H169389   1.993   3.507   3.532 -1.5406 -1.7533  0.3272
15966TIP3    H269390   1.939   3.593   3.420  2.5954  0.7793  0.2060
15967TIP3   OH269391   1.674   6.189   5.179  0.0537  0.3203 -0.2502
15967TIP3    H169392   1.705   6.212   5.266  0.5176 -0.9911 -0.0523
15967TIP3    H269393   1.612   6.258   5.156 -1.1365 -0.0501  1.6865
15968TIP3   OH269394   0.664   2.254   6.542  0.0826 -0.0286  0.0146
15968TIP3    H169395   0.697   2.306   6.616  1.2162  0.4540 -0.8208
15968TIP3    H269396   0.742   2.219   6.500 -0.4841  0.6123 -1.6201
15969TIP3   OH269397   4.958   0.828  15.113  0.1333 -0.2501  0.2548
15969TIP3    H169398   5.048   0.805  15.134 -0.2032  0.2221  2.3473
15969TIP3    H269399   4.946   0.915  15.151 -0.8262  0.2377 -1.1179
15970TIP3   OH269400   3.005   2.345   3.547 -0.0638  0.5255 -0.1137
15970TIP3    H169401   3.007   2.326   3.640  1.4591 -0.9865 -0.4227
15970TIP3    H269402   2.947   2.421   3.539  0.2690  1.0469  2.1029
15971TIP3   OH269403   4.558   3.392  14.832  0.0616 -0.1650  0.1814
15971TIP3    H169404   4.581   3.332  14.903  0.9714 -1.6798 -1.3520
15971TIP3    H269405   4.479   3.353  14.793 -0.7731  0.9689  0.6844
15972TIP3   OH269406   1.309   4.071  17.037  0.0741  0.3559  0.4956
15972TIP3    H169407   1.265   4.009  16.978  0.3860  1.7948 -1.2593
15972TIP3    H269408   1.255   4.068  17.117 -1.1515 -0.5814 -0.3281
15973TIP3   OH269409   6.328   0.356   4.879 -0.0389 -0.8246 -1.0482
15973TIP3    H169410   6.368   0.406   4.807 -0.9896 -0.7414 -1.5311
15973TIP3    H269411   6.275   0.290   4.835 -1.2147 -0.2981 -0.4196
15974TIP3   OH269412   6.294   2.738   2.793  0.6390 -0.0563  0.0587
15974TIP3    H169413   6.283   2.762   2.885  0.4774 -0.1272  0.0584
15974TIP3    H269414   6.374   2.782   2.766  1.5895 -1.3864  0.6922
15975TIP3   OH269415   3.152   1.905  12.011 -0.5718 -0.1359 -0.0622
15975TIP3    H169416   3.070   1.855  12.013 -2.1385  2.2540 -2.1965
15975TIP3    H269417   3.203   1.865  11.940 -0.3449 -0.9129  0.5359
15976TIP3   OH269418   0.957   0.251  11.483  0.1254  0.3680 -0.1503
15976TIP3    H169419   0.929   0.309  11.554 -0.7827 -0.4414  0.1732
15976TIP3    H269420   1.024   0.300  11.436  1.6367  0.4537  2.0228
15977TIP3   OH269421   4.319   5.972  11.177  0.0445 -0.5556  0.0373
15977TIP3    H169422   4.310   6.066  11.163 -0.2805 -0.3502  1.5462
15977TIP3    H269423   4.251   5.933  11.121  0.4546  0.0760 -0.9018
15978TIP3   OH269424   6.436   4.946  11.844  0.1035  0.1843 -0.6488
15978TIP3    H169425   6.511   4.952  11.786  0.4885 -3.0779 -0.5621
15978TIP3    H269426   6.365   4.912  11.788 -0.5278  0.5142 -0.0624
15979TIP3   OH269427   1.964   3.534   5.742  0.4701  0.1580 -0.2382
15979TIP3    H169428   2.044   3.543   5.691  0.7437  0.3971  0.2309
15979TIP3    H269429   1.986   3.472   5.811 -0.0803 -0.6421 -0.7645
15980TIP3   OH269430   5.703   0.585   0.328 -0.7311  1.0315  0.1837
15980TIP3    H169431   5.796   0.605   0.322 -0.4084  0.1468  1.8395
15980TIP3    H269432   5.679   0.608   0.418 -1.4378 -1.4060  0.6711
15981TIP3   OH269433   3.170   5.270  14.316 -0.0430 -0.1889  0.3842
15981TIP3    H169434   3.147   5.178  14.330 -1.0244  0.0565  0.4473
15981TIP3    H269435   3.160   5.310  14.402  0.7340 -0.0991  0.4294
15982TIP3   OH269436   6.483   2.839  16.822  0.1029 -0.6374 -0.1124
15982TIP3    H169437   6.479   2.934  16.828 -0.2192 -0.6567 -0.0147
15982TIP3    H269438   6.522   2.822  16.736  0.2311 -0.4189 -0.0988
15983TIP3   OH269439   5.258   1.330   3.997  0.8166  0.2743 -0.1514
15983TIP3    H169440   5.297   1.289   4.074  0.7599 -0.8160 -0.6965
15983TIP3    H269441   5.255   1.424   4.018  0.5454 -0.0502  1.2813
15984TIP3   OH269442   0.237   4.787   2.145 -0.8363 -0.2452 -0.3737
15984TIP3    H169443   0.162   4.773   2.203 -1.7157  1.4052 -1.0588
15984TIP3    H269444   0.199   4.784   2.057 -0.1481  0.8829 -0.7147
15985TIP3   OH269445   3.514   5.739  15.983 -0.5742  0.1457 -0.1525
15985TIP3    H169446   3.478   5.827  15.989 -1.6297 -0.3814  1.7494
15985TIP3    H269447   3.550   5.722  16.071  3.2387  0.1726 -1.5840
15986TIP3   OH269448   3.168   0.345   2.861  0.1521  0.6369  0.0608
15986TIP3    H169449   3.188   0.421   2.915  0.5977  1.8602 -1.7576
15986TIP3    H269450   3.218   0.274   2.900 -0.9095  1.0601  2.2776
15987TIP3   OH269451   6.459   4.410  16.939 -0.2135 -0.1393  0.1565
15987TIP3    H169452   6.375   4.416  16.986  0.7985  0.1966  1.9484
15987TIP3    H269453   6.524   4.439  17.002  1.2875 -0.5472 -1.1794
15988TIP3   OH269454   5.728   4.016  14.605 -0.1367 -0.4884 -0.6017
15988TIP3    H169455   5.780   4.095  14.622  0.4059 -0.9598 -0.0626
15988TIP3    H269456   5.791   3.953  14.571 -0.4465 -0.9056 -0.4013
15989TIP3   OH269457   6.818   2.893   3.439  0.7711 -0.2253 -0.1874
15989TIP3    H169458   6.896   2.864   3.486 -1.3274 -1.0744  2.9375
15989TIP3    H269459   6.845   2.973   3.394  2.8557  0.7655  2.6587
15990TIP3   OH269460   6.108   1.540   0.358 -0.1010  0.0533  0.4347
15990TIP3    H169461   6.164   1.615   0.340  0.2092 -0.1099  0.7045
15990TIP3    H269462   6.038   1.575   0.412 -2.0478  0.9220 -2.5626
15991TIP3   OH269463   1.989   2.956  16.943  0.1802 -0.1338 -0.0769
15991TIP3    H169464   1.914   3.010  16.968  1.0666  1.1329 -0.1435
15991TIP3    H269465   2.008   2.981  16.853  1.1232  0.0588  0.1751
15992TIP3   OH269466   1.215   0.734   4.899 -0.0416 -0.1893  0.2504
15992TIP3    H169467   1.197   0.646   4.864 -0.3291 -0.9988  2.3424
15992TIP3    H269468   1.133   0.782   4.885 -0.0783 -0.4234 -0.3688
15993TIP3   OH269469   6.077   1.572   4.801 -0.0486  0.3765 -0.5921
15993TIP3    H169470   6.121   1.503   4.752  1.3897  2.0363 -1.7029
15993TIP3    H269471   5.986   1.568   4.772 -0.0760 -1.2724 -0.3552
15994TIP3   OH269472   5.864   2.769  14.951 -0.1242 -0.0412 -0.5464
15994TIP3    H169473   5.930   2.744  15.016  0.8350  1.0897 -1.0718
15994TIP3    H269474   5.783   2.777  15.001  0.0345 -1.8154  0.0489
15995TIP3   OH269475   0.456   1.564   2.051 -0.3673 -0.3755 -0.0233
15995TIP3    H169476   0.514   1.640   2.059 -0.0476 -0.5053 -1.0422
15995TIP3    H269477   0.501   1.505   1.990 -0.1300 -1.8440  1.5319
15996TIP3   OH269478   2.642   4.611  11.584 -0.4324 -0.0777 -0.4390
15996TIP3    H169479   2.569   4.589  11.527  0.1633  0.1788 -1.3176
15996TIP3    H269480   2.602   4.649  11.662 -1.2748 -0.8712 -0.4895
15997TIP3   OH269481   2.625   2.905   2.836 -0.0014 -0.2273  0.4761
15997TIP3    H169482   2.660   2.947   2.914  1.1597  0.1395 -0.2352
15997TIP3    H269483   2.696   2.850   2.803 -0.7466 -1.0089  0.1188
15998TIP3   OH269484   1.026   0.581   5.372 -0.1820 -0.4657  0.0259
15998TIP3    H169485   0.968   0.507   5.389 -1.7116  0.4931 -0.9753
15998TIP3    H269486   1.096   0.544   5.318 -1.4479 -0.9994 -1.2881
15999TIP3   OH269487   4.080   1.328   5.452  0.0113 -0.3876  0.1052
15999TIP3    H169488   4.112   1.418   5.463 -1.4080 -0.0353  1.4406
15999TIP3    H269489   4.158   1.273   5.464  0.6740  0.6005  0.3764
16000TIP3   OH269490   6.698   4.400   5.279 -0.0566  0.0907  0.3556
16000TIP3    H169491   6.670   4.318   5.319  0.7064 -0.2992  0.1010
16000TIP3    H269492   6.621   4.430   5.230 -1.2485  0.9392  2.6514
16001TIP3   OH269493   2.881   6.081   2.494  0.1722 -0.5129  0.3223
16001TIP3    H169494   2.841   5.994   2.489  2.3543 -1.6582  2.0572
16001TIP3    H269495   2.841   6.121   2.571 -3.0209  1.2455 -2.1136
16002TIP3   OH269496   4.955   4.732   0.631 -0.4208 -0.7618 -0.2960
16002TIP3    H169497   4.896   4.789   0.680  0.3576 -0.8188  0.7248
16002TIP3    H269498   5.036   4.732   0.682 -0.4969 -2.9918 -0.1304
16003TIP3   OH269499   1.972   1.575  12.294 -0.1522 -0.5468 -0.3788
16003TIP3    H169500   2.063   1.548  12.305  0.2262  0.8525  0.0551
16003TIP3    H269501   1.931   1.556  12.379 -0.4799 -1.9587 -0.8443
16004TIP3   OH269502   0.041   6.151  15.920 -0.5467 -0.4796 -0.2551
16004TIP3    H169503   0.007   6.164  15.831  1.5515  2.1891 -0.7341
16004TIP3    H269504   0.103   6.078  15.911 -1.5640 -1.3202 -0.6084
16005TIP3   OH269505   5.503   0.033  13.973  0.2062 -0.2087 -0.1524
16005TIP3    H169506   5.569  -0.000  14.035 -0.0907  0.5008  0.5580
16005TIP3    H269507   5.545   0.110  13.933 -0.3636  0.5411  0.6652
16006TIP3   OH269508   5.820   2.688  15.958 -0.7320 -0.0606  0.1475
16006TIP3    H169509   5.726   2.672  15.944 -0.9525  1.5017 -0.2106
16006TIP3    H269510   5.860   2.602  15.945 -1.9954 -0.5339 -0.8032
16007TIP3   OH269511   4.052   1.248   0.755 -0.3846 -0.3108  0.5375
16007TIP3    H169512   4.084   1.212   0.837 -1.2208 -0.8189  0.6473
16007TIP3    H269513   4.130   1.254   0.699 -0.1006 -1.6382  0.7593
16008TIP3   OH269514   2.487   6.088   0.129  0.6846  0.0232 -0.2644
16008TIP3    H169515   2.489   6.003   0.085 -0.1409 -0.2187  0.1477
16008TIP3    H269516   2.577   6.120   0.124  1.1882 -1.2641  0.3200
16009TIP3   OH269517   3.918   6.006   1.136  0.3388 -0.0635 -0.2871
16009TIP3    H169518   3.966   6.077   1.093 -0.6826 -0.0793 -1.4970
16009TIP3    H269519   3.986   5.953   1.177  1.1115  1.5668  0.5659
16010TIP3   OH269520   5.290   2.034  13.147  0.0823 -0.1488  0.6797
16010TIP3    H169521   5.366   2.092  13.146 -0.7901  1.0172  0.9702
16010TIP3    H269522   5.245   2.052  13.064 -0.3253 -0.2367  0.8797
16011TIP3   OH269523   5.635   1.988  12.102 -0.3887 -0.2289  0.1851
16011TIP3    H169524   5.675   1.905  12.078  0.2870 -0.5144  2.2156
16011TIP3    H269525   5.598   1.973  12.189  1.3229  2.0550  1.3939
16012TIP3   OH269526   1.089   0.713  13.999 -0.3220  0.1075 -0.1411
16012TIP3    H169527   1.092   0.676  14.087  0.6020  0.9567  0.1838
16012TIP3    H269528   1.173   0.758  13.988 -0.6896  0.5574 -1.2147
16013TIP3   OH269529   0.415   1.357   0.821  0.2319  0.3673  0.5158
16013TIP3    H169530   0.435   1.435   0.770 -1.1103  0.6907  0.4807
16013TIP3    H269531   0.429   1.284   0.761 -0.5964  0.7065 -0.0977
16014TIP3   OH269532   0.069   3.135  10.891 -0.4739 -0.9628  0.0781
16014TIP3    H169533   0.072   3.225  10.924 -1.4922 -0.9797  0.2203
16014TIP3    H269534   0.099   3.141  10.801  0.2427 -0.6002  0.3388
16015TIP3   OH269535   5.504   1.869   3.385 -0.3464  0.0718  0.1186
16015TIP3    H169536   5.413   1.839   3.386 -0.0540 -0.8930 -0.7458
16015TIP3    H269537   5.551   1.800   3.337  0.2808  2.0828 -2.2585
16016TIP3   OH269538   2.506   3.849   0.024 -0.7747  0.3033  0.4406
16016TIP3    H169539   2.524   3.861   0.117 -0.9830 -0.3653  0.5691
16016TIP3    H269540   2.581   3.889  -0.021  1.3597 -2.9400  0.9633
16017TIP3   OH269541   0.258   5.746  15.168  0.0962  0.4169  0.4128
16017TIP3    H169542   0.264   5.669  15.224  2.4774  0.0202 -0.3178
16017TIP3    H269543   0.215   5.715  15.088 -0.8014  0.3396  0.9232
16018TIP3   OH269544   1.076   1.060  15.467 -0.4390  0.1103  0.3780
16018TIP3    H169545   1.138   1.001  15.510 -0.2149  0.5129  0.6133
16018TIP3    H269546   1.131   1.125  15.423 -0.6879  0.7311  0.9563
16019TIP3   OH269547   5.834   0.941  15.507  0.3546  0.3832 -0.6243
16019TIP3    H169548   5.796   1.012  15.454  0.2544  0.6051 -0.2644
16019TIP3    H269549   5.760   0.909  15.559  0.7395  1.0662  0.3559
16020TIP3   OH269550   6.294   3.643   0.274 -0.0075  0.0991 -0.9110
16020TIP3    H169551   6.386   3.659   0.257  0.2911 -0.7136 -0.0632
16020TIP3    H269552   6.280   3.671   0.364 -0.0592 -1.9341 -0.2651
16021TIP3   OH269553   2.304   6.077  12.855  0.1525  0.4432 -0.3663
16021TIP3    H169554   2.305   5.993  12.902 -0.5410  0.3801 -0.4690
16021TIP3    H269555   2.376   6.068  12.791  2.9665  1.5864  2.4958
16022TIP3   OH269556   2.808   5.052  14.091  0.1830 -0.2083  0.1983
16022TIP3    H169557   2.786   5.116  14.157 -0.1410 -1.0339  0.8992
16022TIP3    H269558   2.890   5.084  14.052 -1.3500  2.0103 -1.2899
16023TIP3   OH269559   3.753   3.744  11.150 -0.1335 -0.6699 -0.3002
16023TIP3    H169560   3.726   3.797  11.225 -1.0987 -0.2523 -0.9225
16023TIP3    H269561   3.818   3.798  11.104 -1.3349  0.1307 -1.0993
16024TIP3   OH269562   0.725   6.401  14.627 -0.4113 -0.0757 -0.3752
16024TIP3    H169563   0.779   6.446  14.562 -2.1576  0.4213 -1.5125
16024TIP3    H269564   0.786   6.342  14.671  0.9257 -0.0709 -2.1333
16025TIP3   OH269565   5.337   2.637   2.300  0.8567  0.3749  0.1830
16025TIP3    H169566   5.305   2.696   2.367  0.4937 -0.3652  0.6709
16025TIP3    H269567   5.362   2.694   2.227 -1.4571  0.9624 -0.1726
16026TIP3   OH269568   3.718   1.653   5.860  0.1210 -0.0359 -0.1421
16026TIP3    H169569   3.627   1.641   5.833  0.3005  0.7058 -1.1131
16026TIP3    H269570   3.741   1.571   5.904 -0.8519 -0.4267 -0.3381
16027TIP3   OH269571   0.496   1.236  15.157 -0.2983  0.2752  0.2978
16027TIP3    H169572   0.591   1.237  15.150 -0.2234  1.3576  1.4452
16027TIP3    H269573   0.466   1.194  15.076  1.1656 -0.5456  0.1734
16028TIP3   OH269574   5.609   2.624   4.773  0.7732 -0.2998 -0.2968
16028TIP3    H169575   5.545   2.577   4.720 -0.8164  0.5538  0.8447
16028TIP3    H269576   5.608   2.580   4.858  0.0794  1.0851  0.4252
16029TIP3   OH269577   0.207   5.632   0.771  0.0502  0.1062 -0.0892
16029TIP3    H169578   0.222   5.558   0.830  0.0561  1.0578  1.1228
16029TIP3    H269579   0.294   5.669   0.758  0.0633 -0.1641 -0.7909
16030TIP3   OH269580   6.507   3.830  15.625 -0.2153 -0.4517  0.1358
16030TIP3    H169581   6.574   3.762  15.635 -2.0781 -2.8178 -2.5379
16030TIP3    H269582   6.555   3.912  15.622  2.3250 -1.8631  0.9956
16031TIP3   OH269583   3.513   3.549   2.593 -0.0076  0.1534 -0.4215
16031TIP3    H169584   3.529   3.522   2.503  1.2422 -0.3954 -0.0448
16031TIP3    H269585   3.541   3.474   2.646 -0.8391  0.4169  0.4249
16032TIP3   OH269586   0.915   3.699   0.187  0.3077  0.1986  0.9347
16032TIP3    H169587   0.916   3.789   0.153 -0.5338 -0.5250 -1.0758
16032TIP3    H269588   1.007   3.677   0.199  0.6388  0.4576 -0.9816
16033TIP3   OH269589   3.630   6.453  13.084  0.0100  0.3151  0.0110
16033TIP3    H169590   3.645   6.539  13.124  1.6461 -0.1514  0.4422
16033TIP3    H269591   3.695   6.396  13.124  0.5303 -0.5750 -2.0228
16034TIP3   OH269592   3.805   6.108   0.101 -0.0136  0.3952  0.7413
16034TIP3    H169593   3.887   6.151   0.075 -0.0302 -0.1496 -0.2110
16034TIP3    H269594   3.777   6.157   0.178  0.5920  1.3434  0.3773
16035TIP3   OH269595   0.526   3.206  15.445 -0.3612  0.2424  0.2002
16035TIP3    H169596   0.504   3.253  15.364 -1.0280  1.4474  1.0697
16035TIP3    H269597   0.562   3.273  15.503  1.7231 -0.9390  0.3068
16036TIP3   OH269598   1.048   0.141   1.454 -0.0874  0.0041 -0.1280
16036TIP3    H169599   0.992   0.173   1.524 -0.2908 -0.2198 -0.1885
16036TIP3    H269600   1.045   0.046   1.463  1.0415  0.0149  0.4743
16037TIP3   OH269601   1.875   1.293  14.102  0.6534  0.4650 -0.1680
16037TIP3    H169602   1.919   1.214  14.071 -0.7843  0.0233 -1.1350
16037TIP3    H269603   1.791   1.293  14.056 -0.8288  0.6814  2.4328
16038TIP3   OH269604   4.066   5.214   5.647  0.6110 -0.2825 -0.0026
16038TIP3    H169605   3.974   5.195   5.669  0.5789 -0.6730 -0.4768
16038TIP3    H269606   4.116   5.176   5.719  0.1659  3.7682  2.5953
16039TIP3   OH269607   2.798   4.940  16.358  0.2529  0.2003 -0.3301
16039TIP3    H169608   2.754   5.024  16.345  0.3021  0.0324 -1.6256
16039TIP3    H269609   2.838   4.920  16.274  2.0299 -0.1150  0.5613
16040TIP3   OH269610   5.346   0.267   3.396 -0.0422  0.3227 -0.1102
16040TIP3    H169611   5.381   0.294   3.480  3.2055 -0.9769 -0.9542
16040TIP3    H269612   5.298   0.186   3.415  1.2235 -0.3213  0.4495
16041TIP3   OH269613   5.139   4.166   2.280 -0.0147  0.0372 -0.2814
16041TIP3    H169614   5.051   4.132   2.261 -0.7941  1.7678  0.0954
16041TIP3    H269615   5.171   4.111   2.351  0.0241 -1.8748 -1.7396
16042TIP3   OH269616   4.103   0.849  14.856  0.5930 -0.2045  0.2896
16042TIP3    H169617   4.049   0.842  14.936 -0.2466 -0.8801 -0.3203
16042TIP3    H269618   4.134   0.760  14.841  0.8845 -0.0446 -0.0535
16043TIP3   OH269619   6.759   3.264   1.483 -0.3366 -0.2897  0.1466
16043TIP3    H169620   6.785   3.351   1.454 -2.1926  0.2147 -0.0571
16043TIP3    H269621   6.719   3.224   1.405 -0.7778 -0.7815  0.6195
16044TIP3   OH269622   4.772   2.617   1.133  0.0928  0.0450  0.0889
16044TIP3    H169623   4.754   2.582   1.046 -0.4576  0.9805 -0.1849
16044TIP3    H269624   4.696   2.591   1.185  0.3133 -0.3145  0.2314
16045TIP3   OH269625   5.557   2.218  16.122  0.0070  0.5540 -0.2343
16045TIP3    H169626   5.564   2.153  16.192 -1.5190  1.3941  0.7185
16045TIP3    H269627   5.464   2.243  16.121  0.0773  0.8273 -2.3162
16046TIP3   OH269628   5.210   3.363   2.172 -0.5407 -0.0431 -0.2006
16046TIP3    H169629   5.128   3.323   2.143 -1.2018 -0.0352  1.5986
16046TIP3    H269630   5.271   3.290   2.181 -0.4248 -0.0835 -1.2632
16047TIP3   OH269631   4.675   5.806   5.274 -0.4660  0.0527 -0.2617
16047TIP3    H169632   4.645   5.718   5.251 -1.0997  0.6172 -1.6603
16047TIP3    H269633   4.595   5.859   5.275 -0.1786  0.4797  1.2835
16048TIP3   OH269634   2.172   1.290   2.077  0.1358  0.1490  0.1925
16048TIP3    H169635   2.122   1.265   2.155 -0.8711 -1.8618 -1.0441
16048TIP3    H269636   2.262   1.263   2.097  0.1284  0.8372  1.1659
16049TIP3   OH269637   4.710   3.873  16.430 -0.0396  0.0442  0.4604
16049TIP3    H169638   4.681   3.955  16.470  0.5920 -0.4996  2.0465
16049TIP3    H269639   4.795   3.894  16.391 -0.6941  0.5937 -0.6974
16050TIP3   OH269640   2.910   5.882   3.798  0.5874  0.2095  0.4543
16050TIP3    H169641   2.847   5.953   3.808 -0.1565 -0.6396  1.9429
16050TIP3    H269642   2.882   5.816   3.862  0.3717 -2.0774 -1.9485
16051TIP3   OH269643   1.973   0.554   3.749  0.0931 -0.0117 -0.9862
16051TIP3    H169644   2.013   0.491   3.689  0.0495 -0.3153 -0.6993
16051TIP3    H269645   1.929   0.617   3.692  3.6618  2.1755 -1.4423
16052TIP3   OH269646   4.761   4.092  12.308 -0.1013  0.1777 -0.5730
16052TIP3    H169647   4.716   4.010  12.324 -0.0234 -0.3797 -2.9211
16052TIP3    H269648   4.793   4.120  12.393 -1.9992 -1.1156  0.5972
16053TIP3   OH269649   6.789   3.264  16.374 -0.0085  0.3863  0.3918
16053TIP3    H169650   6.840   3.249  16.453 -1.8473  0.7056  1.6755
16053TIP3    H269651   6.732   3.188  16.367  1.9385 -0.9356 -2.1266
16054TIP3   OH269652   2.323   2.752  15.391 -0.4243  0.0780 -0.4190
16054TIP3    H169653   2.241   2.791  15.423 -1.1967 -2.0542  0.2708
16054TIP3    H269654   2.365   2.718  15.469  0.2069 -0.5400 -1.0306
16055TIP3   OH269655   2.051   1.539  13.725  0.0356  0.0204  0.4945
16055TIP3    H169656   2.109   1.501  13.658  0.8299  0.8135  0.7298
16055TIP3    H269657   1.964   1.540  13.684  0.5019  0.4151 -0.4931
16056TIP3   OH269658   0.217   3.443   4.939  0.1382 -0.6364 -0.1622
16056TIP3    H169659   0.190   3.391   4.863 -0.2618 -1.5726  0.6120
16056TIP3    H269660   0.135   3.476   4.976  0.4642  1.8531 -1.5288
16057TIP3   OH269661   4.092   5.278   0.560  0.9829 -0.0752  0.7642
16057TIP3    H169662   4.168   5.325   0.593  1.9866 -0.4173 -0.9869
16057TIP3    H269663   4.128   5.211   0.501 -0.6584 -0.2401 -0.1026
16058TIP3   OH269664   4.487   1.097   3.914 -0.3113  0.7412  1.0666
16058TIP3    H169665   4.436   1.162   3.867  0.0523  0.7717  0.7045
16058TIP3    H269666   4.431   1.069   3.987 -1.8962 -1.1384 -0.7981
16059TIP3   OH269667   3.170   5.030   4.206  0.3200  0.0776 -0.2138
16059TIP3    H169668   3.117   5.056   4.282 -0.7142 -0.9067 -0.5746
16059TIP3    H269669   3.163   4.935   4.204  2.4972 -0.0901 -0.0133
16060TIP3   OH269670   3.387   5.081   4.050 -0.2157  0.1491  0.0015
16060TIP3    H169671   3.436   5.087   4.132  0.5339 -4.3594  0.0622
16060TIP3    H269672   3.302   5.046   4.076 -0.0699 -1.0403 -1.0337
16061TIP3   OH269673   5.700   1.234   4.789  0.5066 -0.0829  0.1351
16061TIP3    H169674   5.655   1.199   4.712  0.0688 -0.5623  0.6047
16061TIP3    H269675   5.790   1.246   4.760  0.5159 -0.9691 -0.2429
16062TIP3   OH269676   2.200   1.844  11.007 -0.1828  0.0022  0.5164
16062TIP3    H169677   2.166   1.881  10.925  1.1496 -0.4004 -0.2206
16062TIP3    H269678   2.295   1.855  11.001  0.0268 -1.2306  1.4167
16063TIP3   OH269679   1.088   1.690  11.804 -0.2860  0.3023 -0.2931
16063TIP3    H169680   1.017   1.633  11.775  0.2796 -0.6978  0.2358
16063TIP3    H269681   1.150   1.690  11.730 -0.9263  1.3453 -0.8380
16064TIP3   OH269682   3.890   5.272  15.265 -0.7082 -0.1182  0.1553
16064TIP3    H169683   3.855   5.301  15.180 -0.3060  0.0615  0.0499
16064TIP3    H269684   3.956   5.338  15.288  2.0003 -2.1937 -1.2768
16065TIP3   OH269685   0.679   0.633   4.102 -0.0467  0.1806  0.5584
16065TIP3    H169686   0.763   0.658   4.063 -0.2268 -0.7970 -0.4886
16065TIP3    H269687   0.636   0.716   4.121  0.4878  0.6856 -0.3897
16066TIP3   OH269688   5.465   4.605  12.196 -0.6084  0.0412 -0.1691
16066TIP3    H169689   5.511   4.689  12.191 -1.2215  0.4298  0.4738
16066TIP3    H269690   5.476   4.565  12.110 -1.9101  1.6338 -1.0941
16067TIP3   OH269691   2.377   3.191  14.101  0.0919 -0.1552  0.0432
16067TIP3    H169692   2.354   3.098  14.103  0.4254 -0.2200  1.1555
16067TIP3    H269693   2.433   3.203  14.177  2.3731  0.3463 -1.6598
16068TIP3   OH269694   5.525   4.113  13.964  0.1344  0.1761 -0.3229
16068TIP3    H169695   5.595   4.082  13.906 -1.7386 -1.2491 -1.9041
16068TIP3    H269696   5.471   4.036  13.981 -0.6722  1.0861  1.4554
16069TIP3   OH269697   0.596   3.245  16.782 -0.2172  0.0823 -0.3319
16069TIP3    H169698   0.570   3.281  16.698  1.6056 -0.1705 -1.0397
16069TIP3    H269699   0.515   3.212  16.821 -0.8621 -1.3462 -2.7426
16070TIP3   OH269700   0.889   2.543   0.213 -0.0093 -0.0842 -0.0873
16070TIP3    H169701   0.818   2.517   0.272  0.2507  0.0037  0.2659
16070TIP3    H269702   0.933   2.461   0.190 -1.1153 -0.2986 -1.4532
16071TIP3   OH269703   0.866   3.719  15.191  0.1354  0.3014 -0.3318
16071TIP3    H169704   0.956   3.744  15.210  0.0516 -1.0190  2.0374
16071TIP3    H269705   0.865   3.623  15.199 -1.0159  0.0736 -2.5043
16072TIP3   OH269706   1.769   5.887   5.380 -0.1324 -0.3506 -0.0286
16072TIP3    H169707   1.679   5.884   5.347  0.1545 -1.6288 -0.7658
16072TIP3    H269708   1.760   5.886   5.475 -0.9234  0.7619 -0.0882
16073TIP3   OH269709   2.601   6.228  15.651  0.8597  0.4368  0.1796
16073TIP3    H169710   2.514   6.253  15.682  1.1890 -0.1107  1.5821
16073TIP3    H269711   2.608   6.268  15.564 -0.4386  1.2229  0.4264
16074TIP3   OH269712   0.716   6.190   4.744  0.1333  0.2292  0.7494
16074TIP3    H169713   0.744   6.152   4.827  1.6920 -0.9019 -0.2583
16074TIP3    H269714   0.790   6.244   4.717  0.2646 -0.6195 -0.6378
16075TIP3   OH269715   3.017   5.973  15.920  0.0157  0.0459  0.3054
16075TIP3    H169716   3.071   5.925  15.858  0.6035 -0.4165  1.1559
16075TIP3    H269717   2.940   6.001  15.870 -0.3331 -1.7817 -0.2090
16076TIP3   OH269718   4.695   0.715   3.130  0.0738  0.0887  0.0548
16076TIP3    H169719   4.717   0.790   3.185  0.8881 -0.2641  0.2129
16076TIP3    H269720   4.663   0.649   3.191  1.7108 -0.5827  0.2095
16077TIP3   OH269721   0.451   5.965  14.885 -0.1521  0.0979  0.1193
16077TIP3    H169722   0.444   6.015  14.804 -0.4224 -0.8284 -0.4263
16077TIP3    H269723   0.527   6.002  14.930  0.5377  0.0112 -0.9658
16078TIP3   OH269724   2.569   0.599  12.361  0.0204  0.0987  0.3293
16078TIP3    H169725   2.575   0.595  12.456  0.3580  1.8002  0.3985
16078TIP3    H269726   2.644   0.549  12.329 -1.0965 -2.0115  0.9224
16079TIP3   OH269727   5.024   5.266  13.452 -0.0068 -0.7464 -0.5227
16079TIP3    H169728   5.050   5.174  13.456  2.3179 -0.0842  0.7979
16079TIP3    H269729   5.097   5.313  13.492 -1.4635  1.6240 -0.5525
16080TIP3   OH269730   3.244   5.677  12.920  0.4480 -0.6100 -0.2748
16080TIP3    H169731   3.273   5.587  12.916  1.3622 -0.3250 -0.0887
16080TIP3    H269732   3.152   5.671  12.947  1.0986 -1.3915  1.8989
16081TIP3   OH269733   3.893   0.045   3.717  0.6860 -0.5573  0.3369
16081TIP3    H169734   3.890  -0.034   3.770  0.4558  0.7643  2.3672
16081TIP3    H269735   3.984   0.075   3.723  0.8550 -0.8554 -0.7078
16082TIP3   OH269736   1.981   6.477  14.798  0.0973  0.1474 -0.3827
16082TIP3    H169737   1.970   6.544  14.866  0.5705  0.5711 -0.7174
16082TIP3    H269738   2.033   6.409  14.840  3.5840  2.0655 -1.3791
16083TIP3   OH269739   2.899   1.612   3.608  0.5323  0.0429 -0.4241
16083TIP3    H169740   2.930   1.572   3.689  0.3925  2.2851  0.7754
16083TIP3    H269741   2.839   1.680   3.636  0.0389  0.4784 -2.4514
16084TIP3   OH269742   3.142   4.771   6.193 -0.1896 -0.3566 -0.1572
16084TIP3    H169743   3.133   4.848   6.137 -1.3677 -1.0956 -1.0128
16084TIP3    H269744   3.125   4.697   6.134  1.5038 -1.3201  0.5055
16085TIP3   OH269745   4.144   6.767   2.872 -0.1402 -0.1510 -0.3180
16085TIP3    H169746   4.155   6.862   2.874 -0.4781 -0.1393  0.9076
16085TIP3    H269747   4.225   6.734   2.833  0.4607  0.5664  0.3242
16086TIP3   OH269748   0.870   1.991   0.797 -0.1036 -0.4279 -0.7713
16086TIP3    H169749   0.875   1.902   0.761 -0.1633 -0.0465 -1.7592
16086TIP3    H269750   0.781   2.020   0.774  0.6973  0.7249 -2.5093
16087TIP3   OH269751   6.176   4.525  15.436 -0.1185 -0.0607 -0.3382
16087TIP3    H169752   6.222   4.489  15.512 -2.2785 -1.8230  0.2100
16087TIP3    H269753   6.184   4.619  15.444 -0.0896 -0.2419  1.9432
16088TIP3   OH269754   6.602   2.810   5.197 -0.0920  0.6672 -0.6218
16088TIP3    H169755   6.685   2.857   5.196  0.0635  0.3844 -2.3297
16088TIP3    H269756   6.621   2.726   5.156 -0.5640 -0.5889  1.6493
16089TIP3   OH269757   3.527   5.199   4.294  0.3685 -0.3560 -0.2572
16089TIP3    H169758   3.570   5.141   4.357 -0.2420  0.4775  0.9230
16089TIP3    H269759   3.586   5.274   4.286 -0.7930  0.7495  1.2969
16090TIP3   OH269760   1.589   3.122   0.074 -0.9829 -0.2017  0.7120
16090TIP3    H169761   1.635   3.201   0.103 -0.7348  0.5075 -1.5083
16090TIP3    H269762   1.497   3.148   0.068 -1.0969 -0.4684  1.2349
16091TIP3   OH269763   3.385   3.597   4.782 -0.0250  0.5692 -0.1231
16091TIP3    H169764   3.408   3.690   4.786  0.5727  0.4897 -1.5146
16091TIP3    H269765   3.445   3.555   4.845 -1.9989  1.4183  2.4099
16092TIP3   OH269766   3.074   2.050   2.557  0.0067  0.2379  0.4900
16092TIP3    H169767   3.040   2.082   2.473  0.5827  0.1490  0.2236
16092TIP3    H269768   3.054   1.957   2.557  1.1855 -0.0194 -0.1251
16093TIP3   OH269769   6.683   0.809  11.237 -0.0874 -0.4940  0.6246
16093TIP3    H169770   6.762   0.847  11.200 -0.1934 -0.8885 -0.0054
16093TIP3    H269771   6.627   0.884  11.256  0.6072 -0.1859  1.4655
16094TIP3   OH269772   5.116   6.690  16.755 -0.6410 -0.2124 -0.7297
16094TIP3    H169773   5.049   6.656  16.815  2.0437 -1.0739  1.8489
16094TIP3    H269774   5.165   6.754  16.806  3.3719 -2.8411 -1.0467
16095TIP3   OH269775   5.764   1.921  16.747 -0.1205  0.1537 -0.0148
16095TIP3    H169776   5.769   1.909  16.842  0.6697  0.2967 -0.0385
16095TIP3    H269777   5.678   1.962  16.733 -1.5002 -2.4398  0.3869
16096TIP3   OH269778   1.484   2.034   5.918  0.2053  0.7635  0.0966
16096TIP3    H169779   1.539   2.072   5.987 -0.9985  1.1444  0.8768
16096TIP3    H269780   1.429   2.107   5.889 -0.6116  0.1511  0.0770
16097TIP3   OH269781   4.470   6.334  16.503  0.1750  0.0037  0.3098
16097TIP3    H169782   4.456   6.239  16.507 -0.0890 -0.1199 -2.2474
16097TIP3    H269783   4.504   6.349  16.415  1.1010  2.1910  1.0055
16098TIP3   OH269784   5.079   2.328   4.833  0.4523  0.4576 -0.2280
16098TIP3    H169785   5.122   2.256   4.879 -1.3458 -1.2654 -1.1734
16098TIP3    H269786   5.151   2.387   4.810  1.9151 -0.7878  0.9687
16099TIP3   OH269787   2.140   5.869   3.877 -1.1978  0.1824 -0.4933
16099TIP3    H169788   2.231   5.853   3.900 -1.7220 -1.2876  0.6353
16099TIP3    H269789   2.132   5.834   3.788 -0.6119  0.4869 -0.6673
16100TIP3   OH269790   5.795   6.759  17.224  0.3670  0.4065  0.0031
16100TIP3    H169791   5.864   6.704  17.262 -0.7678 -0.0637  1.4214
16100TIP3    H269792   5.747   6.793  17.299  0.7301  2.9543 -0.8777
16101TIP3   OH269793   5.744   3.613  16.509 -0.4078 -0.3447  0.0770
16101TIP3    H169794   5.795   3.554  16.454 -0.7569 -1.0142  0.4646
16101TIP3    H269795   5.796   3.693  16.514  0.2329 -0.7458 -0.1625
16102TIP3   OH269796   2.200   4.524   3.916 -0.2711 -0.0508 -0.7420
16102TIP3    H169797   2.239   4.442   3.888  0.6935  0.2542 -0.2917
16102TIP3    H269798   2.141   4.499   3.987 -1.6950 -0.6451 -2.1031
16103TIP3   OH269799   1.113   5.957  15.716 -0.2747 -0.0346  0.4125
16103TIP3    H169800   1.127   5.895  15.787 -1.6656  0.3582  1.0373
16103TIP3    H269801   1.035   5.926  15.671  1.8775 -1.6383 -2.4504
16104TIP3   OH269802   6.491   5.653   2.138  0.2149  0.2329 -0.3310
16104TIP3    H169803   6.520   5.562   2.127  0.3670  0.2101  0.2363
16104TIP3    H269804   6.569   5.705   2.116 -0.3830  0.3014 -2.4608
16105TIP3   OH269805   4.981   2.050  12.110 -0.2283  0.2862 -0.1627
16105TIP3    H169806   5.032   1.984  12.064  0.0092 -0.6398  1.3811
16105TIP3    H269807   4.961   2.116  12.044  2.4779  0.3958 -0.9198
16106TIP3   OH269808   0.886   0.190   4.699 -0.1564  0.5251  0.4926
16106TIP3    H169809   0.944   0.113   4.704 -0.1920  0.5092  0.6548
16106TIP3    H269810   0.870   0.213   4.790 -1.3648 -0.1876  0.4666
16107TIP3   OH269811   6.577   4.627   5.405  0.1830 -0.0543  0.3901
16107TIP3    H169812   6.616   4.683   5.473 -1.3279  0.8482  0.5433
16107TIP3    H269813   6.648   4.568   5.379  0.7872 -0.4738  2.8038
16108TIP3   OH269814   2.154   1.924   2.436  0.2011 -0.4149  0.2161
16108TIP3    H169815   2.083   1.866   2.465  1.8061 -2.6540 -0.2024
16108TIP3    H269816   2.199   1.875   2.367  1.0714  1.7145 -0.7685
16109TIP3   OH269817   5.423   4.169  16.903 -0.3410 -0.5387 -0.2549
16109TIP3    H169818   5.470   4.087  16.889 -1.1257 -0.6827 -2.2415
16109TIP3    H269819   5.424   4.212  16.817  1.8932  2.5477  1.1867
16110TIP3   OH269820   6.267   1.849   6.025 -0.0137  0.4948  0.7513
16110TIP3    H169821   6.254   1.754   6.031  1.6311  0.0011 -2.4214
16110TIP3    H269822   6.181   1.884   6.004  0.1557 -0.8201 -2.4123
16111TIP3   OH269823   5.636   3.783   2.457  0.5173  0.1411 -0.2258
16111TIP3    H169824   5.670   3.813   2.542  1.8143  0.7201 -0.9434
16111TIP3    H269825   5.671   3.844   2.393 -2.0536  0.8647 -0.9954
16112TIP3   OH269826   2.049   5.984  16.411 -0.5839 -0.3562  0.1607
16112TIP3    H169827   1.969   5.936  16.435 -0.3065 -1.3603 -0.8642
16112TIP3    H269828   2.096   5.924  16.352 -0.5546  1.4590 -1.7111
16113TIP3   OH269829   4.089   4.635  13.061  1.0141  0.1477  0.4193
16113TIP3    H169830   4.026   4.685  13.011  0.7194  1.2347  1.8566
16113TIP3    H269831   4.105   4.557  13.008 -2.0898 -0.5109  0.3664
16114TIP3   OH269832   5.884   2.242   5.162  0.2638 -0.7372  0.4098
16114TIP3    H169833   5.936   2.244   5.243  0.9052  0.1051 -0.0147
16114TIP3    H269834   5.793   2.236   5.192  0.4482  0.2790  1.2094
16115TIP3   OH269835   4.107   1.265  14.351 -0.2639  0.1065  0.3414
16115TIP3    H169836   4.143   1.350  14.375 -0.5347  0.2104  0.3790
16115TIP3    H269837   4.103   1.266  14.255  0.3948 -0.1367  0.3057
16116TIP3   OH269838   4.286   1.491  17.002  0.3022  0.0526 -0.4171
16116TIP3    H169839   4.292   1.473  16.908  1.3582  0.9949 -0.5342
16116TIP3    H269840   4.266   1.406  17.042 -0.4721 -0.2911 -1.5180
16117TIP3   OH269841   2.779   6.128   3.088 -0.0700 -0.7389  0.2484
16117TIP3    H169842   2.754   6.175   3.008 -0.9383  1.2680  1.6520
16117TIP3    H269843   2.706   6.068   3.104 -0.6602  0.0153  0.4165
16118TIP3   OH269844   5.580   5.681  11.535  0.3571 -0.3221 -0.0618
16118TIP3    H169845   5.578   5.776  11.547 -1.2349 -0.3698  0.0549
16118TIP3    H269846   5.671   5.663  11.508  0.5736  1.2634 -0.4632
16119TIP3   OH269847   5.600   0.218   3.318 -0.0362 -0.7752 -0.4677
16119TIP3    H169848   5.508   0.203   3.337 -0.0518 -0.9967 -0.7205
16119TIP3    H269849   5.600   0.292   3.256 -0.0214 -0.5042 -0.1449
16120TIP3   OH269850   0.831   4.200  17.218 -0.0770 -0.7051  0.5242
16120TIP3    H169851   0.814   4.196  17.313  0.5444  1.0861  0.7313
16120TIP3    H269852   0.749   4.231  17.180 -0.1017 -0.7410  0.5477
16121TIP3   OH269853   6.467   4.967  13.771  0.3457 -0.1410  0.3592
16121TIP3    H169854   6.551   4.995  13.733  1.0757 -2.1578  0.4181
16121TIP3    H269855   6.402   4.989  13.705  1.3744 -1.8255 -1.2636
16122TIP3   OH269856   5.108   0.735   5.605 -0.0263 -0.5019 -1.0048
16122TIP3    H169857   5.116   0.717   5.512  2.9828  0.4182 -0.9884
16122TIP3    H269858   5.188   0.699   5.644  0.0798  1.5036  0.7868
16123TIP3   OH269859   4.710   4.578   5.267 -0.2336  0.6629  0.3478
16123TIP3    H169860   4.673   4.604   5.351 -1.2758 -2.8902  1.0626
16123TIP3    H269861   4.636   4.580   5.207 -0.2362 -0.2325  0.3192
16124TIP3   OH269862   5.913   5.698   0.488 -0.1922  0.3316 -0.4682
16124TIP3    H169863   6.008   5.687   0.480 -0.2561 -1.3131  0.6929
16124TIP3    H269864   5.876   5.617   0.451 -1.0676  0.2698  0.5138
16125TIP3   OH269865   4.075   3.862  17.018 -0.2776  0.4176  0.0797
16125TIP3    H169866   4.046   3.842  16.929 -0.8243 -0.2843  0.4216
16125TIP3    H269867   4.160   3.906  17.005 -1.1471  1.8571 -0.8684
16126TIP3   OH269868   5.257   1.114  16.336 -0.0784  0.7314  0.1432
16126TIP3    H169869   5.326   1.146  16.393 -1.0705  2.4953  0.3752
16126TIP3    H269870   5.230   1.190  16.284 -0.4496 -0.4073 -1.3936
16127TIP3   OH269871   1.581   2.564   2.748  0.9067  0.0139  0.5408
16127TIP3    H169872   1.636   2.560   2.826  0.9477  0.4547  0.5390
16127TIP3    H269873   1.641   2.551   2.675  0.9271 -0.0408  0.5680
16128TIP3   OH269874   5.268   2.861   2.475 -0.0390 -0.5630  0.1307
16128TIP3    H169875   5.345   2.897   2.518  0.4630 -0.3605 -0.9191
16128TIP3    H269876   5.200   2.862   2.542  1.0219 -1.2773  1.2349
16129TIP3   OH269877   3.953   4.450   5.034 -0.1446 -0.1726  0.4863
16129TIP3    H169878   3.960   4.376   5.095  1.5434 -0.6163 -0.2142
16129TIP3    H269879   3.884   4.426   4.974 -0.1684 -0.8083  0.7672
16130TIP3   OH269880   5.216   2.254  16.807 -0.3019 -0.3791 -0.1398
16130TIP3    H169881   5.287   2.316  16.792 -1.6824  1.4254  0.6880
16130TIP3    H269882   5.204   2.253  16.902 -1.5057 -0.5277 -0.2875
16131TIP3   OH269883   0.124   3.770   0.712 -0.3146  0.0335 -0.2805
16131TIP3    H169884   0.042   3.722   0.702  0.9344 -1.8318 -1.9299
16131TIP3    H269885   0.138   3.813   0.628  0.9340 -0.5596 -0.3948
16132TIP3   OH269886   1.781   5.145   5.060 -0.4532 -0.6114 -0.2524
16132TIP3    H169887   1.804   5.238   5.067 -1.2825 -0.2510 -1.9498
16132TIP3    H269888   1.782   5.113   5.150 -1.6995  1.4311  0.5181
16133TIP3   OH269889   6.140   3.826   2.085 -0.0418 -0.3519 -0.1929
16133TIP3    H169890   6.143   3.820   2.181  0.9181 -0.1439 -0.2046
16133TIP3    H269891   6.076   3.895   2.068 -0.6787 -0.8155  0.2822
16134TIP3   OH269892   1.375   3.515   1.529  0.6504 -0.4341  0.3674
16134TIP3    H169893   1.374   3.477   1.441  0.6547 -0.3619  0.3362
16134TIP3    H269894   1.316   3.591   1.524  1.7211  0.3810  0.0617
16135TIP3   OH269895   4.528   1.409   1.312  0.2592  0.2730  0.2494
16135TIP3    H169896   4.522   1.379   1.222 -1.3022  2.2218 -0.3332
16135TIP3    H269897   4.575   1.493   1.306  0.4972  0.2235  1.2991
16136TIP3   OH269898   6.354   1.526  16.586 -0.3333 -0.1510 -0.1106
16136TIP3    H169899   6.445   1.495  16.582  0.0670  1.0995 -1.4342
16136TIP3    H269900   6.320   1.511  16.498 -1.5576 -1.0198  0.5069
16137TIP3   OH269901   4.568   4.334   4.987 -0.3215  0.0043  0.0058
16137TIP3    H169902   4.491   4.278   4.997 -0.3680  0.0949  0.1643
16137TIP3    H269903   4.532   4.423   4.985 -0.2703  0.0136 -0.5083
16138TIP3   OH269904   1.601   2.072   4.316 -0.1408 -0.0147 -0.5021
16138TIP3    H169905   1.506   2.077   4.304  0.0892  2.4570 -1.7338
16138TIP3    H269906   1.624   1.982   4.295 -1.9678 -0.1087 -2.2505
16139TIP3   OH269907   3.244   0.549  12.358  0.2670  0.5787 -0.1385
16139TIP3    H169908   3.183   0.493  12.406  0.1065  0.6460 -0.2656
16139TIP3    H269909   3.189   0.607  12.307  0.4118  1.9474  1.2228
16140TIP3   OH269910   4.176   5.882   5.246  0.5267 -0.3298 -0.5753
16140TIP3    H169911   4.159   5.974   5.268  2.6656  0.8483 -3.4671
16140TIP3    H269912   4.089   5.842   5.241 -0.4436  1.5348  0.7041
16141TIP3   OH269913   3.503   3.017   0.931  0.5431  0.2709 -0.2898
16141TIP3    H169914   3.525   3.048   0.844  0.6971 -1.4490 -0.8854
16141TIP3    H269915   3.465   2.930   0.917 -1.0327  0.6833  1.2219
16142TIP3   OH269916   4.358   5.368  12.991  0.5490 -0.1640  0.2310
16142TIP3    H169917   4.346   5.367  13.086 -0.8571 -0.5102  0.0594
16142TIP3    H269918   4.414   5.292  12.973  1.1615  0.1474  0.8279
16143TIP3   OH269919   3.769   5.620   2.721  0.2805 -0.0017  0.0917
16143TIP3    H169920   3.859   5.589   2.733  0.4507  0.6183  0.4630
16143TIP3    H269921   3.772   5.711   2.751  0.0223  0.6713 -1.8271
16144TIP3   OH269922   6.616   2.380  14.994 -0.3528 -0.4111 -0.2263
16144TIP3    H169923   6.699   2.427  15.001 -0.9881  0.9152 -1.4861
16144TIP3    H269924   6.574   2.392  15.080  0.3066 -0.2366  0.0700
16145TIP3   OH269925   6.266   0.631  11.551  0.6100 -0.1914  0.1498
16145TIP3    H169926   6.187   0.599  11.506  0.3521  1.0095 -0.2877
16145TIP3    H269927   6.339   0.595  11.500  0.3715 -2.2607  1.2361
16146TIP3   OH269928   4.470   3.076  11.208 -0.1339  0.1172  0.2131
16146TIP3    H169929   4.487   3.141  11.275 -0.2590 -1.1819  1.5363
16146TIP3    H269930   4.492   3.120  11.125 -1.5111  2.2436  0.9535
16147TIP3   OH269931   6.574   3.611   1.254  0.1909 -0.0454  0.2805
16147TIP3    H169932   6.657   3.659   1.264  1.0933 -1.5388  0.0824
16147TIP3    H269933   6.578   3.543   1.321 -0.7204 -0.3586  0.0171
16148TIP3   OH269934   4.300   3.099   5.866 -0.4236 -0.3564  0.6607
16148TIP3    H169935   4.335   3.137   5.946 -1.8316  0.6727  0.8165
16148TIP3    H269936   4.246   3.026   5.895 -0.7401 -0.1327  0.6397
16149TIP3   OH269937   5.192   2.176   1.589 -0.2043  0.1022 -0.2055
16149TIP3    H169938   5.242   2.258   1.598 -0.0693 -0.1571  1.5367
16149TIP3    H269939   5.181   2.165   1.495  2.4153  0.5449 -0.5955
16150TIP3   OH269940   1.397   4.529   3.200  0.0642 -0.0206 -0.0897
16150TIP3    H169941   1.443   4.611   3.219  0.9605 -0.6058  0.3162
16150TIP3    H269942   1.455   4.461   3.234 -0.6319 -0.8309 -0.5083
16151TIP3   OH269943   2.345   3.315  16.956  0.2588  0.1431  0.7437
16151TIP3    H169944   2.250   3.309  16.968  0.3703  0.9858  2.1168
16151TIP3    H269945   2.357   3.310  16.861 -1.0153 -1.8816  0.6624
16152TIP3   OH269946   6.136   2.579   1.381  0.2981 -0.5940 -0.9601
16152TIP3    H169947   6.192   2.535   1.445 -0.3485 -2.0650 -1.3688
16152TIP3    H269948   6.058   2.523   1.375 -1.6766  1.9556  0.3542
16153TIP3   OH269949   0.095   3.181  16.606  0.0697 -0.3029  0.3752
16153TIP3    H169950   0.151   3.251  16.639 -0.3279 -0.5679  1.6516
16153TIP3    H269951   0.045   3.152  16.683 -0.8455 -0.9683 -0.4570
16154TIP3   OH269952   5.102   1.712  14.991 -0.1349  0.1978 -0.2443
16154TIP3    H169953   5.102   1.764  15.072  0.3437 -1.1753  0.6667
16154TIP3    H269954   5.114   1.622  15.021 -2.0046 -0.5785 -1.7230
16155TIP3   OH269955   1.344   3.278   5.395 -0.0997  0.4092  0.6856
16155TIP3    H169956   1.321   3.186   5.384 -2.3522  1.1073 -0.6096
16155TIP3    H269957   1.371   3.285   5.487 -1.3654 -1.2384  1.1937
16156TIP3   OH269958   0.362   5.884  12.029 -0.1841 -0.1677  0.1511
16156TIP3    H169959   0.391   5.805  11.985 -0.9846 -0.1673 -0.3957
16156TIP3    H269960   0.283   5.910  11.981 -1.5463 -0.6326  2.1103
16157TIP3   OH269961   3.962   5.423  15.005  0.5095 -0.0121 -0.0025
16157TIP3    H169962   3.948   5.501  15.059  1.1520 -0.1739  0.3965
16157TIP3    H269963   3.894   5.429  14.937 -0.7808 -0.2176  1.2552
16158TIP3   OH269964   4.198   3.754   4.962  0.0749  0.4295 -0.1604
16158TIP3    H169965   4.283   3.766   4.921  1.3511 -0.7815  2.0531
16158TIP3    H269966   4.163   3.675   4.922  1.5345 -1.0347  1.3782
16159TIP3   OH269967   5.651   4.395   4.552 -0.0516 -0.0866  0.3614
16159TIP3    H169968   5.628   4.469   4.495 -1.4228 -0.0999  0.8942
16159TIP3    H269969   5.652   4.319   4.494  1.7515  0.3829 -0.2713
16160TIP3   OH269970   0.410   4.380  12.761  1.3927  0.4536 -0.3592
16160TIP3    H169971   0.381   4.335  12.682  1.6973 -0.3412 -0.0242
16160TIP3    H269972   0.359   4.461  12.763  0.0958 -0.3413 -0.4455
16161TIP3   OH269973   6.609   3.333   4.386  1.0549 -0.4777  0.1449
16161TIP3    H169974   6.567   3.324   4.301  0.9362 -0.8911  0.2498
16161TIP3    H269975   6.554   3.396   4.433  1.6739  0.5099 -0.4391
16162TIP3   OH269976   6.757   6.621   4.881 -0.2525  0.3493  0.2701
16162TIP3    H169977   6.711   6.685   4.936  0.2995  0.8623  0.1340
16162TIP3    H269978   6.840   6.606   4.926 -0.2514 -0.0451  0.1387
16163TIP3   OH269979   6.399   4.538  13.506  0.2756 -0.2389  0.0426
16163TIP3    H169980   6.411   4.632  13.490 -1.3553  0.1722  1.1933
16163TIP3    H269981   6.436   4.523  13.592  0.5919 -0.6754 -0.1652
16164TIP3   OH269982   2.795   1.357  11.494 -0.5540  0.3670 -0.0937
16164TIP3    H169983   2.745   1.434  11.466 -0.5639  0.3057 -0.2482
16164TIP3    H269984   2.876   1.393  11.531 -0.2708  0.4327 -0.7593
16165TIP3   OH269985   4.432   5.249  14.791  0.0443  0.0170 -0.0876
16165TIP3    H169986   4.518   5.212  14.808 -1.1115 -2.3216  0.8559
16165TIP3    H269987   4.414   5.304  14.868 -0.0555 -0.9185  0.5624
16166TIP3   OH269988   0.625   3.907   5.466  0.1169 -0.2218 -0.1191
16166TIP3    H169989   0.566   3.960   5.412 -0.3496  0.5011  1.0990
16166TIP3    H269990   0.635   3.826   5.416 -1.2415 -0.0282 -0.7332
16167TIP3   OH269991   6.229   4.758   2.301 -0.3756  0.3694 -0.5613
16167TIP3    H169992   6.277   4.705   2.365 -0.8006  1.1311  0.3993
16167TIP3    H269993   6.171   4.696   2.258  0.9094 -0.4240 -1.2070
16168TIP3   OH269994   3.574   2.835   1.304 -0.1748  1.0123 -0.5079
16168TIP3    H169995   3.564   2.836   1.399  0.3046 -1.1471 -0.4057
16168TIP3    H269996   3.666   2.812   1.290 -0.0916  1.9076 -1.4947
16169TIP3   OH269997   2.590   0.086   3.041  0.1354  0.5597  0.1256
16169TIP3    H169998   2.568   0.026   2.970 -1.0043  0.2755  0.7034
16169TIP3    H269999   2.611   0.168   2.997  0.3250  0.1339 -0.5900
16170TIP3   OH270000   5.738   4.945  16.092  0.1502  0.3205  0.2956
16170TIP3    H170001   5.737   4.908  16.004  1.6095 -1.6008  1.0388
16170TIP3    H270002   5.647   4.966  16.111 -0.3154 -0.2497 -1.2641
16171TIP3   OH270003   1.204   1.513   1.222 -0.1804  0.1059 -0.1591
16171TIP3    H170004   1.252   1.579   1.172  0.5003  1.2402  1.9667
16171TIP3    H270005   1.269   1.446   1.242 -0.3175 -0.0537 -0.2416
16172TIP3   OH270006   5.658   0.176  11.963 -0.4796 -0.4887  0.3364
16172TIP3    H170007   5.574   0.202  11.926 -0.1387  1.0597  0.6359
16172TIP3    H270008   5.723   0.212  11.903  0.0070 -0.2042  1.0283
16173TIP3   OH270009   6.107   2.560   6.417 -0.0252  0.2524  0.1037
16173TIP3    H170010   6.186   2.603   6.384  0.9820 -0.3947  1.6119
16173TIP3    H270011   6.088   2.492   6.352 -1.0740  2.3164 -1.7951
16174TIP3   OH270012   5.359   2.229  14.417 -0.2703  0.1788  1.0414
16174TIP3    H170013   5.313   2.230  14.333 -0.0119 -2.4857  0.8353
16174TIP3    H270014   5.371   2.136  14.437 -0.1263  0.7756  3.9299
16175TIP3   OH270015   4.523   1.949   1.312  0.3115 -0.5543 -0.0505
16175TIP3    H170016   4.433   1.944   1.283  0.7760 -1.1787 -1.4330
16175TIP3    H270017   4.548   2.041   1.303  0.2479 -0.6307 -1.0086
16176TIP3   OH270018   0.614   0.474  16.918  0.5008  0.1845  0.5209
16176TIP3    H170019   0.587   0.527  16.842 -0.1350 -0.0604  0.5688
16176TIP3    H270020   0.532   0.440  16.953  0.7502  0.6844  1.6140
16177TIP3   OH270021   5.443   0.452   4.426 -0.2193  0.4506  0.1706
16177TIP3    H170022   5.375   0.490   4.371  0.0040 -1.3007 -1.3711
16177TIP3    H270023   5.501   0.525   4.448 -1.1407  1.4438 -0.6921
16178TIP3   OH270024   1.774   0.851   5.394 -0.2350 -0.0076  0.6734
16178TIP3    H170025   1.788   0.782   5.328 -0.5700  1.2798 -0.7646
16178TIP3    H270026   1.755   0.929   5.343 -2.5556  0.5673  2.3397
16179TIP3   OH270027   4.468   6.566   3.071 -0.0805  0.0682 -0.0684
16179TIP3    H170028   4.415   6.538   3.146  0.0999  0.6387  0.2684
16179TIP3    H270029   4.427   6.523   2.996 -0.2720 -0.4892  0.3535
16180TIP3   OH270030   0.932   4.596   2.066 -0.3829 -0.6507  0.2829
16180TIP3    H170031   0.917   4.574   1.974  1.1628 -0.6763  0.0121
16180TIP3    H270032   0.932   4.691   2.069 -1.3943 -0.6578  0.4266
16181TIP3   OH270033   4.658   3.429   2.253  0.2785 -0.0266  0.3684
16181TIP3    H170034   4.748   3.435   2.286 -0.3270  2.8708  1.7421
16181TIP3    H270035   4.604   3.460   2.327 -1.8113 -1.2535 -0.5976
16182TIP3   OH270036   2.417   1.568   5.383  0.1338 -0.1416  0.6726
16182TIP3    H170037   2.334   1.581   5.430  1.4120 -0.2892  3.0718
16182TIP3    H270038   2.478   1.536   5.451  2.3967  0.8633 -0.8394
16183TIP3   OH270039   5.207   5.319   4.998 -0.0109 -0.1686 -0.1705
16183TIP3    H170040   5.180   5.228   5.009  1.0035 -0.2924  1.4415
16183TIP3    H270041   5.129   5.363   4.963 -0.7814 -1.4710 -0.1229
16184TIP3   OH270042   1.171   0.589  17.131 -0.1702 -0.6181 -0.4503
16184TIP3    H170043   1.078   0.587  17.113 -0.3217 -3.0272  0.3981
16184TIP3    H270044   1.177   0.587  17.227  0.7423  1.0979 -0.4438
16185TIP3   OH270045   2.343   5.366   0.808 -0.8171  0.1352  0.1949
16185TIP3    H170046   2.359   5.426   0.881 -0.4345  1.0261 -0.6109
16185TIP3    H270047   2.401   5.397   0.738  0.0328 -1.7026  0.0591
16186TIP3   OH270048   2.287   3.866  11.066 -0.0119  0.1854 -0.1405
16186TIP3    H170049   2.365   3.919  11.080  0.3872 -0.9163  2.0283
16186TIP3    H270050   2.239   3.871  11.149 -2.0175  0.4512 -1.2729
16187TIP3   OH270051   5.942   6.008   3.407  0.1380 -0.3711 -0.0292
16187TIP3    H170052   5.936   5.913   3.404 -0.2536 -0.3568  0.1697
16187TIP3    H270053   5.980   6.033   3.323 -0.1318 -0.6820 -0.2455
16188TIP3   OH270054   4.191   0.639  13.914 -0.3002 -0.7558  0.5431
16188TIP3    H170055   4.142   0.720  13.895  0.1343  0.0260  2.6731
16188TIP3    H270056   4.259   0.666  13.975  2.0662 -2.0906 -1.4264
16189TIP3   OH270057   1.275   6.452   1.033 -0.4294  0.5121  0.4126
16189TIP3    H170058   1.239   6.386   0.974  0.2779 -1.4470  2.1175
16189TIP3    H270059   1.369   6.452   1.016 -0.5768  1.9884 -0.4569
16190TIP3   OH270060   0.702   4.371   3.452 -0.2965 -0.3338  0.1178
16190TIP3    H170061   0.713   4.466   3.456  1.6200 -0.5807  1.0416
16190TIP3    H270062   0.623   4.354   3.503 -0.6986  0.7654 -0.1163
16191TIP3   OH270063   5.707   1.436  15.726  0.4142 -0.1536 -0.6405
16191TIP3    H170064   5.738   1.415  15.638  3.2169  1.6052 -0.1335
16191TIP3    H270065   5.783   1.474  15.770 -0.8828 -1.1031  2.5983
16192TIP3   OH270066   2.731   5.158   1.896  0.4159  0.2652  0.5850
16192TIP3    H170067   2.743   5.142   1.990 -2.2082 -0.2987  0.8823
16192TIP3    H270068   2.728   5.254   1.889  0.3672  0.3050  1.1158
16193TIP3   OH270069   5.413   4.751  16.809  0.7253 -0.2969  0.1953
16193TIP3    H170070   5.439   4.686  16.743 -0.9611 -1.0356  0.2333
16193TIP3    H270071   5.379   4.699  16.882  0.3925  0.5941  0.6870
16194TIP3   OH270072   1.089   3.207  11.911  0.1571  0.4021  0.2521
16194TIP3    H170073   1.048   3.122  11.897 -0.2929  0.5826  0.4805
16194TIP3    H270074   1.111   3.238  11.823 -0.5281  0.4729  0.1068
16195TIP3   OH270075   1.770   2.621  16.325 -0.2071 -0.4509  0.6065
16195TIP3    H170076   1.827   2.625  16.402  2.0053 -0.3715 -0.9782
16195TIP3    H270077   1.808   2.551  16.271  1.1314  2.5628 -2.5651
16196TIP3   OH270078   3.103   0.305  12.916  0.1123 -0.1927  0.3583
16196TIP3    H170079   3.095   0.316  13.011 -1.5430  0.6561  0.1513
16196TIP3    H270080   3.191   0.271  12.903  0.2217 -0.6992  2.2347
16197TIP3   OH270081   3.460   1.699  15.764 -0.1966 -0.2948  0.2586
16197TIP3    H170082   3.548   1.723  15.793  0.2783 -2.8386  1.0369
16197TIP3    H270083   3.402   1.733  15.831  0.4502 -1.1807  1.2812
16198TIP3   OH270084   2.047   4.535  12.772 -0.2126 -0.6662 -0.2238
16198TIP3    H170085   2.137   4.560  12.794 -0.8657 -0.2538  2.0511
16198TIP3    H270086   2.043   4.442  12.794  0.4334 -1.3842 -2.9461
16199TIP3   OH270087   4.223   1.143  16.557 -0.2797  0.5030 -0.1178
16199TIP3    H170088   4.286   1.168  16.489  0.1788  1.9198  0.8083
16199TIP3    H270089   4.231   1.048  16.563  1.0631  0.5645 -0.7054
16200TIP3   OH270090   1.288   6.423  15.989 -0.2987  0.2092  0.0933
16200TIP3    H170091   1.345   6.431  15.913 -0.6607  0.1241 -0.1858
16200TIP3    H270092   1.211   6.377  15.957  1.5228 -4.0890  1.5513
16201TIP3   OH270093   0.679   5.142  15.085 -0.3235 -1.0727 -0.0090
16201TIP3    H170094   0.655   5.101  15.168  0.9571 -1.5315  0.1423
16201TIP3    H270095   0.770   5.169  15.097  0.7976 -3.6499 -2.2030
16202TIP3   OH270096   1.878   0.522   5.016  0.4292  0.3820 -0.3256
16202TIP3    H170097   1.973   0.517   5.027  0.6139  1.0710 -1.5877
16202TIP3    H270098   1.851   0.430   5.004  0.8948  0.1576  0.3372
16203TIP3   OH270099   6.265   2.095   0.802 -0.1986 -0.4677 -0.2021
16203TIP3    H170100   6.178   2.059   0.785 -0.0285 -1.4037  0.8789
16203TIP3    H270101   6.263   2.182   0.761 -1.7636 -0.3353  0.1077
16204TIP3   OH270102   6.459   6.657  17.077 -0.3109 -0.8029  0.0089
16204TIP3    H170103   6.384   6.614  17.037  0.3219 -1.1723 -0.7980
16204TIP3    H270104   6.523   6.665  17.007 -0.5524  1.8556  0.0372
16205TIP3   OH270105   0.506   3.887  16.757  0.4024 -0.4423  0.2903
16205TIP3    H170106   0.576   3.825  16.779  1.4505  0.4241 -0.5143
16205TIP3    H270107   0.548   3.973  16.761 -1.3339  0.3436  2.5535
16206TIP3   OH270108   5.270   4.632  10.744 -0.6659  0.7523  0.0916
16206TIP3    H170109   5.311   4.546  10.730 -1.8899  0.2376 -0.4424
16206TIP3    H270110   5.329   4.678  10.803  1.7920  0.8498 -2.3574
16207TIP3   OH270111   6.447   4.081  11.759  0.3234  0.4596 -0.7778
16207TIP3    H170112   6.372   4.069  11.701  1.3190 -1.0306 -1.7939
16207TIP3    H270113   6.425   4.032  11.838  0.5853 -0.6824 -1.4109
16208TIP3   OH270114   3.116   2.800  11.193 -0.4502  1.1559  0.0685
16208TIP3    H170115   3.194   2.841  11.228 -0.6350  2.3516 -0.8880
16208TIP3    H270116   3.137   2.782  11.101 -1.3451  1.6730 -0.2489
16209TIP3   OH270117   5.006   0.499  14.374  0.3722  0.4420 -0.1987
16209TIP3    H170118   4.962   0.559  14.314  0.7365 -2.0025 -3.0063
16209TIP3    H270119   5.099   0.520  14.366  0.2800  1.3364  0.9333
16210TIP3   OH270120   5.377   2.524   4.011  0.4763 -0.5176 -0.4251
16210TIP3    H170121   5.390   2.572   4.092 -0.7085 -1.5848  0.4149
16210TIP3    H270122   5.285   2.537   3.990  0.5375 -1.0681 -1.0600
16211TIP3   OH270123   3.223   6.681   5.764 -0.0338 -0.0558 -0.1972
16211TIP3    H170124   3.164   6.753   5.785 -1.0902 -0.7789 -0.6577
16211TIP3    H270125   3.222   6.625   5.842  1.0165  0.5779  0.2742
16212TIP3   OH270126   5.264   1.990  15.911  0.3145  0.3082 -0.2452
16212TIP3    H170127   5.199   1.978  15.842 -0.5523  0.3674  0.5481
16212TIP3    H270128   5.255   2.081  15.938  0.1230  0.0912  0.4529
16213TIP3   OH270129   6.033   1.114  11.065  0.2640  0.0706  0.0076
16213TIP3    H170130   6.098   1.084  11.002 -0.7534 -1.9600 -0.1220
16213TIP3    H270131   5.962   1.050  11.059 -1.6222  2.0483  0.3863
16214TIP3   OH270132   3.782   4.223   3.210  0.0651  0.1139 -0.1772
16214TIP3    H170133   3.739   4.286   3.152  0.6063  2.6674  2.0811
16214TIP3    H270134   3.719   4.152   3.219 -0.6809  0.4152 -2.5774
16215TIP3   OH270135   6.217   3.710   0.552  0.0930 -0.3245  0.5599
16215TIP3    H170136   6.164   3.630   0.554  0.9190 -1.0093 -2.3591
16215TIP3    H270137   6.264   3.710   0.635 -2.3863 -1.1182  2.0409
16216TIP3   OH270138   2.578   3.122  11.982 -0.1837  1.0082 -0.3120
16216TIP3    H170139   2.549   3.101  11.893  1.3163  2.0148 -1.0389
16216TIP3    H270140   2.642   3.192  11.971 -1.4819  2.5760  1.7290
16217TIP3   OH270141   2.806   5.582  15.491 -0.0135 -0.0144 -0.5914
16217TIP3    H170142   2.868   5.531  15.544 -0.6850 -0.8075 -0.5484
16217TIP3    H270143   2.721   5.542  15.509 -0.3358  0.0935 -1.8138
16218TIP3   OH270144   4.141   1.917   5.866  0.4457  0.2140  0.0262
16218TIP3    H170145   4.054   1.883   5.887 -0.4994  1.7814 -1.2551
16218TIP3    H270146   4.138   2.008   5.895  1.7029  0.2469  0.0574
16219TIP3   OH270147   0.360   3.587   4.741  0.2424  0.1905 -0.0093
16219TIP3    H170148   0.292   3.556   4.801  1.0367 -1.8969 -0.1539
16219TIP3    H270149   0.346   3.536   4.661  1.3961  0.4117 -0.3624
16220TIP3   OH270150   4.091   5.685   3.704  0.0057 -0.0267 -0.2783
16220TIP3    H170151   4.157   5.642   3.758 -1.2552 -0.2135  1.1679
16220TIP3    H270152   4.130   5.690   3.617  0.8853 -2.4642 -0.0519
16221TIP3   OH270153   0.489   4.965   2.388 -0.4387 -0.1387  0.4883
16221TIP3    H170154   0.429   5.028   2.349  1.4193  0.4058 -1.6605
16221TIP3    H270155   0.483   4.980   2.482  0.4684  3.7762  0.0019
16222TIP3   OH270156   5.083   1.990  11.296  0.0421 -0.0084 -0.3484
16222TIP3    H170157   5.176   1.974  11.281  0.1399  0.2785 -0.0595
16222TIP3    H270158   5.081   2.065  11.356 -0.3958  0.8718 -1.4527
16223TIP3   OH270159   1.614   3.317  11.806  0.2821  0.4503 -0.4722
16223TIP3    H170160   1.640   3.236  11.850 -0.6559  0.8083  0.7678
16223TIP3    H270161   1.668   3.384  11.847  1.1097  0.4603 -1.5496
16224TIP3   OH270162   4.809   1.380   2.978 -0.3249  0.0775 -0.0240
16224TIP3    H170163   4.778   1.290   2.973  0.0156 -0.0364 -0.0623
16224TIP3    H270164   4.830   1.394   3.070  0.4189 -0.1491 -0.1543
16225TIP3   OH270165   4.215   2.785  10.806 -0.5748  0.0043 -0.0999
16225TIP3    H170166   4.164   2.778  10.725  0.5276 -1.1216 -0.7268
16225TIP3    H270167   4.280   2.715  10.799  0.1764  0.5378  1.3103
16226TIP3   OH270168   5.878   4.220  13.836  0.5339 -0.5699 -0.0641
16226TIP3    H170169   5.920   4.253  13.757  0.7344 -0.9473 -0.1135
16226TIP3    H270170   5.826   4.146  13.806  1.6262 -1.5189  0.3674
16227TIP3   OH270171   1.640   1.262   0.469  0.4747 -0.3586  0.2223
16227TIP3    H170172   1.671   1.202   0.538 -1.3093 -0.7288  0.7244
16227TIP3    H270173   1.546   1.248   0.466  0.1821  1.6647 -0.4206
16228TIP3   OH270174   0.308   6.333  13.407  0.4989  0.2888 -0.2384
16228TIP3    H170175   0.401   6.353  13.408  0.5616  0.2215 -2.8000
16228TIP3    H270176   0.288   6.315  13.316 -1.9811  0.0370  0.3213
16229TIP3   OH270177   1.935   4.398  13.608  0.3155  0.0041 -0.1057
16229TIP3    H170178   2.004   4.459  13.631  0.4567  0.7832 -2.4839
16229TIP3    H270179   1.980   4.314  13.597  0.5246  0.0319  0.4831
16230TIP3   OH270180   0.233   2.483   0.277  0.5332 -0.4568 -0.2135
16230TIP3    H170181   0.213   2.513   0.365  1.4317 -0.8056  0.1204
16230TIP3    H270182   0.329   2.476   0.276  0.6609  1.2214 -1.7477
16231TIP3   OH270183   3.031   2.581   5.003  0.8913 -0.3075  0.3435
16231TIP3    H170184   3.085   2.503   4.988  0.2016 -0.3315 -2.3821
16231TIP3    H270185   3.059   2.643   4.936 -1.8542 -0.0301 -0.6110
16232TIP3   OH270186   0.741   4.406   0.487  0.3023 -0.3621  0.0363
16232TIP3    H170187   0.810   4.446   0.435  0.7051 -2.0013 -0.7162
16232TIP3    H270188   0.665   4.402   0.428 -0.4920  1.4903  0.8776
16233TIP3   OH270189   2.828   5.149   5.607  0.8213 -0.1945  0.5653
16233TIP3    H170190   2.898   5.213   5.616  0.0281  0.8091 -0.2633
16233TIP3    H270191   2.752   5.190   5.649 -0.3296  0.4482 -2.0235
16234TIP3   OH270192   0.869   3.021   1.846 -0.1978  0.0917 -0.5065
16234TIP3    H170193   0.847   3.069   1.926  1.2833 -1.3558  0.8040
16234TIP3    H270194   0.949   3.061   1.815  0.5250 -0.8867  0.0662
16235TIP3   OH270195   4.350   2.741  16.546  0.2727 -0.2991  0.0222
16235TIP3    H170196   4.359   2.808  16.614  0.4209 -1.3506  1.0663
16235TIP3    H270197   4.421   2.679  16.565 -0.4443 -1.2386 -0.3470
16236TIP3   OH270198   3.131   2.551  15.425 -0.1503  0.0250  0.8251
16236TIP3    H170199   3.206   2.506  15.464 -0.1899  2.2251  3.5583
16236TIP3    H270200   3.054   2.506  15.461 -0.2246 -1.0926 -0.6271
16237TIP3   OH270201   4.833   2.477   3.235 -0.6254 -0.1943  0.3606
16237TIP3    H170202   4.914   2.527   3.226  0.1001 -1.2287  0.9902
16237TIP3    H270203   4.768   2.527   3.186  0.4710  0.4676 -0.4427
16238TIP3   OH270204   3.863   6.729   3.971 -0.5555 -0.5506  0.2336
16238TIP3    H170205   3.865   6.739   4.066 -0.6472 -1.9100  0.3830
16238TIP3    H270206   3.774   6.750   3.946 -0.1528  1.2616  0.2765
16239TIP3   OH270207   6.518   2.484   0.242  0.3312 -0.7457  0.8814
16239TIP3    H170208   6.513   2.557   0.179 -0.1711  0.3027  2.1028
16239TIP3    H270209   6.495   2.407   0.191  1.1510 -0.0836 -0.5143
16240TIP3   OH270210   4.221   1.718  13.810  0.0500  0.2013 -0.3854
16240TIP3    H170211   4.155   1.673  13.862 -0.2781  1.8580  0.6917
16240TIP3    H270212   4.175   1.744  13.730 -0.2412  0.1869 -0.2233
16241TIP3   OH270213   3.134   6.447  15.724  0.4007 -0.4016  0.0815
16241TIP3    H170214   3.173   6.463  15.810  0.7329 -0.9571  0.0395
16241TIP3    H270215   3.122   6.352  15.721  1.2131 -0.4808 -0.8405
16242TIP3   OH270216   2.810   1.505  13.575  0.0919 -0.0672 -0.3799
16242TIP3    H170217   2.875   1.442  13.606 -1.4064 -0.9727  1.0405
16242TIP3    H270218   2.797   1.482  13.483  0.6126 -0.8999 -0.2556
16243TIP3   OH270219   0.097   1.504   4.862 -0.1918 -0.4799  0.5892
16243TIP3    H170220   0.004   1.507   4.881 -0.4856  0.4431 -0.9317
16243TIP3    H270221   0.108   1.430   4.802 -0.1407  0.1799 -0.2250
16244TIP3   OH270222   5.988   2.885   6.260  0.2115 -1.1258 -0.1742
16244TIP3    H170223   6.035   2.846   6.334  0.3294 -0.0741  0.3139
16244TIP3    H270224   6.053   2.889   6.189  1.4185  1.9382  1.0264
16245TIP3   OH270225   6.606   1.206  13.495  0.0962 -0.7715 -0.5744
16245TIP3    H170226   6.650   1.276  13.448  0.3829 -0.0419  0.7617
16245TIP3    H270227   6.611   1.231  13.587 -0.1329 -2.3487 -0.1043
16246TIP3   OH270228   4.992   2.402   0.772 -0.0406 -0.2953 -0.1190
16246TIP3    H170229   4.940   2.331   0.735  1.2730 -0.3008 -2.0042
16246TIP3    H270230   4.930   2.475   0.781 -0.7637 -0.8285 -0.7518
16247TIP3   OH270231   0.476   0.204   6.284  0.4372 -0.1926 -0.3976
16247TIP3    H170232   0.500   0.211   6.192 -1.8149  0.8021 -0.9380
16247TIP3    H270233   0.461   0.294   6.312 -1.0067 -0.6527  0.3478
16248TIP3   OH270234   3.748   3.724   3.154  0.1085  0.2088  0.3837
16248TIP3    H170235   3.776   3.667   3.083 -1.2736  0.2846 -0.2272
16248TIP3    H270236   3.718   3.664   3.222 -1.0169  0.1920 -0.1224
16249TIP3   OH270237   2.049   2.188  15.733 -0.4104  0.1629 -0.2258
16249TIP3    H170238   2.081   2.219  15.648 -1.7882  1.0047 -0.4647
16249TIP3    H270239   2.015   2.101  15.715 -0.0603  0.0628 -0.3978
16250TIP3   OH270240   0.132   6.374   5.601 -0.0251  0.0641 -0.0511
16250TIP3    H170241   0.104   6.286   5.575  1.1481 -0.0309 -1.0257
16250TIP3    H270242   0.087   6.390   5.684 -0.7327 -1.2066 -0.1819
16251TIP3   OH270243   1.479   4.992  12.370  0.2199  0.2964 -0.0574
16251TIP3    H170244   1.488   4.898  12.353 -1.1923  0.2190 -0.4581
16251TIP3    H270245   1.467   5.031  12.283 -0.1886  0.7188  0.1818
16252TIP3   OH270246   4.271   4.593  15.489 -0.2604 -0.3002 -0.8410
16252TIP3    H170247   4.183   4.563  15.512 -0.7987  2.0779  0.3451
16252TIP3    H270248   4.257   4.676  15.443  1.4258  1.4836  1.7287
16253TIP3   OH270249   6.118   4.787  15.040 -0.0661 -0.0172  0.2195
16253TIP3    H170250   6.029   4.800  15.009 -0.4876 -1.8040  0.6540
16253TIP3    H270251   6.109   4.769  15.133  0.6476 -1.3647  0.0405
16254TIP3   OH270252   5.632   0.825  16.744  0.3007 -1.0752 -0.7138
16254TIP3    H170253   5.586   0.764  16.801  0.5391 -0.4884  0.1147
16254TIP3    H270254   5.724   0.800  16.751  0.5293  0.0469  0.4672
16255TIP3   OH270255   1.176   0.828  15.587 -0.4969  0.0347  0.3644
16255TIP3    H170256   1.232   0.862  15.657 -0.0490 -0.9619  0.4926
16255TIP3    H270257   1.108   0.778  15.633 -0.7057  0.1104  0.1376
16256TIP3   OH270258   6.320   3.524  16.965 -0.4278  0.1500 -0.2967
16256TIP3    H170259   6.273   3.481  16.895  0.5569 -0.2984 -0.6963
16256TIP3    H270260   6.413   3.513  16.942 -0.0846 -0.2413  1.1939
16257TIP3   OH270261   4.545   3.656   2.753 -0.0909 -0.0880  0.2122
16257TIP3    H170262   4.511   3.682   2.838  1.2509 -0.8632  1.0089
16257TIP3    H270263   4.508   3.719   2.691 -1.7742 -0.0528  1.2389
16258TIP3   OH270264   0.560   2.170  16.929  0.0325 -0.4703  0.4759
16258TIP3    H170265   0.646   2.154  16.889 -0.0263 -1.5516  0.7920
16258TIP3    H270266   0.530   2.251  16.888  0.5072 -0.9282 -0.7890
16259TIP3   OH270267   0.657   0.829  11.562  0.5152  0.4718  0.1946
16259TIP3    H170268   0.602   0.773  11.507 -1.9235  2.0847  0.8754
16259TIP3    H270269   0.696   0.892  11.501 -0.1096  0.6333 -0.0456
16260TIP3   OH270270   6.145   5.766  11.650 -0.0679  0.1739 -0.6642
16260TIP3    H170271   6.066   5.819  11.650 -0.5584 -0.5453 -0.6803
16260TIP3    H270272   6.157   5.741  11.741  0.6812  1.0691 -0.5115
16261TIP3   OH270273   3.215   3.190   0.390  0.4672  0.0007  0.7993
16261TIP3    H170274   3.305   3.208   0.363  0.8035  0.0846  1.9872
16261TIP3    H270275   3.200   3.246   0.466 -1.1297  1.2087 -0.3472
16262TIP3   OH270276   1.839   2.027   1.821  0.3271  0.2203  0.7840
16262TIP3    H170277   1.780   2.093   1.784  0.1887 -0.7956 -0.8575
16262TIP3    H270278   1.796   1.943   1.802  0.6560 -0.3696  2.5658
16263TIP3   OH270279   6.660   2.131  16.745  0.4425  0.4572 -0.1042
16263TIP3    H170280   6.727   2.104  16.809  0.2276 -0.9756 -0.4748
16263TIP3    H270281   6.708   2.187  16.684  1.0413  0.4253  0.3239
16264TIP3   OH270282   5.363   0.311   2.468  0.1298 -0.2231  0.3196
16264TIP3    H170283   5.452   0.342   2.450 -0.2501  1.2790  0.9439
16264TIP3    H270284   5.355   0.317   2.563 -0.2572 -1.4211  0.3615
16265TIP3   OH270285   2.320   4.593  12.291  0.4175 -0.0556 -0.2935
16265TIP3    H170286   2.230   4.558  12.291  0.9378 -1.4717  1.1439
16265TIP3    H270287   2.375   4.515  12.284  1.5666  0.6180  1.0502
16266TIP3   OH270288   0.638   4.183   6.173  0.3895 -0.4906 -0.0251
16266TIP3    H170289   0.668   4.118   6.237 -0.0321 -2.3308 -1.6616
16266TIP3    H270290   0.590   4.247   6.226 -1.9214 -3.1684  1.2911
16267TIP3   OH270291   3.671   5.188  14.616  0.1786 -0.1436  0.8774
16267TIP3    H170292   3.722   5.238  14.680 -0.0554 -0.1565  1.0739
16267TIP3    H270293   3.730   5.179  14.540 -0.6054  2.4874 -0.1091
16268TIP3   OH270294   0.422   0.416  17.110 -0.5233  0.1813  0.0842
16268TIP3    H170295   0.421   0.505  17.144 -0.6444  0.9645 -1.8679
16268TIP3    H270296   0.336   0.406  17.069 -0.4008 -0.7275  0.0478
16269TIP3   OH270297   0.375   6.057  16.295  0.5828  0.0928  0.2533
16269TIP3    H170298   0.393   6.046  16.202 -0.3065  0.0460  0.0769
16269TIP3    H270299   0.291   6.104  16.298  0.3128 -0.4294  1.0262
16270TIP3   OH270300   4.294   2.252   1.993 -0.4593  0.1965 -0.1159
16270TIP3    H170301   4.299   2.330   1.939  2.7931 -0.2632 -0.5788
16270TIP3    H270302   4.315   2.282   2.081 -0.2352  0.0489 -0.1159
16271TIP3   OH270303   2.506   3.164  11.150  0.0454  0.1785  0.1226
16271TIP3    H170304   2.449   3.112  11.093  0.9307 -0.0762 -0.5504
16271TIP3    H270305   2.494   3.126  11.237  1.8612 -2.2131 -0.6174
16272TIP3   OH270306   3.038   4.069   5.906 -0.1398 -0.5150 -0.0280
16272TIP3    H170307   2.976   4.002   5.878  1.1773 -1.9912  0.5007
16272TIP3    H270308   3.005   4.098   5.991 -0.2710 -1.0706  0.1139
16273TIP3   OH270309   6.020   4.779   0.175  0.7692  0.5766  0.3337
16273TIP3    H170310   6.067   4.722   0.114  0.6196 -0.9678  1.6473
16273TIP3    H270311   5.931   4.782   0.140  1.0561  0.9623 -0.3842
16274TIP3   OH270312   6.182   0.488   6.025 -0.5571 -0.4191  0.4650
16274TIP3    H170313   6.265   0.527   6.000 -1.4501  0.1403 -1.7468
16274TIP3    H270314   6.179   0.405   5.977 -0.4530 -1.3307  2.0057
16275TIP3   OH270315   3.739   6.353  15.911 -0.1757 -0.1179  0.6053
16275TIP3    H170316   3.677   6.426  15.919  1.9362  1.9752 -1.1753
16275TIP3    H270317   3.803   6.368  15.980 -0.2024 -0.7720  0.7719
16276TIP3   OH270318   3.261   1.333  15.869  0.1570  0.7394  0.3597
16276TIP3    H170319   3.250   1.361  15.778 -0.8026 -0.4510  0.1011
16276TIP3    H270320   3.297   1.245  15.863 -0.1738  0.5466  1.1383
16277TIP3   OH270321   1.709   2.390  15.348  0.0297  0.1141 -0.0699
16277TIP3    H170322   1.746   2.323  15.290 -0.1874  1.4652 -1.8179
16277TIP3    H270323   1.759   2.469  15.327 -1.0064  0.9496  0.5749
16278TIP3   OH270324   0.064   0.206   5.680  0.4368 -0.3239  0.0258
16278TIP3    H170325  -0.005   0.268   5.704  1.4373  0.8598 -0.1583
16278TIP3    H270326   0.094   0.171   5.763  0.3833 -0.0261  0.1694
16279TIP3   OH270327   3.407   1.183   1.616  0.3019 -0.2540  0.3116
16279TIP3    H170328   3.411   1.114   1.682  0.8163 -1.6472 -1.1267
16279TIP3    H270329   3.317   1.178   1.582  0.8108 -1.3489 -0.9313
16280TIP3   OH270330   4.980   5.179   4.743  0.1855 -0.0586  0.0738
16280TIP3    H170331   4.912   5.146   4.802 -2.0278  0.3674 -2.1644
16280TIP3    H270332   4.984   5.273   4.763 -0.1577 -0.0171 -0.0375
16281TIP3   OH270333   4.972   2.578   4.776  0.0337  0.1814 -0.2662
16281TIP3    H170334   4.965   2.489   4.813  1.3471 -0.0647 -0.5701
16281TIP3    H270335   4.973   2.635   4.853 -0.0499 -0.1231 -0.0352
16282TIP3   OH270336   6.750   2.037   1.828 -0.0332  0.2870 -0.0302
16282TIP3    H170337   6.700   2.079   1.898 -0.4271  1.4983 -1.0232
16282TIP3    H270338   6.708   1.952   1.816 -1.4096  1.0103 -0.3630
16283TIP3   OH270339   4.626   4.396   2.662  0.3537  0.3965  0.2653
16283TIP3    H170340   4.604   4.364   2.749 -2.5454  2.0899  0.2091
16283TIP3    H270341   4.698   4.458   2.677 -0.2263  0.7946  1.4812
16284TIP3   OH270342   2.576   1.689  11.178  0.5299  0.1343  0.2660
16284TIP3    H170343   2.534   1.640  11.106  1.1797 -1.1875  0.7696
16284TIP3    H270344   2.537   1.776  11.173 -1.5139 -0.7481  0.0545
16285TIP3   OH270345   2.591   2.652  14.899 -0.2299 -0.3213  0.6909
16285TIP3    H170346   2.639   2.702  14.965  1.1889 -1.8967  0.8835
16285TIP3    H270347   2.615   2.692  14.816 -0.1661  0.1741  0.9482
16286TIP3   OH270348   4.121   0.548   5.836  0.2947  0.2222 -0.7112
16286TIP3    H170349   4.049   0.495   5.869  2.1155 -1.2158  1.1145
16286TIP3    H270350   4.135   0.517   5.746 -0.2299 -0.7152 -0.4746
16287TIP3   OH270351   3.946   4.099   3.397 -0.3835  0.2233  0.4447
16287TIP3    H170352   3.892   4.062   3.467 -0.3990  1.2164  0.9655
16287TIP3    H270353   3.886   4.156   3.348  0.1534  1.2289  0.9457
16288TIP3   OH270354   0.806   3.941   5.665  0.4601 -0.4676 -0.2018
16288TIP3    H170355   0.748   3.912   5.594  0.6385  1.7075 -1.2533
16288TIP3    H270356   0.871   3.996   5.622  1.4856 -0.3668  1.4444
16289TIP3   OH270357   2.724   4.831  14.233  0.1071 -0.2012  0.3528
16289TIP3    H170358   2.755   4.916  14.203 -0.0448 -1.1269 -2.5766
16289TIP3    H270359   2.631   4.831  14.212  0.0762 -1.0115  0.4827
16290TIP3   OH270360   5.098   5.616  14.579  0.3508 -0.1899 -0.2389
16290TIP3    H170361   5.091   5.568  14.497  0.8417 -0.2275 -0.2614
16290TIP3    H270362   5.077   5.706  14.556  2.4295  0.1721 -0.8056
16291TIP3   OH270363   2.885   0.147   3.463 -0.2833 -0.0228 -0.0177
16291TIP3    H170364   2.819   0.165   3.395  0.5576 -0.8869 -1.0948
16291TIP3    H270365   2.843   0.084   3.521 -0.4868 -0.4184 -0.5870
16292TIP3   OH270366   5.613   1.649  17.235  0.2684 -0.1355  0.2332
16292TIP3    H170367   5.586   1.587  17.166  0.3423  0.4324 -0.3087
16292TIP3    H270368   5.645   1.725  17.187  0.9328  0.0048  0.9049
16293TIP3   OH270369   4.767   0.083   0.736 -0.2797 -0.6776  0.3417
16293TIP3    H170370   4.839   0.068   0.675  0.3314 -0.6481  1.0375
16293TIP3    H270371   4.724   0.162   0.704  0.2931 -0.4284  0.1825
16294TIP3   OH270372   1.158   4.851   3.296  0.5073 -0.6779 -0.1846
16294TIP3    H170373   1.196   4.803   3.369  1.4403 -0.2176 -0.3642
16294TIP3    H270374   1.117   4.783   3.241  1.2183 -1.1946 -0.0793
16295TIP3   OH270375   1.021   6.659  12.958 -0.1353  0.0010 -0.6283
16295TIP3    H170376   1.064   6.735  12.997 -1.1046  0.7095 -0.8931
16295TIP3    H270377   0.954   6.697  12.901 -0.5812 -1.0580 -0.8252
16296TIP3   OH270378   0.207   4.820  15.098  0.1205  0.0481 -0.3843
16296TIP3    H170379   0.130   4.848  15.148  0.6574  1.6215 -0.4182
16296TIP3    H270380   0.209   4.878  15.022  2.6131  1.5487  0.7600
16297TIP3   OH270381   0.736   2.358  12.870  0.9234  0.3233  0.1646
16297TIP3    H170382   0.643   2.368  12.892  0.7138 -1.3534  0.0875
16297TIP3    H270383   0.776   2.323  12.949  0.8318 -2.2638 -0.8888
16298TIP3   OH270384   5.424   1.072  17.110  0.0931 -0.9079 -0.2946
16298TIP3    H170385   5.400   0.984  17.139 -1.0882 -0.7524 -0.8049
16298TIP3    H270386   5.348   1.104  17.064 -0.3714  1.2780  1.8710
16299TIP3   OH270387   2.991   6.226   5.759  0.2325  0.0215 -0.0053
16299TIP3    H170388   3.065   6.188   5.808 -0.1824 -1.3764 -0.4201
16299TIP3    H270389   2.994   6.182   5.674 -1.7762 -0.9295  0.3872
16300TIP3   OH270390   3.096   0.928  11.994  0.1895 -0.2779 -0.4153
16300TIP3    H170391   3.065   1.001  11.940  0.5971 -0.3400 -0.7336
16300TIP3    H270392   3.021   0.868  11.998  0.3124 -0.4910 -1.2949
16301TIP3   OH270393   6.438   3.699  12.051  0.0712  0.3594  0.6537
16301TIP3    H170394   6.358   3.651  12.031 -0.1735  0.9559  0.1890
16301TIP3    H270395   6.486   3.642  12.111 -0.1486 -0.5311 -0.0089
16302TIP3   OH270396   6.003   3.221   3.361 -0.2439 -0.3171 -0.3775
16302TIP3    H170397   5.933   3.285   3.375  0.6776  0.5604  0.3775
16302TIP3    H270398   6.009   3.173   3.443  0.0605 -0.3515 -0.4176
16303TIP3   OH270399   4.869   1.335  15.269 -0.3854 -0.1441  0.0226
16303TIP3    H170400   4.786   1.383  15.279  0.0258  0.7453 -0.7719
16303TIP3    H270401   4.880   1.326  15.174  0.5851  0.0040  0.1248
16304TIP3   OH270402   2.931   4.774  17.050  0.2690 -0.1147 -0.2111
16304TIP3    H170403   2.989   4.701  17.067 -0.0605 -0.1203  0.9377
16304TIP3    H270404   2.846   4.734  17.032  0.0362 -0.0110  0.6422
16305TIP3   OH270405   4.142   6.691  14.723  0.0833  0.0187  0.2020
16305TIP3    H170406   4.107   6.754  14.660 -0.8890 -0.0836  0.6256
16305TIP3    H270407   4.147   6.608  14.675 -0.5928 -0.0435  0.2290
16306TIP3   OH270408   0.822   4.574   5.349 -0.3256 -0.3051 -0.2539
16306TIP3    H170409   0.789   4.546   5.434 -1.8757  0.8099 -0.4820
16306TIP3    H270410   0.747   4.613   5.305  1.0810  1.5046 -1.1103
16307TIP3   OH270411   4.777   5.000   3.086 -0.4748 -0.1899 -0.1851
16307TIP3    H170412   4.826   4.955   3.017 -1.7790 -0.8199 -0.7329
16307TIP3    H270413   4.725   4.930   3.127 -0.8706  0.4495  0.4135
16308TIP3   OH270414   4.202   3.166  16.971  0.6297  0.0827  0.5348
16308TIP3    H170415   4.144   3.233  16.936  1.3935  0.8759  0.7812
16308TIP3    H270416   4.152   3.126  17.043 -0.9631 -1.5954 -1.4337
16309TIP3   OH270417   6.456   6.142  11.909  0.0593 -0.3701 -0.5524
16309TIP3    H170418   6.429   6.054  11.883 -0.5411 -0.3259 -0.1084
16309TIP3    H270419   6.380   6.197  11.888 -0.1915 -0.2330  0.6914
16310TIP3   OH270420   4.972   5.945  11.636  0.3222  0.0244 -0.5499
16310TIP3    H170421   4.895   5.902  11.674  2.1396 -2.3054  0.6296
16310TIP3    H270422   4.971   6.033  11.674 -1.2248 -0.2917  0.1894
16311TIP3   OH270423   1.576   6.379  13.085 -0.0785 -0.1719  0.1310
16311TIP3    H170424   1.666   6.368  13.114 -0.0433 -0.1291  0.0387
16311TIP3    H270425   1.581   6.445  13.015 -0.2477  0.1980  0.4645
16312TIP3   OH270426   3.284   0.141  11.710 -0.1906  0.5133  0.5926
16312TIP3    H170427   3.250   0.111  11.626  1.0904 -3.5069  1.4351
16312TIP3    H270428   3.337   0.218  11.688 -0.0528 -0.3357 -2.2433
16313TIP3   OH270429   4.751   2.969   2.901 -0.9695 -0.0885 -0.0010
16313TIP3    H170430   4.751   2.927   2.815  1.6073 -0.3898  0.1039
16313TIP3    H270431   4.699   3.048   2.890 -1.9735 -0.9340 -1.4201
16314TIP3   OH270432   2.242   1.278   2.654  0.1971  0.5475 -0.3710
16314TIP3    H170433   2.298   1.355   2.643  0.4717  0.2018 -1.4865
16314TIP3    H270434   2.223   1.275   2.748  1.6384  0.9640 -0.0537
16315TIP3   OH270435   2.711   3.072   5.535  0.4508  0.4501 -0.0894
16315TIP3    H170436   2.729   3.044   5.625 -0.6828 -1.0480 -0.2986
16315TIP3    H270437   2.783   3.036   5.483  2.6196  3.6948  0.5908
16316TIP3   OH270438   5.513   2.042   0.548  0.0634  0.8295 -0.0063
16316TIP3    H170439   5.527   1.993   0.467 -0.0823 -0.6031  0.8188
16316TIP3    H270440   5.502   1.975   0.615 -1.2037  1.9770  0.9743
16317TIP3   OH270441   3.091   5.542  11.854 -0.1350 -0.2966 -0.1276
16317TIP3    H170442   3.091   5.476  11.924 -0.3955 -1.0493 -0.8324
16317TIP3    H270443   3.037   5.503  11.785  0.2859  0.3670 -0.8277
16318TIP3   OH270444   2.578   2.050   3.342  0.3459 -0.1857  0.5746
16318TIP3    H170445   2.659   2.100   3.357  0.8039 -0.8089  0.1829
16318TIP3    H270446   2.605   1.959   3.346 -0.6300 -0.4343  2.1057
16319TIP3   OH270447   6.228   3.746  16.304  0.2595  0.6782 -0.0894
16319TIP3    H170448   6.249   3.838  16.320 -0.8897  1.0341 -0.5972
16319TIP3    H270449   6.290   3.718  16.238  2.3917  0.3294  1.9970
16320TIP3   OH270450   2.641   2.076   5.465 -0.0825 -0.8814  0.3316
16320TIP3    H170451   2.601   2.123   5.538 -0.4406  0.2039 -0.5335
16320TIP3    H270452   2.704   2.017   5.505  0.0142 -0.0027  1.4816
16321TIP3   OH270453   4.808   6.505   2.277 -0.5343 -0.1465 -0.1704
16321TIP3    H170454   4.825   6.428   2.223  0.2218  1.2591 -2.0297
16321TIP3    H270455   4.735   6.480   2.334  0.1478 -2.4306 -0.2711
16322TIP3   OH270456   1.515   6.164   3.394 -0.4279 -0.2588  0.4866
16322TIP3    H170457   1.499   6.255   3.368  0.1596 -0.0732  0.7665
16322TIP3    H270458   1.515   6.166   3.490  2.5917  0.0143  0.5416
16323TIP3   OH270459   3.482   2.034   2.388  0.4067 -0.9426 -0.8496
16323TIP3    H170460   3.489   2.085   2.469 -0.4971 -1.3434 -0.5117
16323TIP3    H270461   3.517   1.948   2.411  2.1042 -0.4414 -1.4696
16324TIP3   OH270462   6.486   2.601  16.952 -0.2020 -0.3928 -0.3056
16324TIP3    H170463   6.472   2.694  16.937  1.3672  0.0847  1.0175
16324TIP3    H270464   6.561   2.597  17.012  1.5308 -2.6117 -2.5304
16325TIP3   OH270465   5.517   4.060  11.070  0.0228 -0.2346  0.1019
16325TIP3    H170466   5.569   3.994  11.024  0.7407 -0.8122  1.7063
16325TIP3    H270467   5.452   4.088  11.005  1.7163 -0.1827 -1.6267
16326TIP3   OH270468   4.671   0.241   2.115  0.0333 -0.2044  0.3829
16326TIP3    H170469   4.663   0.315   2.055 -0.2767  0.7190  1.5414
16326TIP3    H270470   4.764   0.217   2.111 -0.0461 -0.3415 -0.6846
16327TIP3   OH270471   6.015   4.302  14.816  0.0799 -0.1146 -0.1076
16327TIP3    H170472   6.016   4.208  14.838  0.9491  0.1270  0.9206
16327TIP3    H270473   5.963   4.342  14.885  0.5583  0.2950  0.0163
16328TIP3   OH270474   6.182   6.088   3.071  0.1320 -0.1100 -0.2942
16328TIP3    H170475   6.087   6.095   3.065  0.2183 -0.1490 -1.8893
16328TIP3    H270476   6.209   6.056   2.985  1.5495 -0.5289  0.2933
16329TIP3   OH270477   3.253   2.193  15.440 -0.0302 -0.4326 -0.5267
16329TIP3    H170478   3.311   2.186  15.363  0.9576 -0.0852  0.1763
16329TIP3    H270479   3.292   2.262  15.493 -1.2137 -0.0508 -0.1263
16330TIP3   OH270480   6.505   5.366   2.774  0.0892  0.7065  0.1966
16330TIP3    H170481   6.549   5.405   2.850  1.3562  0.0018 -0.1573
16330TIP3    H270482   6.566   5.381   2.701  0.0748 -0.9165 -0.1678
16331TIP3   OH270483   4.701   4.365   5.968 -0.4796 -0.3419  0.0408
16331TIP3    H170484   4.765   4.345   6.037  0.4519  0.9683 -0.4331
16331TIP3    H270485   4.753   4.403   5.897 -1.5238 -1.0372 -1.1280
16332TIP3   OH270486   4.953   2.344   4.279 -0.7194  0.2526 -0.6706
16332TIP3    H170487   5.003   2.298   4.346  0.3602  1.3402 -0.7169
16332TIP3    H270488   4.951   2.435   4.308 -1.1732  0.5372 -1.5718
16333TIP3   OH270489   2.632   1.432  10.873 -0.1465 -0.0829 -0.0484
16333TIP3    H170490   2.561   1.484  10.910  1.0111 -0.0789  2.3133
16333TIP3    H270491   2.590   1.370  10.813 -2.0882  0.1011  1.1064
16334TIP3   OH270492   6.540   5.713   4.303  0.0745  0.2609  0.1881
16334TIP3    H170493   6.446   5.725   4.313  0.3198  1.1571  1.4436
16334TIP3    H270494   6.574   5.713   4.392  1.0988 -1.4908 -0.1887
16335TIP3   OH270495   6.692   6.633  15.130 -0.2212 -0.2008 -0.0280
16335TIP3    H170496   6.624   6.605  15.069 -0.3303  0.6453 -0.3089
16335TIP3    H270497   6.751   6.558  15.139 -0.1321 -0.2734 -1.2699
16336TIP3   OH270498   1.240   1.651   5.145 -0.5803  0.7625  0.3634
16336TIP3    H170499   1.297   1.724   5.119  0.1913 -0.0008 -0.0891
16336TIP3    H270500   1.268   1.578   5.091 -0.7680 -0.1202  1.4395
16337TIP3   OH270501   0.673   0.033  16.246  0.0671  0.4753 -0.0819
16337TIP3    H170502   0.617   0.108  16.268 -2.1406 -1.3574  0.6659
16337TIP3    H270503   0.647   0.010  16.157 -0.8690 -0.8318  0.5320
16338TIP3   OH270504   3.877   0.272   1.428  0.7276  0.3362 -0.6816
16338TIP3    H170505   3.952   0.321   1.395  0.5734  0.6995 -0.4998
16338TIP3    H270506   3.908   0.232   1.510  0.1311  2.1309  0.4473
16339TIP3   OH270507   6.584   5.541  13.209 -0.0147  0.2245  0.3388
16339TIP3    H170508   6.618   5.454  13.189  0.4685  0.2686  0.9684
16339TIP3    H270509   6.524   5.560  13.137 -1.6678 -1.4532  1.2332
16340TIP3   OH270510   5.295   1.624  14.740 -0.3301 -0.4922 -0.5013
16340TIP3    H170511   5.237   1.564  14.788  0.7846 -0.2479  1.2171
16340TIP3    H270512   5.298   1.703  14.795 -1.0007  0.7698 -2.2498
16341TIP3   OH270513   4.481   3.657   3.033 -0.1595  0.2427  0.1087
16341TIP3    H170514   4.564   3.610   3.045  0.9841  1.6233 -2.0603
16341TIP3    H270515   4.415   3.588   3.025  0.6180 -0.8657  2.5705
16342TIP3   OH270516   6.139   4.736   1.918 -0.1168  0.3681  0.3869
16342TIP3    H170517   6.176   4.823   1.928 -3.8701  2.2971 -1.3290
16342TIP3    H270518   6.128   4.725   1.824  1.1074 -2.3748  0.5015
16343TIP3   OH270519   0.841   6.667  15.086  0.4086  0.2752 -0.1502
16343TIP3    H170520   0.902   6.660  15.160  1.2757 -0.1917 -0.8968
16343TIP3    H270521   0.844   6.759  15.061 -0.9548  0.7341  1.2726
16344TIP3   OH270522   4.820   2.594  14.503  0.1184 -0.4290 -0.1833
16344TIP3    H170523   4.881   2.554  14.564  0.0705  0.0602  0.1888
16344TIP3    H270524   4.849   2.685  14.495  1.4379 -1.0376 -2.5922
16345TIP3   OH270525   4.510   6.776   1.329  0.0238 -0.3294 -0.1873
16345TIP3    H170526   4.535   6.860   1.368 -0.3712  0.4431 -1.5366
16345TIP3    H270527   4.593   6.729   1.317  0.2578 -0.0786  0.4625
16346TIP3   OH270528   5.045   5.322   2.392 -0.4014 -0.2817 -0.1439
16346TIP3    H170529   5.090   5.403   2.414  0.3662 -0.5771 -0.6096
16346TIP3    H270530   5.054   5.268   2.471  2.6822 -1.4858 -1.2311
16347TIP3   OH270531   2.984   0.652  14.500 -0.0323  0.2528 -0.2021
16347TIP3    H170532   3.048   0.588  14.533  0.1488  0.9852  0.9006
16347TIP3    H270533   3.027   0.737  14.514 -1.0358  0.7155  0.0616
16348TIP3   OH270534   6.200   1.261  16.246  0.1366  0.0298 -0.3185
16348TIP3    H170535   6.176   1.227  16.332  1.4403 -1.8975 -0.6826
16348TIP3    H270536   6.295   1.257  16.244  0.0637 -2.2221 -2.6817
16349TIP3   OH270537   1.551   3.845   3.757 -0.2533  0.5786 -0.1530
16349TIP3    H170538   1.456   3.834   3.763  0.0497 -1.2092  1.8757
16349TIP3    H270539   1.587   3.757   3.766  1.7250  1.5671  2.5900
16350TIP3   OH270540   0.013   1.135  17.173 -0.1383  0.4186  0.3525
16350TIP3    H170541   0.077   1.203  17.193  1.0328 -0.6010  0.1997
16350TIP3    H270542   0.004   1.139  17.077  0.0339  0.2853  0.3288
16351TIP3   OH270543   5.208   3.027   0.789 -0.4481 -0.3542 -0.0923
16351TIP3    H170544   5.157   3.047   0.711 -1.2292  1.8940  0.9529
16351TIP3    H270545   5.177   3.089   0.855 -0.8193 -3.1162  2.4579
16352TIP3   OH270546   1.386   2.511   5.504  1.2933 -0.1739  0.1508
16352TIP3    H170547   1.322   2.443   5.483  1.4305 -0.6521  1.2567
16352TIP3    H270548   1.444   2.471   5.568  0.9843  1.1961  1.3075
16353TIP3   OH270549   1.816   0.203  16.785 -0.3227 -0.0065 -0.0783
16353TIP3    H170550   1.807   0.208  16.690  0.7879  3.1036 -0.0777
16353TIP3    H270551   1.759   0.272  16.818  0.6021  0.0559  1.4340
16354TIP3   OH270552   0.457   5.857  11.113 -0.1697 -0.0132 -0.2236
16354TIP3    H170553   0.527   5.881  11.053 -0.3304  0.0200 -0.4004
16354TIP3    H270554   0.379   5.900  11.076 -0.4084 -0.5862 -0.3876
16355TIP3   OH270555   4.330   0.134  14.728 -0.0200  0.2195 -0.7639
16355TIP3    H170556   4.265   0.124  14.658  0.0037 -1.5267 -0.5545
16355TIP3    H270557   4.297   0.206  14.781 -0.6662  0.7697 -1.8901
16356TIP3   OH270558   2.534   4.745   2.923  0.0304 -0.1274 -0.2373
16356TIP3    H170559   2.542   4.837   2.949 -1.1359  0.9664 -3.4653
16356TIP3    H270560   2.462   4.711   2.977 -0.0587  1.0556  0.4026
16357TIP3   OH270561   0.315   6.671  13.467  0.9615  0.3261  0.2432
16357TIP3    H170562   0.409   6.668  13.452  1.1064  0.1350  1.1067
16357TIP3    H270563   0.288   6.759  13.442  1.6240  0.8543  1.3572
16358TIP3   OH270564   0.362   5.623   1.588 -0.2960  0.6416  0.4295
16358TIP3    H170565   0.413   5.692   1.631 -1.5361  1.3704  0.7531
16358TIP3    H270566   0.424   5.580   1.529  0.3981  2.2616 -0.0270
16359TIP3   OH270567   2.299   4.733  16.244 -0.7204 -0.0218  0.1812
16359TIP3    H170568   2.381   4.738  16.293 -0.7540 -0.1452  0.2481
16359TIP3    H270569   2.327   4.729  16.152 -0.6655  0.5183  0.1695
16360TIP3   OH270570   6.420   0.573  12.087  0.2275 -0.3944 -0.3818
16360TIP3    H170571   6.457   0.611  12.167  0.4162 -1.2527 -0.0449
16360TIP3    H270572   6.378   0.492  12.117  0.8401 -1.0452 -1.2396
16361TIP3   OH270573   0.913   1.268  11.755  0.0486  0.0571 -0.3055
16361TIP3    H170574   0.977   1.333  11.724  0.5426 -0.8179 -1.1563
16361TIP3    H270575   0.837   1.320  11.779  0.9559  1.0916  0.4064
16362TIP3   OH270576   6.773   4.293  12.021  0.7019 -0.6461  0.2505
16362TIP3    H170577   6.690   4.337  12.004  2.3279  1.9551 -1.4340
16362TIP3    H270578   6.768   4.211  11.972 -1.0920 -0.8067  0.6879
16363TIP3   OH270579   4.597   4.752   2.008 -0.2248  0.7017 -0.2583
16363TIP3    H170580   4.589   4.837   1.966  1.7000  0.4867 -1.1289
16363TIP3    H270581   4.690   4.744   2.029 -0.5415 -0.7855  0.6566
16364TIP3   OH270582   2.480   0.938   0.050  0.3107 -0.1437 -0.4144
16364TIP3    H170583   2.534   1.000   0.098 -0.8451  0.6579 -0.1110
16364TIP3    H270584   2.450   0.986  -0.027 -0.0965 -0.5214 -0.4946
16365TIP3   OH270585   2.237   3.015   5.501 -0.2781  0.4756 -0.0994
16365TIP3    H170586   2.161   3.007   5.444  0.0308 -0.2548 -0.4091
16365TIP3    H270587   2.310   2.982   5.449  0.0450  0.0293  0.6323
16366TIP3   OH270588   1.774   2.413  11.715 -0.8207  0.2311  0.2919
16366TIP3    H170589   1.681   2.435  11.725 -0.8902 -0.0720  0.3421
16366TIP3    H270590   1.803   2.394  11.804 -0.8142 -0.0689  0.2265
16367TIP3   OH270591   0.260   6.386   6.422  0.3338  0.1403 -0.5272
16367TIP3    H170592   0.226   6.460   6.372  0.1967  1.0677  0.9037
16367TIP3    H270593   0.187   6.360   6.479  0.7533 -0.3414 -0.2006
16368TIP3   OH270594   2.231   1.518  14.937 -0.1734 -0.4432  0.7018
16368TIP3    H170595   2.174   1.447  14.907  0.3830 -1.0938  1.1484
16368TIP3    H270596   2.256   1.565  14.857 -0.6446 -0.6797  0.4148
16369TIP3   OH270597   2.266   3.833   2.236  0.4954  0.1708  0.4902
16369TIP3    H170598   2.323   3.877   2.172 -0.9238 -2.0575 -2.4394
16369TIP3    H270599   2.326   3.792   2.298  1.9843  0.8278 -0.4839
16370TIP3   OH270600   6.758   5.425   1.924 -0.2745  0.2078  0.1693
16370TIP3    H170601   6.679   5.384   1.889 -0.5302  1.2876 -0.5469
16370TIP3    H270602   6.778   5.375   2.003 -0.5995 -1.2617 -0.6575
16371TIP3   OH270603   5.967   1.750   2.023 -0.3589  0.1578 -0.3133
16371TIP3    H170604   5.962   1.843   2.003 -3.3116  0.0550 -0.2199
16371TIP3    H270605   5.935   1.707   1.944 -2.4084 -0.6085  0.8854
16372TIP3   OH270606   5.106   6.154   0.185  0.8141 -0.3378  0.1203
16372TIP3    H170607   5.166   6.224   0.209  0.0417  0.6063 -0.6295
16372TIP3    H270608   5.040   6.197   0.130 -0.9251 -1.1909  1.4553
16373TIP3   OH270609   3.845   6.619  16.398  0.0434  0.4443  0.1286
16373TIP3    H170610   3.929   6.583  16.427 -0.1382 -1.2226 -1.3270
16373TIP3    H270611   3.800   6.643  16.478  1.0571 -0.6138  1.0378
16374TIP3   OH270612   3.263   3.779   1.133 -0.3738 -0.9225 -0.3990
16374TIP3    H170613   3.357   3.767   1.145 -0.4790 -0.2136  1.2252
16374TIP3    H270614   3.256   3.861   1.084 -0.1309 -1.2036 -0.9082
16375TIP3   OH270615   6.220   4.668  15.762 -0.0037 -0.2475  0.3781
16375TIP3    H170616   6.289   4.695  15.701  1.0585 -0.2995  1.5470
16375TIP3    H270617   6.210   4.574  15.745  1.3219 -0.5667  1.2887
16376TIP3   OH270618   3.294   4.521   0.343  0.1646 -0.0264  0.2447
16376TIP3    H170619   3.287   4.467   0.264  1.0442  1.6469 -0.9985
16376TIP3    H270620   3.388   4.530   0.358 -0.0003 -1.3580  2.2293
16377TIP3   OH270621   4.403   5.885   1.052 -0.5938  0.3339  0.1173
16377TIP3    H170622   4.496   5.908   1.056 -0.7052  0.8231 -0.1326
16377TIP3    H270623   4.400   5.792   1.077  0.1273 -0.0872 -1.2996
16378TIP3   OH270624   0.103   3.841  11.767  0.6316  0.0056 -0.4795
16378TIP3    H170625   0.102   3.765  11.825 -1.9985 -0.7084 -1.4162
16378TIP3    H270626   0.134   3.806  11.683  0.0243  0.0970 -0.7417
16379TIP3   OH270627   3.534   6.037  12.289 -0.3082  0.1167  0.1894
16379TIP3    H170628   3.459   6.059  12.344  0.6774  0.3739  1.4554
16379TIP3    H270629   3.538   6.108  12.225  0.0617  1.2214  1.3898
16380TIP3   OH270630   0.532   5.836  15.233  0.0220 -0.1828  0.4468
16380TIP3    H170631   0.444   5.808  15.210  0.2262 -1.1020  0.7465
16380TIP3    H270632   0.581   5.754  15.244  0.4900  0.2782  1.9209
16381TIP3   OH270633   1.657   2.730  13.882  0.0558  0.0142 -0.4700
16381TIP3    H170634   1.596   2.726  13.956 -0.9745  1.0386 -1.2421
16381TIP3    H270635   1.705   2.811  13.896 -1.0636  0.8802 -1.6259
16382TIP3   OH270636   2.290   1.311  13.901 -0.1886  0.3778 -0.1489
16382TIP3    H170637   2.328   1.369  13.835  0.3753  0.9127  0.6456
16382TIP3    H270638   2.243   1.370  13.961  0.9569  0.0896  1.0503
16383TIP3   OH270639   4.897   6.795   3.110 -0.0829 -0.1318 -0.4024
16383TIP3    H170640   4.990   6.815   3.120 -0.4189  1.0875  0.4493
16383TIP3    H270641   4.861   6.802   3.199 -0.6977 -2.1429 -0.4709
16384TIP3   OH270642   5.286   6.189   5.678 -0.6855  0.1492  0.6949
16384TIP3    H170643   5.297   6.248   5.603 -2.8047 -0.0831  0.1717
16384TIP3    H270644   5.208   6.139   5.657 -0.4090 -1.0013  2.3768
16385TIP3   OH270645   4.355   3.866  11.643  0.1057 -1.0088  0.0900
16385TIP3    H170646   4.304   3.941  11.614  1.2224  0.0814  0.9434
16385TIP3    H270647   4.289   3.799  11.663 -1.1219  0.9527  2.8122
16386TIP3   OH270648   1.409   5.816  10.846 -0.1187 -0.1025  0.0570
16386TIP3    H170649   1.485   5.815  10.904 -2.4804 -1.5073  3.2718
16386TIP3    H270650   1.412   5.733  10.799  0.5216  0.0279 -0.1362
16387TIP3   OH270651   2.633   2.787  12.873  0.3462  0.1044 -0.3773
16387TIP3    H170652   2.720   2.813  12.841  1.2111 -0.4688  1.4409
16387TIP3    H270653   2.651   2.723  12.942 -1.5472 -0.4235 -0.3592
16388TIP3   OH270654   6.216   2.956  16.715  0.0143 -0.7202  0.2161
16388TIP3    H170655   6.288   2.924  16.660 -0.7678  1.2870 -2.0575
16388TIP3    H270656   6.176   2.877  16.751  1.5639 -1.9964 -0.7934
16389TIP3   OH270657   5.779   4.208   0.079 -0.1331  0.1403 -0.3445
16389TIP3    H170658   5.687   4.220   0.058 -0.1362  1.3267  0.2823
16389TIP3    H270659   5.793   4.260   0.158  1.5924  1.8020 -1.6844
16390TIP3   OH270660   2.637   4.148   5.458  0.1973 -0.3398  0.5276
16390TIP3    H170661   2.563   4.208   5.464  2.4147  2.5654  0.0112
16390TIP3    H270662   2.694   4.172   5.531  1.9508 -0.6332 -0.7081
16391TIP3   OH270663   0.883   3.523   0.778  0.3768 -0.4336  0.1384
16391TIP3    H170664   0.932   3.441   0.784 -1.2865 -1.4729 -0.2324
16391TIP3    H270665   0.828   3.511   0.701 -1.3751  0.2234  1.2821
16392TIP3   OH270666   1.373   0.238   6.094 -0.0007  0.1788 -0.2463
16392TIP3    H170667   1.340   0.304   6.155  0.9501  0.2412  0.2181
16392TIP3    H270668   1.433   0.185   6.146  0.0043 -0.4389 -0.8673
16393TIP3   OH270669   1.639   4.920   3.675 -0.3534 -0.1753 -0.7344
16393TIP3    H170670   1.629   4.827   3.654  1.1286 -0.0143 -2.1909
16393TIP3    H270671   1.550   4.955   3.670 -1.1186 -1.7316  1.0207
16394TIP3   OH270672   6.396   0.284   5.845  0.2910  0.6743 -0.1483
16394TIP3    H170673   6.404   0.279   5.749  1.5832  1.7644 -0.1200
16394TIP3    H270674   6.427   0.372   5.867 -0.8194  0.7389  1.2073
16395TIP3   OH270675   6.699   6.567  15.943 -0.2417  0.2089 -0.4479
16395TIP3    H170676   6.746   6.614  15.874  3.8973 -1.3512  1.1155
16395TIP3    H270677   6.675   6.484  15.903 -0.0923  0.3063 -0.7436
16396TIP3   OH270678   4.020   2.881  16.753  0.2077  0.1068  0.6060
16396TIP3    H170679   3.989   2.874  16.663  0.0902 -0.7480  0.7084
16396TIP3    H270680   3.983   2.964  16.785 -0.3869  0.0307  0.1185
16397TIP3   OH270681   0.863   1.048  10.387 -0.3903  0.0629 -0.4584
16397TIP3    H170682   0.947   1.033  10.431 -0.8069 -0.9482  0.0201
16397TIP3    H270683   0.840   1.138  10.408 -0.4539 -0.3117  1.1820
16398TIP3   OH270684   2.624   4.116   6.505  0.3037  0.6453 -0.3160
16398TIP3    H170685   2.584   4.195   6.470  0.1608  0.8688  0.3487
16398TIP3    H270686   2.551   4.055   6.514  0.3065  0.6606 -0.1986
16399TIP3   OH270687   1.553   0.956   5.098  0.0969 -0.3243 -0.2467
16399TIP3    H170688   1.584   0.876   5.140 -0.2943  0.1319  0.9503
16399TIP3    H270689   1.623   0.981   5.039  0.4186 -1.3042 -0.2880
16400TIP3   OH270690   6.359   2.156  10.644  0.3161 -0.4477 -0.1429
16400TIP3    H170691   6.270   2.156  10.607  0.4353  0.2555 -0.4318
16400TIP3    H270692   6.402   2.082  10.602  0.4648  0.3700 -1.4589
16401TIP3   OH270693   4.732   0.471  14.526 -0.1376  0.6504  0.4438
16401TIP3    H170694   4.709   0.418  14.449  1.3384  0.7389 -0.0750
16401TIP3    H270695   4.824   0.494  14.512 -0.6213  2.9374  0.9184
16402TIP3   OH270696   4.800   6.474   6.112 -0.0358  0.2659 -0.1263
16402TIP3    H170697   4.812   6.518   6.196  0.8560  1.2292 -0.7423
16402TIP3    H270698   4.729   6.522   6.070  0.4838  0.7089 -0.5141
16403TIP3   OH270699   3.428   6.801   4.241 -0.2087 -0.4664 -0.4038
16403TIP3    H170700   3.449   6.736   4.174 -0.1973  0.5962 -1.4675
16403TIP3    H270701   3.395   6.751   4.315 -2.3770 -1.5153 -2.0521
16404TIP3   OH270702   4.225   3.367   2.380 -0.5726 -0.1440 -0.5203
16404TIP3    H170703   4.237   3.296   2.443  0.9583 -0.1629 -0.8240
16404TIP3    H270704   4.155   3.337   2.322 -1.4955 -0.4244  0.7429
16405TIP3   OH270705   4.036   3.610  14.294  0.1929 -0.2767  0.0051
16405TIP3    H170706   4.083   3.671  14.351 -0.4419 -0.0495  0.2812
16405TIP3    H270707   3.953   3.654  14.274 -0.5432 -1.3210  0.7282
16406TIP3   OH270708   1.729   5.965   6.060  0.5107 -0.6965  0.3569
16406TIP3    H170709   1.814   5.924   6.045  1.0849  0.6213  0.0280
16406TIP3    H270710   1.674   5.893   6.091  2.3592 -1.1144  2.8474
16407TIP3   OH270711   3.046   5.890  12.981  0.0668 -0.2505 -0.2636
16407TIP3    H170712   2.960   5.851  13.000 -0.2367  0.6395  0.1882
16407TIP3    H270713   3.092   5.887  13.065 -0.0829  0.6854 -0.1495
16408TIP3   OH270714   0.242   1.685   1.911  0.6407 -0.3236 -0.2064
16408TIP3    H170715   0.229   1.614   1.848  1.0927 -0.5358 -0.0576
16408TIP3    H270716   0.316   1.657   1.964 -1.0910 -1.1531  1.8373
16409TIP3   OH270717   4.786   4.885   5.950 -0.4361 -1.3482  0.2844
16409TIP3    H170718   4.752   4.955   5.893  0.9509  0.1382  1.2355
16409TIP3    H270719   4.756   4.909   6.038 -0.6136 -2.3870  0.5115
16410TIP3   OH270720   3.967   3.578  15.739  0.4245 -0.1671 -0.4322
16410TIP3    H170721   4.009   3.664  15.735 -0.8089  0.5679  1.5978
16410TIP3    H270722   3.953   3.562  15.832 -1.5518 -1.4645 -0.9130
16411TIP3   OH270723   0.088   5.720  16.025 -0.3612  0.7425 -0.0824
16411TIP3    H170724   0.099   5.626  16.011 -1.8288  0.9261 -2.5993
16411TIP3    H270725   0.024   5.726  16.096 -1.3949 -0.1604 -0.9225
16412TIP3   OH270726   4.606   4.028  13.223  0.4238  0.3132 -0.1635
16412TIP3    H170727   4.632   3.937  13.215  2.3101  0.7888  0.4215
16412TIP3    H270728   4.673   4.077  13.175 -0.2959  1.4392 -0.0524
16413TIP3   OH270729   6.694   4.979   3.486 -0.4547  0.2954 -0.5131
16413TIP3    H170730   6.698   4.929   3.404  0.3524  1.8474 -1.4461
16413TIP3    H270731   6.650   5.060   3.462  0.9643  1.3281  0.2822
16414TIP3   OH270732   6.445   2.583  12.751  0.2785 -0.6543  0.8726
16414TIP3    H170733   6.367   2.579  12.806 -0.8201 -0.9526 -0.6527
16414TIP3    H270734   6.452   2.495  12.713  1.0833 -0.4887  0.6240
16415TIP3   OH270735   2.500   0.918  13.193 -0.1578 -0.6872 -0.3410
16415TIP3    H170736   2.436   0.904  13.263  1.5396 -0.8747  1.1999
16415TIP3    H270737   2.462   0.875  13.116 -2.3540  0.0941  0.2683
16416TIP3   OH270738   5.482   3.079   4.661 -0.6673  0.0413  0.2290
16416TIP3    H170739   5.460   3.152   4.718  1.0048  0.5631  0.2214
16416TIP3    H270740   5.537   3.022   4.714 -1.5096 -0.9615  0.0610
16417TIP3   OH270741   1.514   3.256  13.911  0.3112  1.3045 -0.5582
16417TIP3    H170742   1.462   3.336  13.919 -0.8083  0.3971  1.7294
16417TIP3    H270743   1.468   3.204  13.844 -1.0050  1.0850  0.4846
16418TIP3   OH270744   6.587   2.247  11.988 -0.1907 -0.3708 -0.2728
16418TIP3    H170745   6.510   2.303  11.981  0.0052 -0.1190 -0.3956
16418TIP3    H270746   6.585   2.215  12.079 -1.1565 -1.3925 -0.6287
16419TIP3   OH270747   4.830   2.722   3.411 -0.2975 -0.1894 -1.1587
16419TIP3    H170748   4.779   2.787   3.363 -0.6091 -0.3770 -1.0815
16419TIP3    H270749   4.899   2.695   3.349 -0.0937  0.2991 -1.1460
16420TIP3   OH270750   5.231   1.831   3.422  0.0867 -0.8285 -0.0484
16420TIP3    H170751   5.179   1.752   3.406  1.8625 -1.7990 -1.2082
16420TIP3    H270752   5.216   1.885   3.344 -1.6963  0.3430  1.0619
16421TIP3   OH270753   4.159   5.914   1.235  0.1329 -0.5301  0.1006
16421TIP3    H170754   4.219   5.903   1.161 -0.7527  1.0383 -0.8538
16421TIP3    H270755   4.208   5.967   1.298  0.2159 -0.3313 -0.1322
16422TIP3   OH270756   2.583   0.639   4.054 -0.1498 -0.2164 -0.3564
16422TIP3    H170757   2.624   0.563   4.095 -0.3786 -0.1836 -0.0649
16422TIP3    H270758   2.609   0.714   4.108 -0.3857 -0.1624 -0.3144
16423TIP3   OH270759   3.322   3.034  12.808  0.0283  0.6516  0.5997
16423TIP3    H170760   3.383   3.024  12.881  0.5052  0.6741  0.2058
16423TIP3    H270761   3.238   3.054  12.849  0.3227  0.7810  1.1363
16424TIP3   OH270762   4.599   3.892   2.198 -0.0509 -0.1493  0.1689
16424TIP3    H170763   4.646   3.858   2.122  0.6740 -1.0030  0.9836
16424TIP3    H270764   4.666   3.939   2.248 -0.7114  1.1720 -0.1462
16425TIP3   OH270765   0.775   6.608   0.388  0.9666  0.3124  0.1919
16425TIP3    H170766   0.798   6.543   0.455  1.2123 -0.6699 -0.8274
16425TIP3    H270767   0.841   6.676   0.397  0.9252  0.2462  1.0305
16426TIP3   OH270768   3.192   4.983   0.422  0.4449 -0.2815 -0.6288
16426TIP3    H170769   3.112   4.978   0.370 -0.9225  0.8133  1.3208
16426TIP3    H270770   3.193   5.073   0.455  1.2525 -0.9756  1.2772
16427TIP3   OH270771   3.961   6.626   1.650  0.2618 -0.2844  0.0595
16427TIP3    H170772   4.031   6.595   1.592  0.1026 -0.2532 -0.1505
16427TIP3    H270773   3.883   6.581   1.619 -0.1910  1.1857 -0.9726
16428TIP3   OH270774   4.444   4.176   3.534 -0.1177  0.4831 -0.7956
16428TIP3    H170775   4.449   4.161   3.629  1.2168  0.4330 -0.8627
16428TIP3    H270776   4.365   4.130   3.507  0.8542 -1.6446 -0.1013
16429TIP3   OH270777   1.989   3.398   1.338  0.1139 -0.5231  0.2280
16429TIP3    H170778   1.925   3.436   1.277 -0.3135 -0.8717  0.4562
16429TIP3    H270779   1.968   3.305   1.340 -1.1369 -0.2352  2.3861
16430TIP3   OH270780   1.087   0.442  13.276  0.2770  0.1525 -0.2966
16430TIP3    H170781   1.034   0.384  13.222 -1.5007  1.1580  0.3032
16430TIP3    H270782   1.046   0.439  13.362  1.9241  0.0501  0.5042
16431TIP3   OH270783   3.965   6.440  15.641  0.0949 -0.1562  0.3334
16431TIP3    H170784   3.958   6.375  15.571  2.2544 -0.7951  0.6672
16431TIP3    H270785   3.926   6.519  15.605  0.7443 -0.6214 -1.4245
16432TIP3   OH270786   6.502   2.849   1.342  0.5240  0.0535  0.3304
16432TIP3    H170787   6.542   2.842   1.429  0.5956  1.1251  0.3905
16432TIP3    H270788   6.576   2.862   1.283  0.3141  1.4210  0.3649
16433TIP3   OH270789   1.134   4.790   3.991  0.0348 -0.4601 -0.7591
16433TIP3    H170790   1.202   4.813   3.927 -0.6782  0.4260 -1.2119
16433TIP3    H270791   1.054   4.826   3.954 -0.5179 -0.6425  0.2554
16434TIP3   OH270792   5.885   5.989  13.187 -0.4253 -0.4169 -1.0931
16434TIP3    H170793   5.813   6.028  13.137 -1.6395 -0.4871  0.5498
16434TIP3    H270794   5.906   6.054  13.253 -0.4486 -1.2981 -0.2070
16435TIP3   OH270795   0.136   2.257   2.293  0.0453  0.0010 -0.0561
16435TIP3    H170796   0.199   2.326   2.271 -1.3336  1.3135  0.0826
16435TIP3    H270797   0.076   2.253   2.219 -1.6457  1.0039  1.2437
16436TIP3   OH270798   4.304   5.396  14.575  0.8470 -0.2004  0.3033
16436TIP3    H170799   4.228   5.439  14.615  0.2668 -0.6742 -0.2725
16436TIP3    H270800   4.349   5.354  14.649  1.2956  1.1978  0.8350
16437TIP3   OH270801   4.141   2.366  12.554  0.2921 -0.1474  0.2772
16437TIP3    H170802   4.056   2.398  12.522  0.4289 -0.8242 -0.7685
16437TIP3    H270803   4.179   2.441  12.599 -0.4542  0.4446 -0.0658
16438TIP3   OH270804   0.742   1.522   0.977  0.1637  0.0445  0.0558
16438TIP3    H170805   0.647   1.515   0.985  0.0904  0.7412 -0.1924
16438TIP3    H270806   0.770   1.563   1.059  0.1845  0.3931 -0.1239
16439TIP3   OH270807   4.690   5.518  14.037  0.8144 -0.6645  0.3135
16439TIP3    H170808   4.748   5.586  14.002 -0.3609  1.5580  2.5574
16439TIP3    H270809   4.747   5.464  14.091  1.4153 -0.4671 -0.1092
16440TIP3   OH270810   3.745   3.075   2.162 -0.0860 -0.0072 -0.6707
16440TIP3    H170811   3.792   3.123   2.093  0.1427  0.0704 -0.4658
16440TIP3    H270812   3.814   3.053   2.225 -0.3611  0.2770 -0.2706
16441TIP3   OH270813   3.318   1.498   2.063  0.4629  0.0267 -0.2069
16441TIP3    H170814   3.273   1.514   2.146 -1.1732 -1.8406 -0.7025
16441TIP3    H270815   3.369   1.418   2.078  1.0123  0.2852 -0.6755
16442TIP3   OH270816   1.197   2.618   0.178  0.1050 -0.3372 -0.4819
16442TIP3    H170817   1.110   2.601   0.215  0.4671  0.7372  0.9271
16442TIP3    H270818   1.220   2.705   0.212  0.1354  1.0956 -3.8986
16443TIP3   OH270819   4.889   6.108   4.327  0.6169 -0.3328 -0.2906
16443TIP3    H170820   4.929   6.195   4.324  1.5774 -0.8013 -1.8720
16443TIP3    H270821   4.819   6.112   4.262 -0.8233 -0.0528  1.2523
16444TIP3   OH270822   4.639   1.992   2.801 -0.7761  0.6894  0.3037
16444TIP3    H170823   4.615   1.901   2.781 -0.4929  0.0110  2.8581
16444TIP3    H270824   4.601   2.043   2.730 -2.2350 -1.2674 -0.3653
16445TIP3   OH270825   0.157   1.279  12.957 -0.3183 -0.1675 -0.4696
16445TIP3    H170826   0.126   1.263  13.046 -1.6392 -0.0997 -0.9172
16445TIP3    H270827   0.137   1.198  12.909  0.4867 -0.2467 -0.6833
16446TIP3   OH270828   5.802   2.133   1.347 -0.0828 -0.2993  0.3845
16446TIP3    H170829   5.742   2.180   1.405  0.6183 -1.4687  2.1166
16446TIP3    H270830   5.879   2.116   1.401  1.2913  0.0501 -1.4286
16447TIP3   OH270831   3.942   6.388   5.120  0.7363  0.1937  0.9146
16447TIP3    H170832   3.888   6.393   5.199  0.0245 -1.5895  0.5677
16447TIP3    H270833   4.017   6.444   5.138 -1.0210  2.3711  1.5812
16448TIP3   OH270834   2.659   3.012  10.270 -0.2301 -0.4633 -0.3233
16448TIP3    H170835   2.653   2.920  10.244 -0.0178 -0.9661  1.3477
16448TIP3    H270836   2.707   3.011  10.353 -0.6750  1.1162 -0.0234
16449TIP3   OH270837   1.887   3.892  16.342 -0.3740  0.3349 -0.3444
16449TIP3    H170838   1.811   3.846  16.306 -0.9402  0.4761  0.6510
16449TIP3    H270839   1.962   3.838  16.318 -1.1457 -1.8724  2.0076
16450TIP3   OH270840   6.338   4.140  14.866  0.7572  0.1729  0.2645
16450TIP3    H170841   6.427   4.166  14.890  1.4412 -1.4402 -0.3979
16450TIP3    H270842   6.316   4.195  14.792  1.4656  0.1384  0.0217
16451TIP3   OH270843   5.246   2.812   2.034 -0.2505 -0.5534  0.2764
16451TIP3    H170844   5.206   2.734   2.074 -0.1640 -0.4606  0.5477
16451TIP3    H270845   5.339   2.792   2.031 -0.0209  0.1881  1.8449
16452TIP3   OH270846   5.718   1.466   3.016  0.0597  0.3080 -0.1535
16452TIP3    H170847   5.769   1.385   3.013  0.0042  0.2270  1.0096
16452TIP3    H270848   5.663   1.463   2.937 -0.8877 -1.3944  0.5537
16453TIP3   OH270849   2.476   2.820  12.177 -0.0202  0.4921 -0.1283
16453TIP3    H170850   2.520   2.894  12.218  1.9273 -0.9027  0.4017
16453TIP3    H270851   2.414   2.789  12.243 -0.8765  1.6629 -0.3717
16454TIP3   OH270852   1.453   5.662  15.347 -0.1833 -0.0993 -0.2196
16454TIP3    H170853   1.435   5.745  15.302  0.2964  0.7160  1.0541
16454TIP3    H270854   1.484   5.689  15.434  1.0692 -1.6006 -0.1914
16455TIP3   OH270855   1.198   2.192  13.867 -0.0504 -0.2438 -0.0878
16455TIP3    H170856   1.208   2.217  13.776  1.3095  0.2443  0.1874
16455TIP3    H270857   1.287   2.169  13.896 -0.0275  2.1444  1.8549
16456TIP3   OH270858   4.451   0.036  15.661  0.1074 -0.6316 -0.2396
16456TIP3    H170859   4.367   0.002  15.691 -0.0007 -1.1318 -1.1154
16456TIP3    H270860   4.501  -0.042  15.636  0.6164 -0.2931 -0.2879
16457TIP3   OH270861   3.986   2.453  14.548 -0.0955 -0.4304  0.1139
16457TIP3    H170862   3.997   2.514  14.475  1.3640 -0.1269  0.5783
16457TIP3    H270863   3.919   2.392  14.518 -1.1435  1.0479 -0.5812
16458TIP3   OH270864   4.926   4.756   3.559 -0.4288  0.9771 -0.5132
16458TIP3    H170865   4.961   4.832   3.512 -0.5619  1.7211  0.5579
16458TIP3    H270866   4.836   4.780   3.580  1.0239  2.7867  4.4091
16459TIP3   OH270867   4.337   1.098  12.033  0.2038 -0.5489  0.4176
16459TIP3    H170868   4.425   1.105  11.996 -0.1660 -0.5544 -0.4540
16459TIP3    H270869   4.293   1.179  12.007  0.4782  0.2243  2.2684
16460TIP3   OH270870   6.076   4.591  17.071 -0.0472  0.2391  0.5692
16460TIP3    H170871   6.006   4.526  17.077 -0.2661  0.5331  1.2467
16460TIP3    H270872   6.041   4.659  17.014  0.9194 -1.1515 -1.7590
16461TIP3   OH270873   3.351   6.218   3.491 -0.0773 -0.3324  0.1626
16461TIP3    H170874   3.265   6.250   3.463 -0.5603 -1.8115 -0.0604
16461TIP3    H270875   3.332   6.158   3.563  0.6767 -1.5045 -0.5958
16462TIP3   OH270876   2.301   2.717   3.622  0.1154 -0.3328  0.0827
16462TIP3    H170877   2.396   2.703   3.623  0.0816 -0.7705 -1.2932
16462TIP3    H270878   2.270   2.676   3.702  0.9064 -1.5483 -0.2227
16463TIP3   OH270879   6.366   6.376  13.008  0.2020 -0.3921  0.1594
16463TIP3    H170880   6.309   6.310  12.968  0.0732 -0.1753 -0.0149
16463TIP3    H270881   6.405   6.421  12.933  1.3768 -1.2067  0.2637
16464TIP3   OH270882   6.115   2.394   4.015  0.3561 -0.5730 -0.0286
16464TIP3    H170883   6.049   2.363   4.078 -0.2031 -0.3042 -0.4758
16464TIP3    H270884   6.088   2.354   3.932  0.2443  0.2615 -0.3950
16465TIP3   OH270885   2.595   1.155  15.886  0.3283  0.7211  0.5344
16465TIP3    H170886   2.606   1.086  15.821  1.5747 -0.6677  2.1796
16465TIP3    H270887   2.586   1.236  15.835  2.7721 -0.1290 -1.3276
16466TIP3   OH270888   1.076   6.295   2.366 -0.2544  0.3980 -0.4126
16466TIP3    H170889   1.112   6.235   2.300 -0.4667 -0.8632  0.5914
16466TIP3    H270890   1.104   6.382   2.337  1.1499 -0.2977 -1.2081
16467TIP3   OH270891   1.620   5.830   0.013 -0.3659  0.1312  0.1052
16467TIP3    H170892   1.626   5.769  -0.061 -3.6757 -0.9096  0.6013
16467TIP3    H270893   1.677   5.792   0.080 -0.1672 -0.8850 -0.6302
16468TIP3   OH270894   5.664   5.970   4.486 -0.5243  0.2161 -0.1090
16468TIP3    H170895   5.624   5.922   4.413  1.3122 -0.3722 -0.7349
16468TIP3    H270896   5.747   5.926   4.502 -0.9383  0.2506  2.4431
16469TIP3   OH270897   3.344   2.828   6.085 -0.2120  0.2023  0.0361
16469TIP3    H170898   3.270   2.811   6.144 -0.4805  0.2111 -0.2956
16469TIP3    H270899   3.421   2.801   6.135 -0.2722  1.8692  1.0641
16470TIP3   OH270900   6.727   5.343  11.751  0.9277 -0.6194  0.2395
16470TIP3    H170901   6.764   5.255  11.744  0.8004 -0.6230 -0.4003
16470TIP3    H270902   6.781   5.397  11.694  1.0402 -0.2682  0.6739
16471TIP3   OH270903   3.786   4.110   1.487  0.0647  0.0095  0.3448
16471TIP3    H170904   3.795   4.148   1.399  1.5398 -1.4810 -0.1918
16471TIP3    H270905   3.863   4.142   1.534 -0.6039  0.6174  1.0326
16472TIP3   OH270906   5.813   3.480  14.641 -0.3545  0.0586 -0.0441
16472TIP3    H170907   5.801   3.555  14.699 -2.8304  0.2911 -0.7813
16472TIP3    H270908   5.864   3.417  14.693  2.9727  2.7554  0.0922
16473TIP3   OH270909   5.809   0.459   6.826 -0.2149  0.0424 -0.0363
16473TIP3    H170910   5.799   0.373   6.786  0.7798  0.2736 -0.7965
16473TIP3    H270911   5.739   0.512   6.787  0.5470  0.1784 -1.2522
16474TIP3   OH270912   3.067   3.778   2.145  0.3245 -0.1700  0.6121
16474TIP3    H170913   3.152   3.734   2.136 -0.0479 -0.9800  0.9324
16474TIP3    H270914   3.040   3.797   2.056  0.8357  0.0858  0.5058
16475TIP3   OH270915   4.961   6.477  13.327  0.2503 -0.3646  0.0470
16475TIP3    H170916   5.021   6.550  13.314  0.1389 -0.1248  0.8865
16475TIP3    H270917   4.899   6.508  13.393  0.4386 -1.3580  0.6944
16476TIP3   OH270918   6.616   1.871   3.187  0.0988 -0.2448  0.3694
16476TIP3    H170919   6.655   1.940   3.241 -1.2614  0.3498  0.6134
16476TIP3    H270920   6.561   1.821   3.248 -0.1073 -0.6086 -0.1142
16477TIP3   OH270921   3.181   4.506  15.732 -0.3802 -1.1022  0.5973
16477TIP3    H170922   3.145   4.520  15.820  0.5067 -0.6851  0.9008
16477TIP3    H270923   3.148   4.580  15.681 -1.2122 -1.5516  0.4720
16478TIP3   OH270924   2.962   0.139  11.114 -0.1569 -0.2541 -0.1551
16478TIP3    H170925   2.952   0.122  11.021 -0.9332  0.6716 -0.2534
16478TIP3    H270926   3.014   0.220  11.118  0.0766 -0.4208  0.2201
16479TIP3   OH270927   2.155   2.397  16.854 -0.4001 -0.4320  0.3892
16479TIP3    H170928   2.082   2.428  16.801 -2.2502 -1.5771  2.1681
16479TIP3    H270929   2.199   2.477  16.883 -0.3013  0.2355 -1.5711
16480TIP3   OH270930   0.051   5.928  14.704  0.6849 -0.4691  0.7077
16480TIP3    H170931   0.026   6.018  14.721  1.0829 -0.2667  0.2384
16480TIP3    H270932  -0.010   5.898  14.637 -0.3382 -0.9958  1.8605
16481TIP3   OH270933   0.556   1.253   2.083  0.5201 -0.0072 -0.6361
16481TIP3    H170934   0.620   1.321   2.062  0.7667 -0.6325 -1.9804
16481TIP3    H270935   0.471   1.292   2.062  0.7082 -0.3395 -2.0519
16482TIP3   OH270936   2.387   4.610  12.841  0.2724 -0.2647  0.2706
16482TIP3    H170937   2.421   4.596  12.929  1.7780 -1.2774 -0.4527
16482TIP3    H270938   2.382   4.705  12.832  0.5918 -0.1515  1.2505
16483TIP3   OH270939   0.545   5.552   3.370 -0.2987 -0.1667 -0.2565
16483TIP3    H170940   0.564   5.459   3.356  1.3435 -0.1783  1.8205
16483TIP3    H270941   0.563   5.566   3.463 -1.4825  2.0230 -0.3288
16484TIP3   OH270942   0.997   0.998  10.705 -0.3526 -0.3389 -0.1160
16484TIP3    H170943   1.014   1.092  10.714  0.4418 -0.6432  2.0617
16484TIP3    H270944   1.058   0.969  10.637  1.0710  0.3211  0.8390
16485TIP3   OH270945   2.791   3.888   1.174 -0.1692  0.3720 -0.0383
16485TIP3    H170946   2.724   3.821   1.182  1.0161 -1.1153 -2.0482
16485TIP3    H270947   2.852   3.870   1.247 -1.2811  0.9781  1.0555
16486TIP3   OH270948   6.025   0.128  12.050  0.2227  0.2589 -0.1901
16486TIP3    H170949   6.006   0.200  12.110  0.5224  1.0649 -1.0559
16486TIP3    H270950   6.102   0.157  12.001  0.7905 -0.9622 -0.0403
16487TIP3   OH270951   2.754   1.899   3.632 -0.4162 -0.0060 -0.0731
16487TIP3    H170952   2.720   1.955   3.701  0.4124  0.2152  0.1648
16487TIP3    H270953   2.789   1.959   3.566  1.4174 -0.2241  0.6647
16488TIP3   OH270954   0.630   3.631   4.856  0.4073  0.1421 -0.1577
16488TIP3    H170955   0.584   3.703   4.900 -0.0438 -0.3089  0.1220
16488TIP3    H270956   0.561   3.569   4.833  1.1725 -2.2630  3.5064
16489TIP3   OH270957   1.963   1.930  15.604 -0.1731 -0.0752 -0.1698
16489TIP3    H170958   2.051   1.921  15.567 -0.3871  1.4058 -1.0903
16489TIP3    H270959   1.922   1.844  15.591  0.4322 -0.1597 -1.6541
16490TIP3   OH270960   0.638   3.152  13.513 -0.2764  0.3884  0.1317
16490TIP3    H170961   0.612   3.076  13.461 -0.4939 -0.6695  1.7238
16490TIP3    H270962   0.732   3.162  13.496  0.1887 -1.4770  1.3767
16491TIP3   OH270963   1.552   2.850   3.450 -0.3822 -0.0600  0.2467
16491TIP3    H170964   1.572   2.757   3.459 -1.4316 -0.2980  0.1155
16491TIP3    H270965   1.457   2.854   3.443 -0.4090  1.0877  1.0838
16492TIP3   OH270966   2.476   5.149  13.359 -0.2843  0.1217 -0.1063
16492TIP3    H170967   2.457   5.085  13.291 -2.1837 -0.2564  0.7670
16492TIP3    H270968   2.571   5.142  13.372  0.2097  0.5368 -3.0088
16493TIP3   OH270969   1.997   6.225  14.642 -0.5239  0.0489 -0.1680
16493TIP3    H170970   2.021   6.261  14.728 -2.4637  0.1991  0.3407
16493TIP3    H270971   2.004   6.299  14.582 -1.9698  0.6793  0.4075
16494TIP3   OH270972   6.355   3.657  17.222  0.0364  0.6867  0.1989
16494TIP3    H170973   6.350   3.622  17.133 -0.5951  0.3653  0.3521
16494TIP3    H270974   6.265   3.685  17.242  0.2876  1.2551  0.5324
16495TIP3   OH270975   5.488   4.447   2.641  0.4479  0.4582  0.1129
16495TIP3    H170976   5.536   4.369   2.615 -2.5333 -1.3559 -0.2092
16495TIP3    H270977   5.506   4.511   2.572  2.9106  0.1015  0.3751
16496TIP3   OH270978   4.439   4.409   5.368 -0.1123 -0.1096 -0.2354
16496TIP3    H170979   4.409   4.419   5.458 -0.8409 -1.5195 -0.3187
16496TIP3    H270980   4.372   4.453   5.316 -0.1052  0.0007 -0.1523
16497TIP3   OH270981   4.706   0.844   4.726  0.9230  0.2352  0.1074
16497TIP3    H170982   4.626   0.824   4.775  2.7198 -0.7371  2.7282
16497TIP3    H270983   4.719   0.938   4.741  0.5512  0.2858  0.1240
16498TIP3   OH270984   2.063   5.947   0.519  0.1398  0.0806  0.1823
16498TIP3    H170985   2.065   6.025   0.463  0.8866  0.8146  1.1932
16498TIP3    H270986   2.067   5.873   0.459 -0.4407  0.8273 -0.7927
16499TIP3   OH270987   3.078   5.570  14.804  0.9152  0.3595 -0.2026
16499TIP3    H170988   3.045   5.482  14.784  0.6665  0.2780  0.5273
16499TIP3    H270989   3.001   5.626  14.795  0.9410  0.4117 -0.0950
16500TIP3   OH270990   0.073   1.852  12.209  0.6735  0.8498 -0.0784
16500TIP3    H170991   0.163   1.824  12.194  1.1990  1.4496  1.8778
16500TIP3    H270992   0.029   1.775  12.245  0.5474  0.7393 -0.4627
16501TIP3   OH270993   4.401   2.401   3.636  0.5409 -0.1381  0.3007
16501TIP3    H170994   4.306   2.403   3.623  0.5726  0.0619  0.0854
16501TIP3    H270995   4.429   2.491   3.621  0.7731 -0.2118  0.2911
16502TIP3   OH270996   2.167   6.127   1.223 -0.3154  0.1781 -0.3674
16502TIP3    H170997   2.109   6.178   1.166  1.0337  1.3402 -0.7263
16502TIP3    H270998   2.218   6.072   1.163  1.3378  1.6431 -0.3469
16503TIP3   OH270999   1.145   2.352  11.906  0.0690 -0.3567  0.0171
16503TIP3    H171000   1.078   2.351  11.975 -0.3874 -0.2621 -0.4153
16503TIP3    H271001   1.100   2.315  11.830  0.4314 -0.0377 -0.3528
16504TIP3   OH271002   5.037   3.014  16.646  0.3744 -0.0555 -0.1548
16504TIP3    H171003   5.069   3.036  16.559 -3.8208 -0.8194 -1.9998
16504TIP3    H271004   5.026   3.098  16.690  1.0912  0.4232 -0.8858
16505TIP3   OH271005   1.632   5.996   1.353 -0.3915  0.1652  0.0709
16505TIP3    H171006   1.691   5.984   1.427 -1.0192  0.7194  0.6676
16505TIP3    H271007   1.676   5.953   1.280 -0.2930 -1.3983  1.0284
16506TIP3   OH271008   2.887   2.901  11.263  0.0047  0.1104 -0.0427
16506TIP3    H171009   2.935   2.977  11.296  1.6785  0.1559 -2.4040
16506TIP3    H271010   2.956   2.839  11.238 -1.3032 -1.4140  0.0921
16507TIP3   OH271011   3.241   2.328  13.235  0.1860 -0.0213 -0.4846
16507TIP3    H171012   3.331   2.357  13.253  0.0799  0.3659 -0.5774
16507TIP3    H271013   3.189   2.408  13.239 -0.2190 -0.3113 -0.0072
16508TIP3   OH271014   4.442   0.383   2.205  0.8701  0.5112 -0.0536
16508TIP3    H171015   4.494   0.343   2.135  0.3614  1.7878 -1.1696
16508TIP3    H271016   4.357   0.339   2.200  0.8769  0.5085 -0.1454
16509TIP3   OH271017   1.212   4.674  16.329  0.1373  0.6883  0.3278
16509TIP3    H171018   1.227   4.611  16.400  1.3784  0.4787 -0.1116
16509TIP3    H271019   1.125   4.653  16.296  0.0980 -0.0823  0.9135
16510TIP3   OH271020   0.442   2.077  13.967 -0.0482  0.2980  0.1753
16510TIP3    H171021   0.436   1.990  14.006 -0.7016  0.1193 -0.2958
16510TIP3    H271022   0.355   2.091  13.928 -0.2754  1.5824  1.1274
16511TIP3   OH271023   4.091   1.851  14.089 -0.6298  0.3862  0.8102
16511TIP3    H171024   4.013   1.907  14.100  0.5966  2.1603  0.7332
16511TIP3    H271025   4.062   1.765  14.119 -2.7841  0.8862  0.2922
16512TIP3   OH271026   2.781   2.594   5.354  0.5469 -0.0819  0.4637
16512TIP3    H171027   2.755   2.614   5.264 -0.1054 -1.6545  0.2865
16512TIP3    H271028   2.706   2.622   5.407  0.1374 -0.9361  0.3349
16513TIP3   OH271029   3.481   6.360   2.818 -0.0715  0.8748  0.1063
16513TIP3    H171030   3.499   6.442   2.771 -0.8099 -0.3820 -2.4324
16513TIP3    H271031   3.389   6.366   2.843 -0.0426  0.9406  0.1988
16514TIP3   OH271032   5.658   3.064   3.911  0.5217  0.0188 -0.1816
16514TIP3    H171033   5.638   3.128   3.843  0.6232 -0.9514 -1.1466
16514TIP3    H271034   5.638   2.979   3.870  0.2432 -0.5544  1.1193
16515TIP3   OH271035   1.591   1.898   2.316 -0.4100  0.1173  0.4282
16515TIP3    H171036   1.558   1.933   2.399  0.4333 -0.2230  0.9123
16515TIP3    H271037   1.558   1.808   2.313  0.6829 -0.3097  1.0383
16516TIP3   OH271038   3.564   2.058   3.605 -0.5093 -0.5902 -0.1069
16516TIP3    H171039   3.536   2.144   3.635  0.4928 -0.1977 -0.2791
16516TIP3    H271040   3.573   2.068   3.510  0.6653 -0.5786  0.0041
16517TIP3   OH271041   3.385   6.249  16.712  0.2475  0.2401 -0.4110
16517TIP3    H171042   3.437   6.304  16.654  0.4363 -0.8312 -1.2685
16517TIP3    H271043   3.448   6.212  16.774  0.2053  0.5415 -0.1846
16518TIP3   OH271044   3.201   3.842  11.482 -0.3590 -0.1766  0.0916
16518TIP3    H171045   3.116   3.885  11.492 -0.9618 -1.7300  2.1305
16518TIP3    H271046   3.260   3.893  11.537 -0.4538 -0.2809  0.2941
16519TIP3   OH271047   5.532   0.539   5.441  0.1152  0.6725  0.4304
16519TIP3    H171048   5.506   0.518   5.530  3.2887  1.5360  1.6223
16519TIP3    H271049   5.583   0.463   5.412 -1.1476  0.2628 -0.7834
16520TIP3   OH271050   3.020   1.108  15.797 -0.2184  0.4140 -0.7849
16520TIP3    H171051   3.109   1.098  15.829 -0.1100  1.5496 -0.7294
16520TIP3    H271052   3.025   1.085  15.704 -0.2221 -1.2655 -0.3981
16521TIP3   OH271053   5.937   6.464   5.042 -0.2314  0.0353  0.0144
16521TIP3    H171054   6.031   6.466   5.063 -0.3467  0.1341  0.5347
16521TIP3    H271055   5.924   6.541   4.987 -0.2863  0.8847  1.1848
16522TIP3   OH271056   5.592   0.225   2.962  0.0152  0.4644  0.4743
16522TIP3    H171057   5.542   0.202   2.883  2.1528  1.2943 -1.1696
16522TIP3    H271058   5.553   0.307   2.991 -0.1677  0.6496 -0.2736
16523TIP3   OH271059   1.681   0.561   4.836  0.6114  0.2043  0.3405
16523TIP3    H171060   1.616   0.605   4.891  0.6794  0.0571  0.5377
16523TIP3    H271061   1.756   0.546   4.893 -0.2923 -2.2821  0.9569
16524TIP3   OH271062   6.412   5.943   5.552  0.5714 -0.2911 -0.6298
16524TIP3    H171063   6.446   6.032   5.540 -0.6893  0.4170  0.9410
16524TIP3    H271064   6.452   5.893   5.481  1.5661  1.4478 -1.3357
16525TIP3   OH271065   2.547   5.792  10.845  0.6682 -0.0565 -0.3809
16525TIP3    H171066   2.533   5.768  10.753 -0.5493  0.8163 -0.4423
16525TIP3    H271067   2.547   5.709  10.892  3.1880 -0.6662 -1.3924
16526TIP3   OH271068   1.802   1.871  16.551  0.3003  0.1210  0.0322
16526TIP3    H171069   1.876   1.893  16.607 -2.0281  2.7276  2.2242
16526TIP3    H271070   1.807   1.932  16.478  0.0900  0.5695  0.3906
16527TIP3   OH271071   0.904   1.297   3.728 -0.0228 -0.0562 -0.0836
16527TIP3    H171072   0.964   1.332   3.795  2.0078 -2.4569 -0.5597
16527TIP3    H271073   0.818   1.298   3.770  0.6157  1.8870  1.2381
16528TIP3   OH271074   3.094   6.576  16.445 -0.3644 -0.2357  0.0915
16528TIP3    H171075   3.109   6.586  16.539 -1.5018  1.2007  0.1360
16528TIP3    H271076   3.052   6.658  16.419 -3.0988 -1.9207 -1.0430
16529TIP3   OH271077   2.447   3.689   2.376  0.4069 -0.3707  0.5152
16529TIP3    H171078   2.507   3.666   2.306  0.0702  0.2414  0.0225
16529TIP3    H271079   2.398   3.608   2.393 -0.6415 -0.0940 -1.0844
16530TIP3   OH271080   6.507   6.121   0.619 -0.2316  0.3192  0.2737
16530TIP3    H171081   6.517   6.148   0.527  1.3693 -0.6439  0.1404
16530TIP3    H271082   6.431   6.170   0.650 -0.5980  0.9131 -1.4733
16531TIP3   OH271083   5.950   3.982  14.316  0.0032  0.4500 -0.2918
16531TIP3    H171084   5.918   4.071  14.331 -0.6768  0.0978  0.3674
16531TIP3    H271085   5.891   3.946  14.250  0.5726  0.6466 -0.9144
16532TIP3   OH271086   4.083   4.881   2.894  0.2716  0.0627 -0.4319
16532TIP3    H171087   4.017   4.891   2.825  0.5820 -0.0438 -0.7430
16532TIP3    H271088   4.053   4.939   2.964 -2.4903 -3.1601  1.1996
16533TIP3   OH271089   0.824   2.304  13.361  0.5581 -0.3634  0.0021
16533TIP3    H171090   0.805   2.332  13.450  1.3886 -0.9167  0.3594
16533TIP3    H271091   0.856   2.214  13.370 -0.4271 -0.8227 -0.9614
16534TIP3   OH271092   5.855   3.909   0.118 -0.4700 -0.0078  0.9983
16534TIP3    H171093   5.867   4.002   0.099 -0.1784 -0.3989 -0.7366
16534TIP3    H271094   5.912   3.892   0.193  1.7751  0.5438 -0.5453
16535TIP3   OH271095   4.167   4.825   2.401  0.1066  0.8054 -0.3966
16535TIP3    H171096   4.148   4.845   2.309 -0.7224  2.7257  0.1741
16535TIP3    H271097   4.263   4.825   2.406  0.1731 -0.3132 -1.4624
16536TIP3   OH271098   1.052   0.718  16.438  0.0485 -0.3141 -0.0869
16536TIP3    H171099   1.124   0.774  16.469  0.0918  0.1388 -0.9996
16536TIP3    H271100   0.980   0.779  16.423 -0.1198 -0.5977 -0.4142
16537TIP3   OH271101   2.523   2.486  16.577  0.1148 -0.3137 -0.0143
16537TIP3    H171102   2.478   2.451  16.500  0.6801 -0.0487 -0.4657
16537TIP3    H271103   2.482   2.441  16.651  2.1874 -3.4623 -0.6885
16538TIP3   OH271104   5.285   1.096  15.062 -0.0556 -0.5141 -0.0642
16538TIP3    H171105   5.216   1.035  15.034  2.0987 -2.0697 -2.2472
16538TIP3    H271106   5.247   1.143  15.135 -3.0341 -2.1286 -0.4785
16539TIP3   OH271107   3.849   6.329  11.402 -0.0100 -0.3973 -0.3562
16539TIP3    H171108   3.827   6.310  11.311 -1.7569 -0.8320  0.1413
16539TIP3    H271109   3.778   6.290  11.453  0.1293  1.2020  1.1212
16540TIP3   OH271110   5.791   1.954   3.272  0.3386  0.1134 -0.4292
16540TIP3    H171111   5.699   1.948   3.298  0.2015  0.3565 -0.8577
16540TIP3    H271112   5.812   2.047   3.279  0.3526  0.1534 -1.0066
16541TIP3   OH271113   0.519   1.298   4.941  0.0856  0.3386 -0.1184
16541TIP3    H171114   0.538   1.392   4.938 -0.5354  0.4466 -0.9359
16541TIP3    H271115   0.426   1.293   4.962 -0.0212 -0.0848 -0.6912
16542TIP3   OH271116   6.682   4.005   0.907 -0.0506 -0.8679 -0.1971
16542TIP3    H171117   6.603   4.019   0.960  0.3321 -0.9140  0.3952
16542TIP3    H271118   6.683   3.910   0.892 -1.3524 -0.5941 -2.1794
16543TIP3   OH271119   5.998   5.802  16.916  0.3659  0.2560 -0.0719
16543TIP3    H171120   6.040   5.861  16.853 -1.6212  1.2106 -0.5604
16543TIP3    H271121   5.906   5.801  16.889 -0.3187 -0.1092  2.2311
16544TIP3   OH271122   6.347   4.325   1.053 -0.1376  0.2543 -0.1723
16544TIP3    H171123   6.261   4.309   1.091  0.4263 -0.1254  0.9452
16544TIP3    H271124   6.378   4.239   1.026 -0.1943  0.4187 -0.7718
16545TIP3   OH271125   3.348   3.020  13.307 -0.4470 -0.0865 -0.5217
16545TIP3    H171126   3.374   3.022  13.399  1.2094 -1.4242 -0.9258
16545TIP3    H271127   3.312   3.107  13.290  2.0062  1.1967  0.5903
16546TIP3   OH271128   4.284   0.195   2.908 -0.1002 -0.1841  0.0220
16546TIP3    H171129   4.340   0.127   2.945 -0.1650 -0.9107 -1.2099
16546TIP3    H271130   4.241   0.235   2.984  0.3135 -1.1778  0.7826
16547TIP3   OH271131   5.172   2.418   2.361  0.1619  0.0902 -0.0386
16547TIP3    H171132   5.166   2.358   2.287  0.0797  0.2914 -0.1973
16547TIP3    H271133   5.222   2.492   2.327 -1.8489  1.2331 -0.6071
16548TIP3   OH271134   4.875   5.761   2.936  0.4679 -0.1828 -0.2783
16548TIP3    H171135   4.868   5.665   2.937  0.4540 -0.1944 -1.2165
16548TIP3    H271136   4.813   5.790   3.003  1.0600 -0.8645  0.5840
16549TIP3   OH271137   3.648   5.855  13.113  0.4713  0.6215 -0.2933
16549TIP3    H171138   3.621   5.810  13.032 -1.3842  0.3089  0.4610
16549TIP3    H271139   3.638   5.788  13.181  1.4997  1.0446  0.2712
16550TIP3   OH271140   2.871   6.104   1.954  0.2915  0.2040 -0.3795
16550TIP3    H171141   2.963   6.130   1.947  0.7179 -1.1543 -0.1169
16550TIP3    H271142   2.831   6.135   1.874  1.4106 -0.8360 -1.3614
16551TIP3   OH271143   1.496   6.598  17.088  0.4995  0.0289 -0.5766
16551TIP3    H171144   1.490   6.640  17.174  2.5876 -1.0140  0.0942
16551TIP3    H271145   1.586   6.614  17.059 -0.1802  0.3799 -2.5973
16552TIP3   OH271146   0.051   1.768  16.862  0.1443 -0.0691  0.2184
16552TIP3    H171147   0.139   1.776  16.825  0.5036  0.3863  1.1447
16552TIP3    H271148  -0.005   1.744  16.788  0.4197  3.1792 -1.1308
16553TIP3   OH271149   3.737   5.000   0.917  0.1585  0.3989  0.1199
16553TIP3    H171150   3.760   5.018   1.008  0.5904  0.7081 -0.0493
16553TIP3    H271151   3.821   4.990   0.873 -0.0541 -0.5429 -0.0871
16554TIP3   OH271152   4.003   3.571   4.831  0.3508 -0.4122 -0.6773
16554TIP3    H171153   4.027   3.558   4.740 -0.4212 -0.3047 -0.9026
16554TIP3    H271154   3.989   3.482   4.865 -1.5485 -0.3672 -1.2789
16555TIP3   OH271155   3.285   5.999  16.518  0.1115 -0.1849  0.0953
16555TIP3    H171156   3.329   5.964  16.440  0.1399 -0.6054  0.2996
16555TIP3    H271157   3.229   6.070  16.484 -1.2624 -1.5428 -0.5716
16556TIP3   OH271158   3.641   3.804  15.122 -0.6864  0.2900 -0.1533
16556TIP3    H171159   3.549   3.819  15.101 -0.8293  1.2541  1.1060
16556TIP3    H271160   3.648   3.824  15.216  1.0558  1.4289 -0.5006
16557TIP3   OH271161   4.174   5.233  15.919 -0.3253 -0.3013 -0.1087
16557TIP3    H171162   4.192   5.303  15.857  3.0179 -0.2659  0.8351
16557TIP3    H271163   4.240   5.166  15.899 -1.0849 -1.5542  1.4761
16558TIP3   OH271164   3.548   1.904  16.166  0.0483  0.0053 -0.2549
16558TIP3    H171165   3.496   1.911  16.085 -0.1880  1.0459 -0.0259
16558TIP3    H271166   3.526   1.818  16.201  1.3104 -1.0946 -2.0809
16559TIP3   OH271167   5.312   3.983   5.292  0.4946  0.0916 -0.1187
16559TIP3    H171168   5.283   4.032   5.369 -0.5016  0.5753 -0.7786
16559TIP3    H271169   5.402   4.012   5.277  0.2229  1.0539  0.0393
16560TIP3   OH271170   2.892   3.846  16.303  0.0135 -0.7857 -0.5895
16560TIP3    H171171   2.867   3.921  16.357  0.6392 -0.1877 -1.1091
16560TIP3    H271172   2.859   3.867  16.216  0.4899 -0.9562 -0.8119
16561TIP3   OH271173   2.094   3.229   3.630 -0.0830  0.3722 -0.3550
16561TIP3    H171174   2.076   3.166   3.561  0.2581 -0.3766  0.2301
16561TIP3    H271175   2.159   3.289   3.592  0.1842 -0.0971 -0.6419
16562TIP3   OH271176   1.261   5.669  13.625 -0.3517 -0.1963 -0.4252
16562TIP3    H171177   1.192   5.654  13.561  0.7001  0.1810 -1.6540
16562TIP3    H271178   1.214   5.691  13.706 -1.6855 -1.3000 -0.8887
16563TIP3   OH271179   2.850   0.997  15.229 -0.0832  0.4791  0.0492
16563TIP3    H171180   2.885   0.911  15.207  0.7727  0.6811  0.5835
16563TIP3    H271181   2.757   0.983  15.241 -0.0836 -0.1980 -0.7754
16564TIP3   OH271182   1.015   5.488  16.228  0.0518 -0.1754  0.0009
16564TIP3    H171183   0.946   5.424  16.211  0.4737 -0.7479  0.4258
16564TIP3    H271184   0.976   5.550  16.290  0.0333 -0.6977  0.5121
16565TIP3   OH271185   0.935   3.818   2.951  0.2642  0.0908 -0.3941
16565TIP3    H171186   0.895   3.848   3.033 -1.7560  0.7798 -1.5831
16565TIP3    H271187   0.940   3.723   2.960 -2.2914 -0.1032 -0.4213
16566TIP3   OH271188   1.019   0.205  11.142  0.3860  0.0900  0.0687
16566TIP3    H171189   1.079   0.145  11.186 -0.1041 -0.5745 -0.1717
16566TIP3    H271190   1.028   0.287  11.190 -0.3452 -0.7019  1.5813
16567TIP3   OH271191   4.644   1.433  14.679 -0.1326 -0.3523 -0.6032
16567TIP3    H171192   4.653   1.469  14.767 -2.2939 -0.2193 -0.4054
16567TIP3    H271193   4.718   1.372  14.671 -0.0796 -0.6124  1.4154
16568TIP3   OH271194   6.173   6.244   1.683  0.4910 -0.0620 -0.1872
16568TIP3    H171195   6.093   6.231   1.632  0.1894 -0.1909  0.3128
16568TIP3    H271196   6.216   6.158   1.682 -0.0115 -0.3254  0.6074
16569TIP3   OH271197   1.404   1.226   1.577 -0.0735  0.2678  0.1137
16569TIP3    H171198   1.385   1.190   1.664 -0.3047  0.7898  0.2805
16569TIP3    H271199   1.470   1.166   1.541  0.1797  0.1655  0.7277
16570TIP3   OH271200   2.285   4.997  11.662  0.4258  0.0901  0.2899
16570TIP3    H171201   2.255   5.077  11.620 -0.0133  0.3902  1.1498
16570TIP3    H271202   2.308   5.024  11.751  0.6977 -0.6512  0.4501
16571TIP3   OH271203   5.871   5.152   3.047  0.3447 -0.0295 -0.3995
16571TIP3    H171204   5.848   5.215   2.978  0.9496 -0.4276 -0.9728
16571TIP3    H271205   5.788   5.133   3.091  0.0289  0.5762 -0.7249
16572TIP3   OH271206   4.083   6.673  11.509  1.1035 -0.4460 -0.0083
16572TIP3    H171207   4.125   6.705  11.430 -0.8176 -0.5057 -1.0740
16572TIP3    H271208   4.107   6.737  11.577 -0.5273  1.8350 -1.5176
16573TIP3   OH271209   5.527   4.070   1.494 -0.1037 -0.1021 -0.3039
16573TIP3    H171210   5.493   4.057   1.582 -0.1741  0.4812 -0.2405
16573TIP3    H271211   5.497   4.158   1.469 -0.7608 -0.5721 -1.2105
16574TIP3   OH271212   0.946   0.998   1.910 -0.5976  0.2805  0.4154
16574TIP3    H171213   0.934   1.064   1.978  1.2343  0.6055  0.4479
16574TIP3    H271214   0.953   0.916   1.958  1.9835  0.6564  0.7664
16575TIP3   OH271215   5.984   1.979  12.960 -0.4373 -0.1392  0.2779
16575TIP3    H171216   6.054   2.005  13.019  0.5817  0.2188 -1.0662
16575TIP3    H271217   5.995   1.885  12.948 -0.8169 -0.2646  0.8504
16576TIP3   OH271218   3.187   2.529   4.154  0.0651 -0.6288 -0.4796
16576TIP3    H171219   3.125   2.589   4.194 -0.1254 -0.8710 -0.4076
16576TIP3    H271220   3.270   2.545   4.198 -0.3912 -1.6598  0.7753
16577TIP3   OH271221   6.553   6.661   3.237  0.4432 -0.2320  0.5153
16577TIP3    H171222   6.587   6.728   3.297  1.4372 -0.5127  0.2696
16577TIP3    H271223   6.458   6.669   3.245  0.5548  0.5477  1.2279
16578TIP3   OH271224   1.329   4.922  16.933 -1.0111  0.3337  0.1705
16578TIP3    H171225   1.417   4.917  16.895  0.4003  2.2950  2.9488
16578TIP3    H271226   1.284   4.987  16.880  0.1408  1.2949  0.3279
16579TIP3   OH271227   0.186   5.299   4.336 -0.6015  0.5548 -0.1831
16579TIP3    H171228   0.153   5.314   4.247 -0.4874  3.9339  0.2516
16579TIP3    H271229   0.121   5.341   4.392  0.8131  1.0530  1.1055
16580TIP3   OH271230   0.129   5.106  13.434  0.3862  0.3127  0.2788
16580TIP3    H171231   0.171   5.044  13.375  1.5967 -0.0013  1.4315
16580TIP3    H271232   0.135   5.190  13.388  0.9568  0.0047 -0.2201
16581TIP3   OH271233   4.947   2.264  15.266 -0.5139 -0.3601  0.2017
16581TIP3    H171234   4.975   2.204  15.198  0.0727 -0.3088  0.3962
16581TIP3    H271235   4.951   2.351  15.225 -0.7242 -0.3860  0.1249
16582TIP3   OH271236   5.897   4.714  16.920 -0.0960  0.2062  0.7999
16582TIP3    H171237   5.869   4.741  16.832  0.1512  0.2880  0.7451
16582TIP3    H271238   5.823   4.736  16.976  0.9787  3.2047  1.1459
16583TIP3   OH271239   1.263   2.291  11.467  0.8831  0.1810  0.2875
16583TIP3    H171240   1.251   2.386  11.467 -1.2268 -0.0447  0.9056
16583TIP3    H271241   1.320   2.273  11.542  1.3342  0.9578  0.1337
16584TIP3   OH271242   2.830   0.468   3.285  0.3181 -0.2743  0.2090
16584TIP3    H171243   2.913   0.500   3.249 -0.8397  1.4703 -0.9687
16584TIP3    H271244   2.820   0.381   3.246  1.7119 -0.6220  0.5821
16585TIP3   OH271245   1.289   5.022  13.930  0.4334  0.6138 -0.1054
16585TIP3    H171246   1.224   5.085  13.898 -1.7202 -1.0207  0.9276
16585TIP3    H271247   1.335   5.068  14.000 -1.6545  0.8158  1.1769
16586TIP3   OH271248   2.650   5.829  12.016 -0.2559 -0.8978 -0.3077
16586TIP3    H171249   2.577   5.768  12.022 -1.3930  0.2516 -1.9724
16586TIP3    H271250   2.674   5.847  12.107  0.2007 -3.8840  0.2351
16587TIP3   OH271251   0.080   5.109   2.572  0.4309 -0.2051 -0.2868
16587TIP3    H171252   0.162   5.155   2.554 -0.1722  0.6778 -0.7728
16587TIP3    H271253   0.059   5.064   2.491  0.3672 -0.3360 -0.1988
16588TIP3   OH271254   1.001   1.614  14.717 -0.2119 -0.4750  0.1919
16588TIP3    H171255   1.058   1.637  14.791 -0.4086 -0.7820  0.4397
16588TIP3    H271256   0.976   1.699  14.680  1.1750 -0.3502 -0.5212
16589TIP3   OH271257   1.976   5.107   2.744  0.3912  0.5591  0.2110
16589TIP3    H171258   2.013   5.035   2.795  0.8705  1.3441  0.9816
16589TIP3    H271259   2.014   5.097   2.657  0.1810 -0.3199  0.2078
16590TIP3   OH271260   4.730   5.296   0.933  0.0751  0.3324  0.4145
16590TIP3    H171261   4.666   5.226   0.941  0.4754 -0.1065 -0.1285
16590TIP3    H271262   4.726   5.322   0.841  1.8798 -0.8927 -0.0425
16591TIP3   OH271263   2.131   3.486   4.149  0.2238  0.0392  0.1300
16591TIP3    H171264   2.202   3.427   4.175  2.1401  2.8455  1.5404
16591TIP3    H271265   2.076   3.433   4.091  1.9284 -3.0513  1.2027
16592TIP3   OH271266   3.701   4.429  10.946 -0.2601  0.2634  0.1363
16592TIP3    H171267   3.645   4.352  10.936  0.0609  0.0851 -0.3178
16592TIP3    H271268   3.727   4.452  10.857  0.8736 -0.0289  0.3727
16593TIP3   OH271269   1.002   5.841   0.120  0.4375 -0.2834 -0.1445
16593TIP3    H171270   1.084   5.889   0.133 -0.4210  0.6498  2.0419
16593TIP3    H271271   0.983   5.802   0.205 -1.0245 -1.0768 -0.8202
16594TIP3   OH271272   3.195   0.433   0.282  0.0771  0.1190  0.5360
16594TIP3    H171273   3.141   0.403   0.209  1.2837  0.7431 -0.6334
16594TIP3    H271274   3.133   0.445   0.354 -0.7251 -3.3304  0.5143
16595TIP3   OH271275   1.229   5.915  13.313 -0.3917 -0.5429 -0.7762
16595TIP3    H171276   1.236   5.834  13.261 -0.7474  0.1684 -1.9402
16595TIP3    H271277   1.315   5.955  13.306  0.1446 -1.3651  0.7424
16596TIP3   OH271278   0.811   5.360   4.838 -0.0803  0.1975  0.0880
16596TIP3    H171279   0.768   5.424   4.895 -0.4333 -0.6649  0.8063
16596TIP3    H271280   0.745   5.292   4.825  0.9935 -1.0675  1.0795
16597TIP3   OH271281   6.176   1.027   1.494 -0.2041 -0.3741 -0.1095
16597TIP3    H171282   6.135   1.097   1.444 -0.4195 -0.3007  0.1671
16597TIP3    H271283   6.153   1.046   1.585 -0.3361 -0.8494 -0.0411
16598TIP3   OH271284   0.469   3.951   1.754  0.0592 -0.6037 -0.3743
16598TIP3    H171285   0.498   4.029   1.706  1.0491  0.8295  2.4508
16598TIP3    H271286   0.537   3.886   1.738  1.5099  0.5833  0.8195
16599TIP3   OH271287   6.664   2.801   1.874 -0.2250  0.0208  0.3681
16599TIP3    H171288   6.691   2.788   1.783 -1.8943 -2.1368  0.1508
16599TIP3    H271289   6.692   2.890   1.895 -0.0804  0.6443 -2.3495
16600TIP3   OH271290   1.155   6.017  14.823 -0.1785 -0.6389  0.3122
16600TIP3    H171291   1.196   5.934  14.801 -1.1200 -0.6769 -1.4017
16600TIP3    H271292   1.063   5.995  14.837 -0.3777  0.0611  0.1187
16601TIP3   OH271293   0.683   3.496   6.499 -0.0426  0.2920 -0.2348
16601TIP3    H171294   0.731   3.579   6.502 -0.9984  1.0248 -3.5492
16601TIP3    H271295   0.596   3.518   6.533  0.6293 -0.0905  1.7990
16602TIP3   OH271296   1.859   3.479  16.337 -0.0390 -0.4388  0.1950
16602TIP3    H171297   1.943   3.513  16.366  0.5417 -1.7142  0.0146
16602TIP3    H271298   1.880   3.410  16.275 -1.2342 -0.0572 -0.6676
16603TIP3   OH271299   6.086   6.549   6.149 -0.3592  0.2029  0.0276
16603TIP3    H171300   6.040   6.479   6.195 -0.3481 -0.8212 -1.4910
16603TIP3    H271301   6.029   6.626   6.160 -1.3648 -0.5264  0.0059
16604TIP3   OH271302   4.449   0.380   1.361 -0.0077 -0.3641  0.6160
16604TIP3    H171303   4.380   0.441   1.388  0.4609 -0.8819  3.1448
16604TIP3    H271304   4.418   0.295   1.390  0.9200 -0.8368  0.2236
16605TIP3   OH271305   0.944   6.512  14.456 -0.0544  0.0623  0.0032
16605TIP3    H171306   0.953   6.417  14.447 -1.1503 -0.0793  0.3253
16605TIP3    H271307   0.909   6.540  14.372  0.0454  0.1611 -0.0056
16606TIP3   OH271308   3.283   2.770  11.755  0.2117  0.3489  0.2368
16606TIP3    H171309   3.200   2.794  11.713  0.7474  1.6385 -0.1128
16606TIP3    H271310   3.258   2.706  11.822 -1.2672  1.7777  1.0925
16607TIP3   OH271311   3.972   4.109  13.602  0.0135 -0.0504  0.2804
16607TIP3    H171312   3.878   4.129  13.598  0.2553  0.9056 -0.8995
16607TIP3    H271313   4.009   4.183  13.649  0.0772 -0.8518  1.5203
16608TIP3   OH271314   2.907   4.951   0.356  0.2509 -0.0686 -0.0677
16608TIP3    H171315   2.832   4.996   0.317 -0.7421  0.3992  2.2916
16608TIP3    H271316   2.868   4.877   0.403  1.3596 -0.3839  0.3517
16609TIP3   OH271317   0.928   1.555  11.617  0.7616  0.3142 -0.5229
16609TIP3    H171318   0.928   1.495  11.542 -0.4462 -1.1790  0.6431
16609TIP3    H271319   0.836   1.560  11.644  1.0742  1.4748  0.3731
16610TIP3   OH271320   0.889   6.076   1.055  0.2458  0.1706  0.2180
16610TIP3    H171321   0.819   6.061   0.991  1.6041 -2.2388 -0.7666
16610TIP3    H271322   0.879   6.005   1.119  1.2468  0.3375  0.5712
16611TIP3   OH271323   2.486   5.421  13.413 -0.0700  0.2423 -0.3456
16611TIP3    H171324   2.563   5.406  13.468  0.3440  0.5075 -0.8515
16611TIP3    H271325   2.467   5.336  13.375 -1.2777 -0.2908  1.3861
16612TIP3   OH271326   0.361   5.817   3.921  0.5206  0.1295 -0.7433
16612TIP3    H171327   0.418   5.848   3.991 -1.0019  1.1263  0.0961
16612TIP3    H271328   0.417   5.812   3.843  2.3853 -1.5657  0.6575
16613TIP3   OH271329   0.552   5.490   4.593 -0.4795  0.4753 -0.3380
16613TIP3    H171330   0.527   5.445   4.674 -2.4865  1.8011 -0.1663
16613TIP3    H271331   0.506   5.443   4.524 -0.9630  0.9912 -0.3777
16614TIP3   OH271332   6.784   6.125   0.738 -0.2860  0.0351 -0.3288
16614TIP3    H171333   6.699   6.115   0.695 -1.4786  2.1313  1.4217
16614TIP3    H271334   6.848   6.118   0.667 -1.9609 -0.7583 -1.7969
16615TIP3   OH271335   2.158   3.648  12.130  0.3547 -0.7771 -0.2286
16615TIP3    H171336   2.210   3.580  12.173 -1.7348 -1.1846  1.7495
16615TIP3    H271337   2.189   3.730  12.169  1.5902 -0.7451 -1.2616
16616TIP3   OH271338   4.942   1.588  14.223 -0.9861  0.1907  0.0078
16616TIP3    H171339   5.029   1.622  14.239 -1.2176  0.1624  1.4159
16616TIP3    H271340   4.940   1.505  14.270 -0.7634 -1.3190 -2.5312
16617TIP3   OH271341   3.151   0.900   2.238 -0.0916 -0.1980 -0.3111
16617TIP3    H171342   3.063   0.866   2.254 -0.5817 -0.3083 -3.1104
16617TIP3    H271343   3.161   0.971   2.302 -2.0826 -0.3501  0.2036
16618TIP3   OH271344   5.176   6.101  16.252 -0.3275  0.1980  0.4095
16618TIP3    H171345   5.112   6.127  16.318  0.2389 -1.1137  1.4840
16618TIP3    H271346   5.261   6.119  16.292  0.0400 -1.6266  0.4903
16619TIP3   OH271347   4.960   0.889  13.218  0.1981 -0.3381  0.4711
16619TIP3    H171348   4.991   0.884  13.128  2.0947 -1.5595  1.1667
16619TIP3    H271349   4.869   0.919  13.210  0.6876  0.6833 -1.7638
16620TIP3   OH271350   6.403   2.286   4.301  0.1826  0.3752 -0.5981
16620TIP3    H171351   6.399   2.377   4.272 -1.3887  0.8574  0.9983
16620TIP3    H271352   6.488   2.255   4.271  1.1046  2.6197 -0.4398
16621TIP3   OH271353   4.280   1.770   3.760  0.1146  0.0014 -0.6674
16621TIP3    H171354   4.231   1.851   3.770  0.3217  0.0347  0.1121
16621TIP3    H271355   4.255   1.717   3.836  0.2185 -0.5332 -1.0050
16622TIP3   OH271356   0.815   6.480   1.574 -0.1511  0.1814 -0.5617
16622TIP3    H171357   0.787   6.524   1.494 -0.7537 -0.0835 -0.5001
16622TIP3    H271358   0.907   6.459   1.559  0.2007  1.6542 -0.4950
16623TIP3   OH271359   1.370   2.645   3.878  0.1317  0.1000 -0.0723
16623TIP3    H171360   1.343   2.730   3.842 -0.4880  0.4666  1.2525
16623TIP3    H271361   1.385   2.662   3.971  1.0996 -0.9971 -0.0209
16624TIP3   OH271362   1.454   1.222  13.254 -0.4082 -0.1061 -0.1494
16624TIP3    H171363   1.409   1.145  13.221  0.2655  0.0514 -1.4796
16624TIP3    H271364   1.438   1.221  13.348  0.1353 -2.2306 -0.0492
16625TIP3   OH271365   4.777   2.985   1.242 -0.5994 -0.0444 -0.0414
16625TIP3    H171366   4.862   3.028   1.249 -1.4657  1.7296  0.1427
16625TIP3    H271367   4.775   2.921   1.313 -0.3358  1.6006  1.4794
16626TIP3   OH271368   5.860   0.842  14.415  0.1189  0.7063 -0.5024
16626TIP3    H171369   5.774   0.843  14.375  0.3282 -0.2402 -0.9733
16626TIP3    H271370   5.898   0.758  14.390  1.7014  1.6608 -1.4265
16627TIP3   OH271371   2.700   4.184   3.075  0.1861 -0.4655  0.0349
16627TIP3    H171372   2.613   4.224   3.067  0.5378  0.5081  1.0913
16627TIP3    H271373   2.729   4.205   3.163  2.6986  1.6192 -1.2071
16628TIP3   OH271374   6.727   1.903   4.298  0.3303 -0.5054  0.8074
16628TIP3    H171375   6.756   1.829   4.351  1.1709 -1.3452 -0.8024
16628TIP3    H271376   6.700   1.969   4.362  2.2799 -1.1163  2.2961
16629TIP3   OH271377   0.193   0.045  15.978  0.5415  0.2684 -0.2447
16629TIP3    H171378   0.166   0.057  15.887  0.3762 -0.9277 -0.3635
16629TIP3    H271379   0.258  -0.026  15.975  0.7563  0.4261  0.5300
16630TIP3   OH271380   1.037   4.848   1.591  0.0883  0.0284  0.0245
16630TIP3    H171381   1.022   4.754   1.580 -0.2662 -0.0565  1.1904
16630TIP3    H271382   0.954   4.881   1.626 -0.3853  1.0683 -1.9965
16631TIP3   OH271383   2.035   4.233  12.534  0.0954  0.3508 -0.2048
16631TIP3    H171384   2.038   4.142  12.563 -1.2700  0.6362  0.8905
16631TIP3    H271385   1.952   4.267  12.569  1.7887  2.7653  1.6424
16632TIP3   OH271386   6.745   5.264  12.089 -0.9633  0.1796 -0.2702
16632TIP3    H171387   6.822   5.209  12.072 -0.7133  0.8744 -1.4214
16632TIP3    H271388   6.679   5.203  12.122 -0.5209 -0.7359 -1.0642
16633TIP3   OH271389   3.608   4.007   3.157 -0.2980  0.5435 -0.5753
16633TIP3    H171390   3.528   3.997   3.105 -0.0183 -1.9931 -0.5789
16633TIP3    H271391   3.646   3.919   3.160  1.0962  1.1793  1.6753
16634TIP3   OH271392   0.106   4.600  14.561  0.6381  0.1178 -0.2466
16634TIP3    H171393   0.159   4.680  14.556  0.3296  0.3117 -0.4266
16634TIP3    H271394   0.080   4.583  14.470 -2.6863  2.0923  0.2523
16635TIP3   OH271395   6.146   2.621   3.437 -0.4457 -0.3712  0.7324
16635TIP3    H171396   6.131   2.544   3.382  1.3994  0.9186 -1.6677
16635TIP3    H271397   6.238   2.616   3.461 -0.1738  1.3287  0.1293
16636TIP3   OH271398   6.353   3.402   0.944 -0.2287 -0.1518 -0.3746
16636TIP3    H171399   6.440   3.366   0.963  0.4920  1.3437 -0.7517
16636TIP3    H271400   6.342   3.389   0.850 -0.9201 -1.3933 -0.1344
16637TIP3   OH271401   4.084   5.738  15.401  0.2380  0.2667 -0.2088
16637TIP3    H171402   4.120   5.825  15.419  0.8072 -0.3209  1.6798
16637TIP3    H271403   4.007   5.732  15.458  0.1404 -0.4071 -0.4051
16638TIP3   OH271404   3.248   5.301  16.951 -0.1896 -0.1730  0.1911
16638TIP3    H171405   3.317   5.246  16.987  1.4007  1.5714 -0.1007
16638TIP3    H271406   3.209   5.248  16.881  1.6553 -0.7570 -0.4392
16639TIP3   OH271407   6.369   1.718  16.968 -0.1727  0.4996  0.3037
16639TIP3    H171408   6.411   1.646  17.015 -0.7182  0.3775  0.6073
16639TIP3    H271409   6.307   1.676  16.909  0.5353  0.6527 -0.5626
16640TIP3   OH271410   2.735   1.202   1.798  0.1312 -0.3744 -0.3270
16640TIP3    H171411   2.712   1.132   1.736  0.3582 -1.1471  0.4522
16640TIP3    H271412   2.751   1.156   1.881 -0.7414  0.7023  0.4519
16641TIP3   OH271413   2.476   3.874   6.383 -0.3833  0.0570 -0.0608
16641TIP3    H171414   2.473   3.811   6.455 -1.1958 -0.7068 -0.7438
16641TIP3    H271415   2.471   3.819   6.304 -0.4868  0.9448 -0.6761
16642TIP3   OH271416   2.247   3.986   5.545  0.7024 -0.0092  0.1560
16642TIP3    H171417   2.187   3.913   5.534  1.4292 -0.2769 -2.3554
16642TIP3    H271418   2.300   3.963   5.621  0.0640 -1.4758  0.1619
16643TIP3   OH271419   4.000   4.744   3.857  0.3317  0.0968 -0.6807
16643TIP3    H171420   3.932   4.788   3.807  0.9463  0.0272 -1.5785
16643TIP3    H271421   3.971   4.653   3.864 -0.1121  0.2671 -0.2665
16644TIP3   OH271422   1.152   1.062   4.152  0.1719  0.2660  0.5131
16644TIP3    H171423   1.227   1.022   4.108 -0.4036 -0.5601  0.2608
16644TIP3    H271424   1.086   0.993   4.153 -1.1657  1.4750 -0.7131
16645TIP3   OH271425   4.150   2.229   3.181  0.3398  0.5400 -0.3771
16645TIP3    H171426   4.188   2.154   3.135 -1.6774  0.0937 -1.3895
16645TIP3    H271427   4.121   2.193   3.265  1.0941  0.6281 -0.0738
16646TIP3   OH271428   5.721   5.247   0.688  0.4704  0.2695  0.2787
16646TIP3    H171429   5.664   5.259   0.763  0.9893 -0.5758  0.8142
16646TIP3    H271430   5.806   5.225   0.726  0.4513 -1.3416 -0.5697
16647TIP3   OH271431   5.079   2.880  15.435  0.1068  0.2970  0.2639
16647TIP3    H171432   5.137   2.896  15.360  0.5087 -0.2660  0.4599
16647TIP3    H271433   5.113   2.937  15.504  2.1373 -2.0737  1.2767
16648TIP3   OH271434   3.220   2.847   3.453  0.2081 -0.0548 -0.3768
16648TIP3    H171435   3.272   2.895   3.517 -0.4953  1.0190 -0.6092
16648TIP3    H271436   3.241   2.755   3.470  2.5739  0.3637 -0.7893
16649TIP3   OH271437   0.150   0.199   5.944  0.1336  0.1114 -0.1101
16649TIP3    H171438   0.243   0.181   5.931  0.2189  0.2262  0.3427
16649TIP3    H271439   0.145   0.295   5.949  0.6520  0.0089  4.7041
16650TIP3   OH271440   2.304   0.473  13.636  0.4266 -0.1803  0.0732
16650TIP3    H171441   2.384   0.511  13.601 -0.8056  0.9591 -1.5920
16650TIP3    H271442   2.328   0.442  13.724  2.1942  1.7877  0.3107
16651TIP3   OH271443   3.067   3.761   3.426 -0.0279 -0.2928  0.1870
16651TIP3    H171444   3.091   3.749   3.334 -1.2429  1.4776 -0.4069
16651TIP3    H271445   2.989   3.707   3.437 -0.8243  0.7350 -0.2880
16652TIP3   OH271446   2.079   4.193   2.096 -0.1395  0.1664 -0.0517
16652TIP3    H171447   2.040   4.139   2.027 -1.0709 -0.1748  0.7301
16652TIP3    H271448   2.174   4.184   2.083 -0.3034 -0.3423 -0.9354
16653TIP3   OH271449   0.127   6.615  14.291 -0.1719  0.4481 -0.5004
16653TIP3    H171450   0.107   6.709  14.288 -1.1110  0.2474 -0.7897
16653TIP3    H271451   0.201   6.604  14.231  0.7671  1.1949  0.5043
16654TIP3   OH271452   1.145   1.746   2.576  0.0045  0.5682  0.4116
16654TIP3    H171453   1.168   1.839   2.566  2.3698 -0.0761 -0.5246
16654TIP3    H271454   1.071   1.733   2.517  0.2873  1.6484 -0.1981
16655TIP3   OH271455   2.219   2.851  10.808 -0.1555  0.1112  0.1714
16655TIP3    H171456   2.264   2.789  10.751  1.5102  0.2455  1.3018
16655TIP3    H271457   2.148   2.801  10.848  0.8681 -0.9512  0.6924
16656TIP3   OH271458   5.145   5.236   5.932 -0.4474 -0.2776 -0.4810
16656TIP3    H171459   5.157   5.182   6.011  0.8479 -1.3756 -1.4138
16656TIP3    H271460   5.137   5.173   5.861  3.1108  0.7592 -1.8813
16657TIP3   OH271461   5.339   0.800  13.675 -0.7432 -0.5713 -0.7789
16657TIP3    H171462   5.305   0.881  13.712  0.8423  0.3263 -1.2214
16657TIP3    H271463   5.272   0.734  13.694 -2.3796  0.9829 -1.0421
16658TIP3   OH271464   0.877   6.750  12.752  0.3031  0.2514  0.2042
16658TIP3    H171465   0.856   6.837  12.785 -0.2615 -0.0561  0.6695
16658TIP3    H271466   0.938   6.765  12.680 -0.7652  1.1101 -0.5442
16659TIP3   OH271467   0.501   4.696   2.273  0.6730 -0.2313  0.1926
16659TIP3    H171468   0.509   4.754   2.349  3.2602 -0.8207  0.4147
16659TIP3    H271469   0.512   4.754   2.197 -0.8396  0.1864  0.2768
16660TIP3   OH271470   1.740   6.779   2.765  0.6464  0.0086  0.0301
16660TIP3    H171471   1.644   6.780   2.772  0.7137  1.4289  1.0439
16660TIP3    H271472   1.761   6.690   2.736 -0.9829 -0.2885 -0.3027
16661TIP3   OH271473   4.479   1.529  14.307 -0.2469  0.2688  0.1606
16661TIP3    H171474   4.506   1.543  14.216 -1.2218  1.8145  0.1033
16661TIP3    H271475   4.488   1.434  14.320  2.6880  0.3723 -0.6553
16662TIP3   OH271476   6.267   5.036  12.258  0.3470 -0.5773  0.9349
16662TIP3    H171477   6.176   5.009  12.246  0.7814 -1.6482 -0.0697
16662TIP3    H271478   6.319   4.962  12.225  1.5815  0.1293  1.2397
16663TIP3   OH271479   3.794   0.718  12.649  0.2378  0.4800  0.4514
16663TIP3    H171480   3.757   0.800  12.616 -0.2900 -0.7535 -2.2244
16663TIP3    H271481   3.718   0.661  12.662  0.8129 -0.6028 -0.7889
16664TIP3   OH271482   4.003   1.830  16.400 -0.1919  0.3915  0.7120
16664TIP3    H171483   4.078   1.783  16.364 -1.2340 -0.3673 -0.4995
16664TIP3    H271484   4.026   1.923  16.392 -0.1590  0.2147 -1.3628
16665TIP3   OH271485   2.333   2.936  14.464 -0.0844 -0.3717  0.0445
16665TIP3    H171486   2.388   2.932  14.386 -0.5589  0.0775 -0.3150
16665TIP3    H271487   2.244   2.951  14.431 -0.3225 -0.3999  0.6542
16666TIP3   OH271488   6.585   1.453  11.905  0.5398 -0.2480 -0.1019
16666TIP3    H171489   6.665   1.453  11.958  0.9287  1.1486 -0.6646
16666TIP3    H271490   6.537   1.375  11.934  1.1993 -0.0426  1.6076
16667TIP3   OH271491   3.854   1.547  13.519  0.1159  0.5664 -0.1028
16667TIP3    H171492   3.802   1.467  13.523 -0.2585  0.7606 -0.9574
16667TIP3    H271493   3.797   1.614  13.557 -0.5627  0.9266 -1.7079
16668TIP3   OH271494   5.292   1.525  17.129  0.3355  0.6530  0.2919
16668TIP3    H171495   5.269   1.446  17.079  1.7874  0.4704 -0.0942
16668TIP3    H271496   5.248   1.596  17.081 -0.3566  0.1812  0.2089
16669TIP3   OH271497   4.424   0.840   2.682 -0.2594 -0.4565  0.0276
16669TIP3    H171498   4.440   0.781   2.756  0.6837 -1.3992 -0.9124
16669TIP3    H271499   4.335   0.871   2.695 -0.7071 -1.9532  0.6386
16670TIP3   OH271500   3.601   3.977  12.827 -0.0821 -0.3162  0.3232
16670TIP3    H171501   3.691   4.002  12.847  0.4252 -2.7446  1.2726
16670TIP3    H271502   3.601   3.881  12.830 -2.8957 -0.3575  1.3246
16671TIP3   OH271503   2.277   0.066  15.932  0.1578 -1.0655  0.2627
16671TIP3    H171504   2.293   0.007  15.859  0.3721 -0.7851  0.0833
16671TIP3    H271505   2.363   0.080  15.971 -0.0270 -1.6467  0.9053
16672TIP3   OH271506   2.076   0.425  11.050 -0.1266  0.1583 -0.3477
16672TIP3    H171507   2.003   0.454  11.106 -0.8230 -2.1727  0.0032
16672TIP3    H271508   2.036   0.410  10.964  0.0641 -0.4733 -0.3304
16673TIP3   OH271509   3.257   0.493  14.391  0.2585 -0.3972  0.5925
16673TIP3    H171510   3.180   0.448  14.428 -0.5539 -0.3489 -0.9995
16673TIP3    H271511   3.331   0.458  14.440 -0.8145 -0.1990  2.3827
16674TIP3   OH271512   3.832   3.323  17.290 -0.1313  0.0606 -0.1361
16674TIP3    H171513   3.759   3.275  17.328 -0.8306  0.6231 -0.7399
16674TIP3    H271514   3.794   3.368  17.214  0.4130  1.8343  0.6031
16675TIP3   OH271515   3.475   2.572  15.258  0.7831  0.2014  0.4415
16675TIP3    H171516   3.567   2.552  15.240  1.0585  0.7619  1.1977
16675TIP3    H271517   3.451   2.635  15.190  0.3910 -1.3976 -0.9416
16676TIP3   OH271518   4.535   2.865  10.663 -0.0113  0.3931 -0.1025
16676TIP3    H171519   4.613   2.897  10.617 -0.4006 -0.9590 -1.7414
16676TIP3    H271520   4.471   2.935  10.652  1.3301  2.0855  2.3538
16677TIP3   OH271521   4.234   3.046   2.860 -0.5531 -0.7193  0.3912
16677TIP3    H171522   4.233   3.023   2.767 -4.4024 -0.0886  0.2078
16677TIP3    H271523   4.248   2.963   2.906 -3.6054 -1.8397 -0.6104
16678TIP3   OH271524   3.923   0.958   0.231  0.5146 -0.1684 -0.3240
16678TIP3    H171525   3.869   0.879   0.233  2.0096 -1.2001 -0.5696
16678TIP3    H271526   3.940   0.974   0.139 -1.6151  1.7300 -0.4373
16679TIP3   OH271527   5.886   5.431   0.968 -0.0287  0.2438 -0.4001
16679TIP3    H171528   5.947   5.440   0.895  0.6089  2.0776  0.3197
16679TIP3    H271529   5.890   5.338   0.991  0.6217 -0.1279 -1.9615
16680TIP3   OH271530   3.073   5.792   3.342 -0.0536 -0.1647 -0.1955
16680TIP3    H171531   3.062   5.721   3.279 -1.7169 -0.5707  0.5065
16680TIP3    H271532   3.158   5.831   3.321 -0.4821 -0.4176 -2.5409
16681TIP3   OH271533   2.325   1.198   4.926  0.2668  0.6544 -0.1453
16681TIP3    H171534   2.324   1.165   5.016 -2.2194  1.4331  0.1614
16681TIP3    H271535   2.324   1.119   4.871 -1.7641  0.1609  0.5593
16682TIP3   OH271536   0.806   1.410   5.221  0.0079  0.1936 -0.3061
16682TIP3    H171537   0.815   1.505   5.223 -1.2273  0.3146 -0.1310
16682TIP3    H271538   0.871   1.381   5.157  0.5844  1.1258 -0.1561
16683TIP3   OH271539   5.954   3.135   2.984  0.9322 -0.2991  0.0774
16683TIP3    H171540   5.921   3.220   3.014  1.1468 -0.3549  0.4764
16683TIP3    H271541   5.914   3.072   3.044  0.0548 -0.5714 -0.7680
16684TIP3   OH271542   6.397   2.916  13.256  0.0359  0.1321 -0.0416
16684TIP3    H171543   6.310   2.899  13.219  0.6582 -0.0487 -1.4657
16684TIP3    H271544   6.434   2.983  13.199  1.8929 -1.7544 -1.1070
16685TIP3   OH271545   0.390   4.310  13.228 -0.3931  0.1271  0.3917
16685TIP3    H171546   0.329   4.383  13.215  1.2129  0.9872 -3.2257
16685TIP3    H271547   0.365   4.246  13.161 -0.3748 -1.6856  2.0838
16686TIP3   OH271548   1.779   1.660  12.793 -0.2728 -0.0222 -0.6846
16686TIP3    H171549   1.695   1.706  12.786  0.6915  1.8993 -0.0751
16686TIP3    H271550   1.769   1.603  12.870 -0.5820  1.1711  0.1779
16687TIP3   OH271551   4.027   1.953   4.231 -0.0425  0.3629  0.4762
16687TIP3    H171552   3.935   1.981   4.228 -0.2778 -0.5406 -0.9163
16687TIP3    H271553   4.058   1.984   4.316 -1.5542  0.9264  0.8436
16688TIP3   OH271554   3.750   4.250  12.802  0.7420 -0.2958  0.1923
16688TIP3    H171555   3.815   4.289  12.744 -0.9885  1.2071 -0.7906
16688TIP3    H271556   3.741   4.313  12.874  0.5660 -0.6235  0.4577
16689TIP3   OH271557   0.983   6.683   4.723 -0.3983 -0.6385 -0.0986
16689TIP3    H171558   1.016   6.758   4.772 -0.5810  0.0626 -1.0213
16689TIP3    H271559   1.057   6.656   4.668 -0.9996  0.2706 -1.3924
16690TIP3   OH271560   3.730   3.752   4.987 -0.0780 -0.1240  0.1792
16690TIP3    H171561   3.743   3.746   4.892 -1.6302  0.6347 -0.0903
16690TIP3    H271562   3.718   3.845   5.004 -3.0158 -0.5550  0.6633
16691TIP3   OH271563   5.569   3.704  15.504  0.0158  0.5364 -0.3247
16691TIP3    H171564   5.553   3.618  15.464  0.6676  0.6537 -0.8561
16691TIP3    H271565   5.554   3.766  15.432 -1.8191  0.9700  0.4124
16692TIP3   OH271566   2.319   3.276  13.557  0.6027 -0.2048  0.2415
16692TIP3    H171567   2.343   3.309  13.643 -0.9303  2.3564 -0.2414
16692TIP3    H271568   2.399   3.286  13.505  0.5073  1.8012  0.4203
16693TIP3   OH271569   1.585   2.534  12.753 -0.0145 -0.7324  0.0752
16693TIP3    H171570   1.609   2.558  12.664  0.2431  1.7707  0.7599
16693TIP3    H271571   1.490   2.539  12.755  0.0849  1.8495  0.5677
16694TIP3   OH271572   0.800   0.559  15.602 -0.2014 -0.1953  0.2436
16694TIP3    H171573   0.873   0.576  15.661  0.1401  0.7425 -0.4448
16694TIP3    H271574   0.818   0.472  15.566  1.8227  0.9955 -1.7186
16695TIP3   OH271575   2.506   4.290   4.961  0.0156 -0.8724  0.2890
16695TIP3    H171576   2.546   4.226   5.020 -1.4106 -0.8204  1.3355
16695TIP3    H271577   2.434   4.242   4.919  0.9342 -0.8746 -1.3433
16696TIP3   OH271578   5.258   4.349   2.531 -0.3221  0.1886 -0.4108
16696TIP3    H171579   5.321   4.391   2.590  1.1070 -1.8129 -0.4575
16696TIP3    H271580   5.241   4.264   2.571  0.6347 -1.1992 -2.8102
16697TIP3   OH271581   1.258   4.350  16.736  0.8844  0.1344  0.1509
16697TIP3    H171582   1.181   4.307  16.772  0.1779 -0.1280 -1.6019
16697TIP3    H271583   1.315   4.365  16.811 -0.3823 -0.6975  1.2988
16698TIP3   OH271584   4.530   1.651  14.062 -0.0447  0.4571 -0.6217
16698TIP3    H171585   4.580   1.678  13.985  1.3446  0.5357  0.2891
16698TIP3    H271586   4.488   1.731  14.094  0.8330  0.7780 -0.2561
16699TIP3   OH271587   2.923   0.810   4.036  0.1879  0.3601 -0.1185
16699TIP3    H171588   2.840   0.827   4.080 -0.3064 -2.6766  0.1662
16699TIP3    H271589   2.899   0.789   3.946  0.7328  0.3902 -0.2740
16700TIP3   OH271590   2.229   0.383   0.598  0.4437 -0.0957 -0.0447
16700TIP3    H171591   2.319   0.402   0.625  0.1926  1.1961 -0.0833
16700TIP3    H271592   2.205   0.304   0.646  0.6503  1.0972  2.0776
16701TIP3   OH271593   0.058   4.120   5.214 -0.2286 -0.0705  0.4430
16701TIP3    H171594  -0.023   4.138   5.263 -0.2989  2.4481 -0.5217
16701TIP3    H271595   0.052   4.027   5.191 -2.2388 -0.2234  1.4904
16702TIP3   OH271596   3.959   6.506   3.776  0.1138  0.3432 -0.0303
16702TIP3    H171597   3.870   6.504   3.740 -1.0733 -0.6544  2.7860
16702TIP3    H271598   3.956   6.574   3.844  1.0278 -0.8755  1.2470
16703TIP3   OH271599   0.411   5.972   2.629 -0.2715 -0.0635 -0.2576
16703TIP3    H171600   0.475   5.947   2.695 -0.8542  1.0683  0.7587
16703TIP3    H271601   0.380   6.059   2.657 -1.6081 -0.2199 -1.1858
16704TIP3   OH271602   3.357   6.718   5.382 -0.0064  0.2588  0.2535
16704TIP3    H171603   3.274   6.750   5.348 -0.0864 -1.3348 -1.1361
16704TIP3    H271604   3.399   6.675   5.307  1.5562  0.0368  1.2214
16705TIP3   OH271605   6.495   2.918  16.543 -0.0666 -0.3792  0.0306
16705TIP3    H171606   6.515   3.008  16.570  0.1321 -0.4759  0.2055
16705TIP3    H271607   6.566   2.895  16.483 -1.1584  0.2642 -1.5286
16706TIP3   OH271608   0.797   4.181  13.089  0.3519 -0.1300 -0.1861
16706TIP3    H171609   0.841   4.179  13.004 -1.4141 -0.7122 -1.1027
16706TIP3    H271610   0.717   4.132  13.076 -0.2313  0.2859  1.6728
16707TIP3   OH271611   5.823   2.949   4.426  0.3549  0.3290 -0.2098
16707TIP3    H171612   5.855   2.981   4.341 -0.3202 -1.8372 -1.3142
16707TIP3    H271613   5.793   2.860   4.408  3.0149 -1.2917  2.9565
16708TIP3   OH271614   2.537   4.136   0.871 -0.1239  0.8995  0.3650
16708TIP3    H171615   2.531   4.158   0.964  1.4805  1.4446  0.3656
16708TIP3    H271616   2.609   4.191   0.838  0.1397 -0.1745 -0.9176
16709TIP3   OH271617   3.918   5.886  16.656 -0.9023  0.2329  1.0181
16709TIP3    H171618   4.000   5.837  16.660  0.5664  2.5183 -0.3323
16709TIP3    H271619   3.943   5.978  16.667 -3.1884  1.0488 -0.1742
16710TIP3   OH271620   5.056   2.930   4.375 -0.1555 -0.6967 -0.2852
16710TIP3    H171621   5.040   2.835   4.376  0.4826 -0.8012  1.3008
16710TIP3    H271622   5.082   2.951   4.464 -0.2067  0.9772 -0.6431
16711TIP3   OH271623   1.455   0.630   2.845 -0.3876 -0.5004  0.0425
16711TIP3    H171624   1.389   0.627   2.776  0.8461 -1.4712 -1.1087
16711TIP3    H271625   1.479   0.722   2.852 -2.1630 -0.0554  0.7902
16712TIP3   OH271626   6.528   3.510  16.588 -0.3684  0.4371 -0.0274
16712TIP3    H171627   6.443   3.479  16.619  0.4119 -2.7911 -0.9226
16712TIP3    H271628   6.580   3.519  16.668 -0.2871 -1.7215  0.1958
16713TIP3   OH271629   1.764   3.608   3.751  0.0744  0.3558 -0.1700
16713TIP3    H171630   1.774   3.513   3.761 -2.3234  0.0841 -0.1916
16713TIP3    H271631   1.824   3.645   3.815  3.5608 -1.1007 -2.4230
16714TIP3   OH271632   2.482   1.286   5.844 -0.3129 -0.1825 -0.3982
16714TIP3    H171633   2.553   1.334   5.802 -0.1153 -0.8350 -0.8187
16714TIP3    H271634   2.525   1.211   5.885 -1.0119 -1.7053 -2.3889
16715TIP3   OH271635   5.108   5.693  12.149 -0.2601 -0.1296  0.1435
16715TIP3    H171636   5.066   5.617  12.190  1.2626  0.5433  3.0911
16715TIP3    H271637   5.199   5.690  12.181  0.1997  2.0846 -0.8754
16716TIP3   OH271638   3.287   6.735  10.482 -0.4779  0.0209 -0.0364
16716TIP3    H171639   3.195   6.713  10.468 -0.3740  0.2267 -1.0982
16716TIP3    H271640   3.331   6.651  10.493 -0.6042 -0.1460 -0.7692
16717TIP3   OH271641   4.451   3.970  14.421  0.3836 -0.1964  0.1484
16717TIP3    H171642   4.514   3.922  14.475  0.5640 -0.9705 -0.7457
16717TIP3    H271643   4.491   4.056  14.409  1.0693 -0.5357 -0.0416
16718TIP3   OH271644   3.992   2.353   2.705 -0.3856  0.2079 -0.0427
16718TIP3    H171645   3.957   2.410   2.773 -0.7787  0.2741 -0.3081
16718TIP3    H271646   3.941   2.372   2.627 -0.5412 -0.5208 -0.1273
16719TIP3   OH271647   1.034   5.200   4.878  0.0849  0.2657  0.1344
16719TIP3    H171648   0.951   5.244   4.862  1.2782  2.8720  0.8275
16719TIP3    H271649   1.055   5.221   4.970  1.0570 -1.1304  0.2496
16720TIP3   OH271650   0.231   0.747  14.103  0.6512  0.0782 -0.2103
16720TIP3    H171651   0.266   0.736  14.015  0.7894 -2.6058  0.1384
16720TIP3    H271652   0.141   0.775  14.090  0.4842 -0.9185 -1.2172
16721TIP3   OH271653   2.787   2.192   0.427  0.0958 -0.6871 -0.4858
16721TIP3    H171654   2.878   2.212   0.448 -0.2682  0.6828 -0.1731
16721TIP3    H271655   2.736   2.263   0.468 -1.0279 -0.8761 -1.5083
16722TIP3   OH271656   0.148   4.793   3.866 -0.1281 -0.4702  0.1384
16722TIP3    H171657   0.115   4.704   3.850 -0.7646 -0.2415  0.1612
16722TIP3    H271658   0.080   4.850   3.831 -0.1198  0.0175  0.9022
16723TIP3   OH271659   4.896   3.958   1.826 -0.1622  0.1266 -0.1089
16723TIP3    H171660   4.838   4.021   1.870 -2.0320 -1.2086 -0.5780
16723TIP3    H271661   4.963   4.012   1.784 -1.1211  1.7297  0.3804
16724TIP3   OH271662   3.450   5.163   3.422  0.0022  0.1871 -0.0528
16724TIP3    H171663   3.527   5.212   3.393  0.6912 -0.7125  0.2414
16724TIP3    H271664   3.385   5.177   3.353  0.3978  1.0290 -0.2497
16725TIP3   OH271665   3.589   4.161  14.174  0.0624  0.2019  0.0695
16725TIP3    H171666   3.587   4.066  14.177 -1.1705  0.2368  0.5289
16725TIP3    H271667   3.557   4.183  14.086 -0.4152  0.2088  0.2426
16726TIP3   OH271668   0.564   0.422   5.576  0.5135 -0.3931  0.2697
16726TIP3    H171669   0.531   0.509   5.596 -0.2141 -0.5220 -0.3300
16726TIP3    H271670   0.485   0.370   5.561  0.9923 -0.6672 -1.3926
16727TIP3   OH271671   3.908   1.041  14.197 -0.0238 -0.0390  0.2295
16727TIP3    H171672   3.995   1.076  14.212 -0.1179 -0.4341  1.7993
16727TIP3    H271673   3.923   0.956  14.155  0.3785 -0.3407  0.9712
16728TIP3   OH271674   0.389   1.107  16.908 -0.2734 -0.0901 -0.0683
16728TIP3    H171675   0.427   1.160  16.838  2.6294  0.2317  1.6300
16728TIP3    H271676   0.348   1.172  16.967  1.2307  0.0956  0.8044
16729TIP3   OH271677   3.962   4.051  14.376  0.1783  0.1109 -0.2305
16729TIP3    H171678   3.989   3.991  14.306 -0.8585 -1.3147  0.5629
16729TIP3    H271679   4.040   4.102  14.395  0.7461 -0.1508 -1.7719
16730TIP3   OH271680   4.384   5.028  13.065  0.5470  0.5189  0.1473
16730TIP3    H171681   4.372   4.998  12.975  0.2759  0.9257  0.0510
16730TIP3    H271682   4.464   5.080  13.063  0.9751 -0.1166  0.2989
16731TIP3   OH271683   0.710   2.734  11.762  0.0275  0.1703 -0.3465
16731TIP3    H171684   0.753   2.663  11.714  0.9364  1.3695 -1.3428
16731TIP3    H271685   0.617   2.727  11.737 -0.2341 -1.8008  1.0363
16732TIP3   OH271686   2.230   0.170   5.861 -0.0389  0.4667 -0.0983
16732TIP3    H171687   2.189   0.236   5.805 -2.3295 -0.4345  0.4595
16732TIP3    H271688   2.241   0.214   5.946 -2.0480 -0.0057  0.4255
16733TIP3   OH271689   6.003   4.870  12.543  0.0045  0.0040 -0.4096
16733TIP3    H171690   6.021   4.783  12.579  0.8464 -1.1579 -3.4123
16733TIP3    H271691   6.061   4.929  12.592  1.5814 -1.5910 -0.2725
16734TIP3   OH271692   0.030   4.935  14.895  0.6129 -0.1581  0.4055
16734TIP3    H171693   0.020   5.030  14.902  1.0724 -0.1315  0.7315
16734TIP3    H271694  -0.013   4.912  14.813  1.8872  0.5323 -0.4653
16735TIP3   OH271695   2.317   2.747  13.610  0.2939  0.4175  0.2683
16735TIP3    H171696   2.293   2.839  13.600 -0.7070  0.1891  0.5390
16735TIP3    H271697   2.362   2.725  13.528  0.9284  1.2605  0.3860
16736TIP3   OH271698   2.265   5.584   3.708  0.1422 -0.5329 -0.4484
16736TIP3    H171699   2.346   5.579   3.759  0.5719 -1.1942 -1.1743
16736TIP3    H271700   2.270   5.509   3.648 -0.0388  0.6074 -1.9169
16737TIP3   OH271701   5.482   2.673   0.125  0.1213 -0.5107  0.1209
16737TIP3    H171702   5.523   2.590   0.102 -0.5968 -0.5257 -1.1257
16737TIP3    H271703   5.411   2.649   0.185  0.1246 -0.7632  0.0228
16738TIP3   OH271704   1.328   0.645  14.652  0.3253 -0.0586 -0.1445
16738TIP3    H171705   1.240   0.634  14.689  0.3412 -0.9202 -0.3487
16738TIP3    H271706   1.374   0.700  14.716 -0.1075 -0.2884  0.3739
16739TIP3   OH271707   1.780   6.690   2.075  0.6042  0.5052 -0.6048
16739TIP3    H171708   1.763   6.601   2.045  0.3300  0.6147 -0.7789
16739TIP3    H271709   1.721   6.745   2.023 -0.1361  0.6552  0.3733
16740TIP3   OH271710   6.452   5.963   4.168 -0.7187 -0.2562 -0.0863
16740TIP3    H171711   6.536   5.918   4.166 -1.1921 -1.2058  0.6434
16740TIP3    H271712   6.419   5.948   4.257 -0.2837  2.6710  0.5918
16741TIP3   OH271713   0.077   2.230  15.021 -0.0097  0.0484  0.3282
16741TIP3    H171714   0.002   2.176  15.047  0.9561 -0.3791  2.2968
16741TIP3    H271715   0.127   2.243  15.101  1.5723  1.0650 -0.7834
16742TIP3   OH271716   4.043   1.870  11.635 -0.3467 -0.6333  0.4874
16742TIP3    H171717   4.057   1.940  11.572 -2.1408 -0.5543  0.1475
16742TIP3    H271718   4.126   1.863  11.682  0.6886 -0.0184 -1.1953
16743TIP3   OH271719   5.957   5.751   3.539  0.0404  0.4596  0.2376
16743TIP3    H171720   6.018   5.688   3.501 -1.2607 -0.0475 -1.0555
16743TIP3    H271721   5.871   5.724   3.506 -0.7781  1.7034  1.3027
16744TIP3   OH271722   1.574   5.877  16.868 -0.2042 -0.1360 -0.1049
16744TIP3    H171723   1.650   5.925  16.901 -2.0784  1.9551  1.3500
16744TIP3    H271724   1.602   5.785  16.868  2.9415  0.7495 -1.4400
16745TIP3   OH271725   0.433   5.587  16.221  0.5680  0.2498 -0.4470
16745TIP3    H171726   0.359   5.648  16.218 -1.8209 -2.5365 -0.0053
16745TIP3    H271727   0.471   5.600  16.308 -0.9799 -0.0649  0.2885
16746TIP3   OH271728   0.123   0.059  14.735  0.4318  0.1920  0.0672
16746TIP3    H171729   0.207   0.070  14.689  0.0079 -1.0170 -1.0117
16746TIP3    H271730   0.060   0.107  14.681  0.0250 -0.7995 -0.3482
16747TIP3   OH271731   6.551   5.774  12.593  0.8196  0.4453  0.0683
16747TIP3    H171732   6.563   5.850  12.650 -0.5262  1.4178 -0.9185
16747TIP3    H271733   6.627   5.777  12.534  1.2348  0.5102  0.6007
16748TIP3   OH271734   1.684   0.421  15.648  0.1353  0.6164  0.5708
16748TIP3    H171735   1.701   0.342  15.699  0.4453 -0.8400 -1.7080
16748TIP3    H271736   1.671   0.490  15.714  1.8019 -0.9089  2.5621
16749TIP3   OH271737   3.273   1.974   3.927  0.0482  0.1323 -0.8047
16749TIP3    H171738   3.321   2.035   3.982 -0.6930  0.4121 -0.4538
16749TIP3    H271739   3.326   1.895   3.926 -0.4966 -0.2880  1.2944
16750TIP3   OH271740   2.968   5.952   4.898 -0.0449 -0.5668 -0.8826
16750TIP3    H171741   2.975   5.926   4.990 -0.8063  1.4094 -0.2198
16750TIP3    H271742   2.936   5.874   4.853  0.1683 -1.5065  0.5631
16751TIP3   OH271743   1.526   2.743  13.070  0.1705  0.1926 -0.1334
16751TIP3    H171744   1.448   2.778  13.112 -0.2312 -0.3579 -0.4262
16751TIP3    H271745   1.524   2.779  12.982  0.7903  1.0026  0.1706
16752TIP3   OH271746   2.771   0.558   3.568 -0.1566  0.2191 -0.2903
16752TIP3    H171747   2.816   0.618   3.626 -0.4348 -0.5360  0.7213
16752TIP3    H271748   2.831   0.545   3.495  0.8143  0.0402  0.5361
16753TIP3   OH271749   6.789   3.863  11.348 -0.2378  0.1913  0.0189
16753TIP3    H171750   6.843   3.797  11.390 -1.2131 -1.0852 -0.7179
16753TIP3    H271751   6.838   3.888  11.270 -0.6338 -0.8824 -0.5854
16754TIP3   OH271752   1.096   0.770   5.595  0.2837  0.0632 -0.1689
16754TIP3    H171753   1.072   0.700   5.535 -0.7454  1.1467 -1.0438
16754TIP3    H271754   1.020   0.780   5.653  1.1085 -0.7019  1.0613
16755TIP3   OH271755   2.212   4.319  15.530  0.5324 -0.2292  0.6349
16755TIP3    H171756   2.237   4.349  15.443 -0.4504  0.3558  0.5563
16755TIP3    H271757   2.116   4.315  15.528  0.4381  1.0871  2.1179
16756TIP3   OH271758   1.572   5.479   2.127 -0.6733  0.7991  0.2152
16756TIP3    H171759   1.609   5.434   2.050 -0.9881  0.8703  0.0240
16756TIP3    H271760   1.582   5.572   2.107 -0.6830  0.8176  0.2973
16757TIP3   OH271761   5.172   2.393  12.472  0.0728 -0.5765 -0.1280
16757TIP3    H171762   5.242   2.342  12.431  1.3736  0.6361  0.5141
16757TIP3    H271763   5.096   2.380  12.416  1.4153 -0.1072 -2.0915
16758TIP3   OH271764   2.510   1.788   4.534 -0.1231 -0.2674 -0.3937
16758TIP3    H171765   2.499   1.849   4.461  3.4336 -0.2914 -1.0563
16758TIP3    H271766   2.478   1.836   4.610 -0.3017  1.2197 -1.3909
16759TIP3   OH271767   4.837   2.096  16.866 -0.2887 -0.6929 -0.3995
16759TIP3    H171768   4.827   2.007  16.830 -1.7388 -0.4061 -0.7134
16759TIP3    H271769   4.895   2.084  16.941 -1.9057 -2.1971  0.6468
16760TIP3   OH271770   4.682   4.424   1.925 -0.6942  0.1131 -0.4150
16760TIP3    H171771   4.657   4.356   1.987 -1.1728 -0.6863 -1.4873
16760TIP3    H271772   4.601   4.473   1.908 -0.5971  0.2300 -0.5475
16761TIP3   OH271773   1.385   1.919  13.029 -0.0916  0.4458 -0.3193
16761TIP3    H171774   1.308   1.872  12.997  1.1521 -0.1369 -2.5326
16761TIP3    H271775   1.366   1.935  13.122 -1.6462 -2.1663 -0.1419
16762TIP3   OH271776   4.241   0.596   3.203 -0.4529  0.6397 -0.4526
16762TIP3    H171777   4.206   0.622   3.289 -0.6876  1.3804 -0.7680
16762TIP3    H271778   4.180   0.634   3.140 -2.0651 -2.5326 -0.9047
16763TIP3   OH271779   1.553   0.223  11.347 -0.0585 -0.0864 -0.2539
16763TIP3    H171780   1.493   0.149  11.334  0.5624 -0.6338  0.0036
16763TIP3    H271781   1.540   0.249  11.438  0.3532 -0.4332 -0.0951
16764TIP3   OH271782   5.454   0.924   1.451 -0.0263  0.2851 -0.2518
16764TIP3    H171783   5.514   0.881   1.391  1.5099  0.1647  1.3175
16764TIP3    H271784   5.422   0.853   1.507  1.0891  0.8712  1.1565
16765TIP3   OH271785   4.077   3.279   0.611 -0.1453  0.2416  0.0901
16765TIP3    H171786   4.015   3.241   0.549  1.1616 -1.3534 -0.2460
16765TIP3    H271787   4.115   3.204   0.656  2.1634  1.1457 -0.2971
16766TIP3   OH271788   1.835   1.509   4.490  0.1587 -0.1525 -0.1198
16766TIP3    H171789   1.845   1.496   4.585 -1.7053 -2.7700 -0.2012
16766TIP3    H271790   1.829   1.604   4.479  0.6933  0.2026  2.3598
16767TIP3   OH271791   1.289   2.020  14.208  0.9499  0.1155  0.1984
16767TIP3    H171792   1.300   2.098  14.263 -1.7180 -0.9356  2.3199
16767TIP3    H271793   1.333   1.950  14.257  0.3328 -0.4176 -0.0065
16768TIP3   OH271794   5.847   6.424   0.620 -0.1420  0.0680  0.6055
16768TIP3    H171795   5.751   6.422   0.624 -0.1817 -1.7823 -0.7046
16768TIP3    H271796   5.866   6.468   0.537  0.1315 -0.2783  0.4829
16769TIP3   OH271797   6.424   0.019  11.202  0.4396  0.4666  0.1749
16769TIP3    H171798   6.484   0.013  11.127  0.2436 -1.1844  0.1123
16769TIP3    H271799   6.422  -0.070  11.237 -1.9769  0.4876  0.1636
16770TIP3   OH271800   4.440   4.877   2.297  0.4401 -0.2355 -0.6031
16770TIP3    H171801   4.388   4.900   2.220  0.9366  0.6269 -0.6910
16770TIP3    H271802   4.466   4.961   2.334  0.0787 -0.6338  0.6023
16771TIP3   OH271803   5.671   2.752  15.298  0.0850 -0.4165  0.1289
16771TIP3    H171804   5.595   2.755  15.357  0.4648 -1.0350  0.6592
16771TIP3    H271805   5.744   2.726  15.354  0.6256 -0.1625 -0.4462
16772TIP3   OH271806   5.195   1.671  11.660  0.1750 -0.2877 -0.6778
16772TIP3    H171807   5.229   1.748  11.614  1.3350 -0.6339 -0.4284
16772TIP3    H271808   5.142   1.707  11.730 -2.6552  0.2476 -2.9893
16773TIP3   OH271809   4.381   4.541  13.197 -0.0319 -0.3017 -0.0373
16773TIP3    H171810   4.307   4.540  13.137  0.4492 -1.4991 -0.6379
16773TIP3    H271811   4.430   4.620  13.175 -0.8676  0.2418  0.0439
16774TIP3   OH271812   2.221   4.011   1.360  0.0514  0.5646  0.2488
16774TIP3    H171813   2.126   4.012   1.345  0.3083  1.0281 -1.5309
16774TIP3    H271814   2.244   3.918   1.362 -0.2757  0.4588 -0.5547
16775TIP3   OH271815   2.733   4.652  16.443 -0.0546 -0.3033  0.2089
16775TIP3    H171816   2.659   4.668  16.384  1.2544 -0.7683 -1.6304
16775TIP3    H271817   2.694   4.641  16.529 -2.1247 -0.4827 -0.7219
16776TIP3   OH271818   5.574   3.491  12.522 -0.0837  0.0332  0.0345
16776TIP3    H171819   5.619   3.442  12.590  1.1153  0.2744 -0.5766
16776TIP3    H271820   5.525   3.424  12.472 -1.0383 -0.1291  1.1648
16777TIP3   OH271821   0.161   3.539   5.215 -0.1449 -0.9063  0.9628
16777TIP3    H171822   0.246   3.500   5.194  0.0321 -0.8448  1.5616
16777TIP3    H271823   0.179   3.598   5.288  0.3446  3.2775 -2.3356
16778TIP3   OH271824   1.079   0.979   0.687 -0.1644 -0.1298 -0.1159
16778TIP3    H171825   0.993   1.012   0.660 -1.0710 -1.3923  1.1851
16778TIP3    H271826   1.101   1.030   0.765  0.9964  1.2844 -1.3501
16779TIP3   OH271827   0.643   0.516   0.365  0.3244 -0.2657  0.2687
16779TIP3    H171828   0.675   0.430   0.338  0.2191 -0.1323 -0.2802
16779TIP3    H271829   0.679   0.528   0.453  0.2958 -0.8911  0.3662
16780TIP3   OH271830   5.453   4.656  12.470 -0.1178 -0.0905  1.2487
16780TIP3    H171831   5.393   4.683  12.401  0.8676  0.2357  0.5065
16780TIP3    H271832   5.538   4.647  12.426  0.9199  1.8878  2.7240
16781TIP3   OH271833   6.475   3.407  14.558  0.5612  0.1828  0.6773
16781TIP3    H171834   6.456   3.483  14.613 -0.8191  2.3480 -2.6499
16781TIP3    H271835   6.393   3.388  14.512  2.0267 -0.6337 -1.7231
16782TIP3   OH271836   6.686   2.076   1.557  0.1225  0.7853  0.2691
16782TIP3    H171837   6.688   2.075   1.653 -0.3959  0.6113  0.2784
16782TIP3    H271838   6.774   2.048   1.531  0.2222  0.6995  0.6912
16783TIP3   OH271839   0.778   6.402   4.214 -0.4121  0.2393  0.3109
16783TIP3    H171840   0.697   6.379   4.259 -1.0062 -1.0679 -1.3925
16783TIP3    H271841   0.777   6.351   4.133  0.9944  1.9831 -0.8552
16784TIP3   OH271842   0.860   4.760  13.684 -0.0876  0.3985  0.1836
16784TIP3    H171843   0.913   4.831  13.721 -0.3772  0.6893  0.0350
16784TIP3    H271844   0.849   4.783  13.592 -0.2747  0.2186  0.1598
16785TIP3   OH271845   0.313   5.300  12.487  0.2900 -0.1424  0.2720
16785TIP3    H171846   0.248   5.233  12.465  1.9267 -2.3413  1.9268
16785TIP3    H271847   0.366   5.309  12.408 -0.3890 -0.2649 -0.2007
16786TIP3   OH271848   2.873   2.901  14.415  0.4142 -0.5536  0.2363
16786TIP3    H171849   2.841   2.820  14.378  1.0238 -0.6694 -0.0493
16786TIP3    H271850   2.965   2.906  14.387  1.0352 -0.8924  2.1198
16787TIP3   OH271851   6.254   4.879   4.531  0.1396  0.2952 -0.2538
16787TIP3    H171852   6.199   4.804   4.508  1.1280 -1.4646  2.8400
16787TIP3    H271853   6.336   4.863   4.485 -0.2797  0.4503 -1.0669
16788TIP3   OH271854   5.939   2.985  16.692  0.2777 -0.1439 -0.3887
16788TIP3    H171855   6.021   3.018  16.657  0.8431 -0.3521  0.7105
16788TIP3    H271856   5.920   3.041  16.768  0.2096 -1.0656  0.2838
16789TIP3   OH271857   5.100   5.791  11.445 -0.4802  0.2816  0.5146
16789TIP3    H171858   5.063   5.848  11.512 -0.3835  1.7234 -0.6548
16789TIP3    H271859   5.026   5.767  11.389 -0.2175  0.6491  0.0066
16790TIP3   OH271860   3.424   0.085   3.745 -0.2582 -0.4410 -0.2695
16790TIP3    H171861   3.486   0.031   3.794 -0.0773 -1.4800 -1.6054
16790TIP3    H271862   3.344   0.083   3.797  0.2035 -0.7752  0.4379
16791TIP3   OH271863   4.992   1.136  12.369 -0.2824 -0.0540 -0.5300
16791TIP3    H171864   4.990   1.218  12.417 -2.5764  0.1334 -0.9165
16791TIP3    H271865   4.990   1.161  12.277  0.7558 -0.5047 -0.6822
16792TIP3   OH271866   0.080   0.614  11.992  0.6812 -0.4659 -0.3669
16792TIP3    H171867   0.018   0.669  11.946  0.3123 -0.5537  0.0278
16792TIP3    H271868   0.145   0.675  12.028  0.2150 -0.2737  0.1630
16793TIP3   OH271869   3.800   5.613   3.175 -0.0655  0.3280 -0.0915
16793TIP3    H171870   3.843   5.639   3.257 -2.1627  0.4182  1.0229
16793TIP3    H271871   3.869   5.618   3.109  1.8082 -0.3055  1.7674
16794TIP3   OH271872   6.804   3.890  12.224 -0.0598  0.3104 -0.0561
16794TIP3    H171873   6.739   3.827  12.193  1.1211 -1.3486  0.7718
16794TIP3    H271874   6.755   3.972  12.235 -1.6486 -0.4941 -0.9833
16795TIP3   OH271875   3.988   6.815  11.723 -0.0218 -0.0050 -0.1151
16795TIP3    H171876   4.050   6.811  11.796 -0.1176 -0.1487 -0.0413
16795TIP3    H271877   3.946   6.900  11.732  2.3887  1.4359 -1.9896
16796TIP3   OH271878   5.523   6.005  14.153 -0.6320 -0.3152  0.1327
16796TIP3    H171879   5.451   6.065  14.171  0.1106  0.8539 -0.7207
16796TIP3    H271880   5.481   5.924  14.124 -1.5836  0.8951 -1.9938
16797TIP3   OH271881   4.787   2.963   5.219  0.4696  0.4289 -0.0676
16797TIP3    H171882   4.852   2.909   5.263  0.5296 -0.2519 -0.9785
16797TIP3    H271883   4.825   3.050   5.218  0.4589  0.4615  1.2372
16798TIP3   OH271884   3.401   1.848   3.090 -0.0476 -0.3096 -0.4616
16798TIP3    H171885   3.394   1.868   2.996 -2.3105 -1.8549 -0.6587
16798TIP3    H271886   3.396   1.753   3.095 -0.6430 -0.2038  1.2762
16799TIP3   OH271887   1.557   2.591   3.450 -0.1205 -0.7445 -0.7649
16799TIP3    H171888   1.594   2.503   3.440 -0.8807 -1.2426  0.7490
16799TIP3    H271889   1.492   2.597   3.380  1.0710 -0.7744 -1.8963
16800TIP3   OH271890   4.031   1.302  15.081 -0.0540  0.1768  0.6503
16800TIP3    H171891   4.091   1.373  15.103  0.3122 -0.0757  0.4737
16800TIP3    H271892   3.967   1.343  15.023  0.0937  0.3886  0.6361
16801TIP3   OH271893   3.560   4.926  14.566  0.6429 -0.5768 -0.4484
16801TIP3    H171894   3.574   5.020  14.555 -2.2950 -0.2655 -1.9174
16801TIP3    H271895   3.605   4.905  14.648  2.5096  1.8037 -0.8006
16802TIP3   OH271896   2.187   4.746   4.576 -0.1459 -0.2499 -0.1751
16802TIP3    H171897   2.122   4.677   4.592 -1.0357  0.8980  1.2591
16802TIP3    H271898   2.266   4.715   4.621 -0.5257 -0.3489  0.4222
16803TIP3   OH271899   1.670   5.675   1.404  0.0796 -0.0372  0.3518
16803TIP3    H171900   1.651   5.607   1.340 -1.6414  0.2951  0.4943
16803TIP3    H271901   1.765   5.672   1.414  0.1657 -1.4436 -0.7084
16804TIP3   OH271902   5.069   3.837  16.494  0.6641 -0.0582 -0.3540
16804TIP3    H171903   5.127   3.762  16.505  0.2374 -0.4386 -0.6667
16804TIP3    H271904   5.122   3.912  16.519  0.4293 -0.6600  2.0123
16805TIP3   OH271905   5.426   0.567   6.483 -0.4541 -0.2599 -0.4823
16805TIP3    H171906   5.411   0.475   6.465 -2.8660 -0.1538  0.7051
16805TIP3    H271907   5.359   0.613   6.431 -1.1378  0.6092  1.1189
16806TIP3   OH271908   0.299   0.643  12.959  0.5095 -0.0985 -0.2783
16806TIP3    H171909   0.250   0.723  12.976 -0.7468 -1.1491  1.2444
16806TIP3    H271910   0.252   0.575  13.007  1.1388 -1.8911 -2.0933
16807TIP3   OH271911   0.098   0.030   0.197 -0.4261  0.0695 -0.0960
16807TIP3    H171912   0.150  -0.050   0.184 -0.0835  0.0919  1.0665
16807TIP3    H271913   0.058   0.047   0.112 -0.9107 -1.6379 -0.2299
16808TIP3   OH271914   5.196   1.776   5.853 -0.1437  0.6404  1.0186
16808TIP3    H171915   5.241   1.852   5.818  0.6739  1.8943  4.5632
16808TIP3    H271916   5.103   1.792   5.835  0.4091 -0.0865 -2.8410
16809TIP3   OH271917   1.962   2.158  11.458 -0.1505  0.4908 -0.1741
16809TIP3    H171918   1.872   2.168  11.427 -0.3510  0.8078  0.5010
16809TIP3    H271919   2.008   2.235  11.424 -0.2075  0.4807 -0.2719
16810TIP3   OH271920   0.600   4.872  16.265  0.1333  0.1639  0.4388
16810TIP3    H171921   0.569   4.956  16.300  0.6586  0.3551  0.4508
16810TIP3    H271922   0.696   4.879  16.267  0.1764  0.0217 -0.6546
16811TIP3   OH271923   6.228   0.988   0.273 -0.3802  0.3699 -0.2680
16811TIP3    H171924   6.238   0.992   0.368  0.0051 -0.6516 -0.2601
16811TIP3    H271925   6.172   1.062   0.252 -1.2071  0.0818  0.8618
16812TIP3   OH271926   4.441   0.376   5.943 -0.2598  0.6361 -0.2712
16812TIP3    H171927   4.486   0.459   5.932 -1.3615  1.5801  2.0155
16812TIP3    H271928   4.366   0.396   5.998 -0.3381 -1.9394  0.6588
16813TIP3   OH271929   5.748   5.667  12.362 -0.1387  0.3638  0.0361
16813TIP3    H171930   5.707   5.697  12.443 -1.0328  2.0542 -1.0172
16813TIP3    H271931   5.825   5.617  12.391 -0.1441  1.4094  1.9105
16814TIP3   OH271932   2.428   6.604   0.094  0.4333 -0.3934  0.3789
16814TIP3    H171933   2.355   6.570   0.146 -1.1340  1.5802 -0.4934
16814TIP3    H271934   2.412   6.698   0.087  2.6357 -0.0536 -0.5026
16815TIP3   OH271935   0.332   2.775   6.012 -0.2546  0.0415 -0.2450
16815TIP3    H171936   0.298   2.695   5.973 -0.2642  0.1748 -0.5143
16815TIP3    H271937   0.411   2.748   6.058  0.2336  0.0216 -1.0757
16816TIP3   OH271938   2.451   6.560  13.921 -0.1804  0.3555 -0.1948
16816TIP3    H171939   2.434   6.615  13.844 -1.6798  0.6028  0.2830
16816TIP3    H271940   2.468   6.473  13.885  2.6560  1.2013 -0.9795
16817TIP3   OH271941   0.749   0.468  11.430 -0.0774 -0.4258 -0.4037
16817TIP3    H171942   0.709   0.382  11.418  1.3474 -0.9952 -1.1783
16817TIP3    H271943   0.797   0.484  11.349  2.8648 -0.6148  1.2319
16818TIP3   OH271944   4.624   5.365  11.992  0.1762  0.0029  0.5895
16818TIP3    H171945   4.581   5.439  12.035 -0.5865  1.1385 -2.0115
16818TIP3    H271946   4.673   5.405  11.919  0.1977 -1.9845 -0.5181
16819TIP3   OH271947   1.677   6.477   4.629 -0.5482  0.0526 -0.3376
16819TIP3    H171948   1.607   6.413   4.615 -0.1867 -0.5902  0.7652
16819TIP3    H271949   1.726   6.478   4.546 -1.3257 -0.1409 -0.8051
16820TIP3   OH271950   0.327   6.606   4.828  0.4144  0.0106 -0.1978
16820TIP3    H171951   0.339   6.517   4.863  0.3292  0.1816  0.2606
16820TIP3    H271952   0.412   6.648   4.841  0.0051  0.4922  0.9904
16821TIP3   OH271953   6.463   6.020  13.844 -0.2874 -0.1333 -0.0694
16821TIP3    H171954   6.498   6.013  13.755  0.7997  1.1478  0.2418
16821TIP3    H271955   6.445   6.113  13.855 -0.6910 -0.3250  0.9567
16822TIP3   OH271956   6.439   1.999  12.916 -0.0134 -0.3155 -0.5199
16822TIP3    H171957   6.411   1.946  12.842  2.2318 -0.9663 -0.9265
16822TIP3    H271958   6.445   1.938  12.989  0.8075 -0.2620 -0.5463
16823TIP3   OH271959   2.439   2.336   2.816  0.2654  0.3823  0.4845
16823TIP3    H171960   2.436   2.241   2.825  0.5759  0.4485  1.2654
16823TIP3    H271961   2.433   2.369   2.905 -1.7664  1.1433  0.0877
16824TIP3   OH271962   2.159   1.678  11.440 -0.6759  0.2044 -0.5236
16824TIP3    H171963   2.093   1.744  11.462 -0.0857  0.6963 -0.2091
16824TIP3    H271964   2.110   1.597  11.431 -1.4189  0.6980 -0.9639
16825TIP3   OH271965   4.742   1.040   5.086  0.0329  0.0093  0.3770
16825TIP3    H171966   4.712   0.950   5.083  0.0409 -0.0812  2.3445
16825TIP3    H271967   4.739   1.070   4.995 -1.0198 -1.6153 -0.1337
16826TIP3   OH271968   4.190   2.335   4.157 -0.4141 -0.0562  0.3186
16826TIP3    H171969   4.267   2.283   4.178  0.4076  1.9316  2.4198
16826TIP3    H271970   4.224   2.412   4.113 -1.3390  0.2177  0.0689
16827TIP3   OH271971   4.628   2.476  17.236  0.2132  0.2314  0.0519
16827TIP3    H171972   4.570   2.550  17.255  1.3435  0.9254  0.9114
16827TIP3    H271973   4.678   2.504  17.160 -1.4028 -0.8571 -1.4381
16828TIP3   OH271974   4.283   2.211   0.080 -0.5508 -0.2801 -0.6584
16828TIP3    H171975   4.253   2.282   0.022 -1.2588  1.8656  2.2150
16828TIP3    H271976   4.377   2.224   0.086 -0.5300 -0.2556 -0.9837
16829TIP3   OH271977   3.201   3.075  11.564 -0.0085 -0.3270  0.5750
16829TIP3    H171978   3.292   3.056  11.587  0.0597 -0.1886  0.4221
16829TIP3    H271979   3.207   3.133  11.488 -0.2346 -1.2945 -0.1947
16830TIP3   OH271980   5.261   5.521   0.147  0.2757  0.2500  0.5931
16830TIP3    H171981   5.218   5.508   0.232 -0.5713  2.3252  0.5035
16830TIP3    H271982   5.195   5.499   0.082 -0.0700  1.6010  0.4695
16831TIP3   OH271983   0.985   5.956  14.410 -0.0714  0.2396  0.4960
16831TIP3    H171984   0.898   5.952  14.448  0.3487 -1.0594  1.3222
16831TIP3    H271985   0.971   5.937  14.317 -0.8696  1.7302  0.2950
16832TIP3   OH271986   5.377   6.469   1.884 -0.4885 -0.1924 -0.7289
16832TIP3    H171987   5.451   6.436   1.833  0.8234 -1.1208  1.6798
16832TIP3    H271988   5.411   6.548   1.927 -1.4858  0.4397 -1.1032
16833TIP3   OH271989   0.985   2.546  17.168  0.2282 -0.4476  0.0903
16833TIP3    H171990   0.911   2.592  17.208 -0.5471 -0.9138 -0.8045
16833TIP3    H271991   1.049   2.615  17.149  0.2601 -0.1181  1.3700
16834TIP3   OH271992   5.944   6.059   5.982  0.0013  0.2443 -0.1005
16834TIP3    H171993   5.948   6.064   5.886  1.1848  0.4629 -0.0555
16834TIP3    H271994   6.015   6.117   6.011 -0.7170  0.6180  0.9216
16835TIP3   OH271995   5.394   0.084   0.142  0.1156 -0.2231  0.5764
16835TIP3    H171996   5.405   0.039   0.058  1.1743 -0.7381  0.9760
16835TIP3    H271997   5.478   0.071   0.187 -0.7643 -0.7846  2.1108
16836TIP3   OH271998   5.762   6.017   0.529  0.4686  0.1244  0.1706
16836TIP3    H171999   5.716   6.076   0.588  0.8420  0.5326  0.0606
16836TIP3    H272000   5.826   5.971   0.584 -0.1780 -0.5603  0.3531
16837TIP3   OH272001   2.776   1.295  15.330 -0.2427  0.4795 -0.2893
16837TIP3    H172002   2.705   1.239  15.298 -0.0763  0.0450  0.0945
16837TIP3    H272003   2.840   1.297  15.260  0.7328 -1.5346  0.5052
16838TIP3   OH272004   5.504   3.884  14.839  0.1130  0.0072 -0.9664
16838TIP3    H172005   5.598   3.897  14.850 -0.0086  0.0458  0.0906
16838TIP3    H272006   5.481   3.934  14.761  0.7497  1.0516 -0.4919
16839TIP3   OH272007   0.195   3.785  14.808  0.4472 -0.5650  0.7064
16839TIP3    H172008   0.156   3.767  14.723  1.0468 -1.3132  0.5821
16839TIP3    H272009   0.189   3.880  14.818  1.3640 -0.3595 -0.6527
16840TIP3   OH272010   2.853   0.094  12.512  0.2335 -0.5005  0.1060
16840TIP3    H172011   2.773   0.144  12.497  1.2814  1.4025  0.6607
16840TIP3    H272012   2.865   0.097  12.607  1.5853  0.2545 -0.0800
16841TIP3   OH272013   4.877   0.480  15.633  0.3712 -0.1938 -0.1931
16841TIP3    H172014   4.850   0.498  15.723 -0.0544  0.8602 -0.5277
16841TIP3    H272015   4.868   0.564  15.588  2.0882 -0.3467 -0.8481
16842TIP3   OH272016   2.604   0.274  11.226 -0.5575 -0.3875  0.0151
16842TIP3    H172017   2.524   0.312  11.189 -0.3143  0.1717  0.0585
16842TIP3    H272018   2.628   0.205  11.164 -0.1070  0.6042 -0.9266
16843TIP3   OH272019   5.715   6.674  16.255 -0.3137 -0.1833 -0.0968
16843TIP3    H172020   5.712   6.759  16.211 -2.5152  0.7981  1.7753
16843TIP3    H272021   5.807   6.650  16.256  0.2239  1.7200 -1.5584
16844TIP3   OH272022   3.858   4.600   4.583 -0.4351  0.5389  0.4740
16844TIP3    H172023   3.799   4.588   4.509  0.3015  0.6787 -0.1458
16844TIP3    H272024   3.942   4.566   4.552 -0.0390  0.9155  1.1217
16845TIP3   OH272025   4.814   4.619   4.070 -0.1412  0.6773  0.3110
16845TIP3    H172026   4.770   4.657   3.994 -0.9100  0.3537  0.5906
16845TIP3    H272027   4.907   4.628   4.051 -0.2980 -1.6544 -1.8017
16846TIP3   OH272028   0.093   6.054   4.835  0.5252  0.5380 -0.0697
16846TIP3    H172029   0.146   6.033   4.758  1.5622 -0.6266  0.9383
16846TIP3    H272030   0.062   6.143   4.819  0.9536  0.4115 -1.7092
16847TIP3   OH272031   2.736   5.032  15.984  0.0256  0.2068  0.5925
16847TIP3    H172032   2.825   5.034  16.020  0.0936  0.7827  0.3994
16847TIP3    H272033   2.727   5.115  15.938 -0.5889  0.1162  0.5435
16848TIP3   OH272034   0.786   6.069  16.439 -0.2580 -0.3300 -0.1432
16848TIP3    H172035   0.778   6.025  16.355  0.6377  1.4384 -1.1878
16848TIP3    H272036   0.842   6.145  16.421 -1.7041  1.2022  1.6068
16849TIP3   OH272037   1.935   5.704  11.399 -0.2140 -0.3686  0.4309
16849TIP3    H172038   1.921   5.738  11.310  1.0931 -0.7090  0.0883
16849TIP3    H272039   2.028   5.683  11.402 -0.6275 -2.0954  1.2784
16850TIP3   OH272040   2.307   4.657  16.567 -0.3919  0.0732  0.2259
16850TIP3    H172041   2.257   4.653  16.649 -1.9209 -0.7101 -0.7251
16850TIP3    H272042   2.263   4.725  16.516  0.1106  0.0466 -0.2437
16851TIP3   OH272043   6.179   3.631  16.568 -0.0030  0.5898  0.8450
16851TIP3    H172044   6.096   3.583  16.566  0.7468 -0.8104  2.0336
16851TIP3    H272045   6.211   3.628  16.478 -0.6950  0.1448  0.6096
16852TIP3   OH272046   2.438   1.402   6.371  0.1273  0.3658 -0.2153
16852TIP3    H172047   2.417   1.431   6.459  1.8458  0.4247  0.1828
16852TIP3    H272048   2.390   1.320   6.361 -0.0143  0.3187  0.7915
16853TIP3   OH272049   6.737   4.111   1.765  0.0611 -0.4452 -0.6866
16853TIP3    H172050   6.722   4.057   1.843  0.2941  3.5156  2.2433
16853TIP3    H272051   6.827   4.091   1.740  1.0311  0.4363  1.9392
16854TIP3   OH272052   6.320   3.748  11.567  0.0688  0.1986  0.2121
16854TIP3    H172053   6.304   3.826  11.620  0.0610  0.4825 -0.2014
16854TIP3    H272054   6.322   3.781  11.477 -3.4153 -0.7907 -0.2960
16855TIP3   OH272055   6.065   5.931  15.692 -0.3479 -0.1640 -0.4162
16855TIP3    H172056   6.058   6.023  15.719  0.0663 -0.1632 -0.3126
16855TIP3    H272057   5.997   5.886  15.743  0.8841 -0.2826  1.1608
16856TIP3   OH272058   6.055   6.334  11.121 -0.4211  0.1161 -0.0668
16856TIP3    H172059   6.148   6.323  11.100 -0.6832 -3.0054  0.1916
16856TIP3    H272060   6.009   6.315  11.039 -0.8891  0.8275  0.0213
16857TIP3   OH272061   2.775   1.492  16.409 -0.3688 -0.1043 -0.0841
16857TIP3    H172062   2.824   1.473  16.489  0.5908 -1.3084 -0.9493
16857TIP3    H272063   2.753   1.585  16.416 -0.5910 -0.2682  1.7311
16858TIP3   OH272064   1.852   6.176   0.687 -0.6056 -0.1939  0.1439
16858TIP3    H172065   1.796   6.239   0.641 -2.7620 -0.6222  2.1093
16858TIP3    H272066   1.806   6.092   0.679  0.4909 -0.8505  0.5418
16859TIP3   OH272067   2.856   2.517   3.810 -0.5673  0.4956  0.6322
16859TIP3    H172068   2.893   2.590   3.761 -2.5199  1.0487 -0.0549
16859TIP3    H272069   2.929   2.456   3.821  0.0276  0.5019 -2.7085
16860TIP3   OH272070   5.694   3.668   4.208  0.0130  0.0342 -0.1980
16860TIP3    H172071   5.684   3.675   4.113 -2.2520 -0.7272 -0.0266
16860TIP3    H272072   5.611   3.700   4.243 -0.2673 -2.3752  1.4294
16861TIP3   OH272073   2.324   5.279  15.935 -0.3481 -0.5453 -0.2749
16861TIP3    H172074   2.388   5.256  16.003  1.1710 -0.3893 -1.6202
16861TIP3    H272075   2.272   5.199  15.922 -0.2934 -0.7378  0.6872
16862TIP3   OH272076   6.596   2.638  16.345 -0.7116 -0.6835 -0.4789
16862TIP3    H172077   6.656   2.578  16.301  0.5758  0.2419  0.0128
16862TIP3    H272078   6.598   2.718  16.292 -2.8695 -1.2295 -1.4620
16863TIP3   OH272079   1.838   2.007  12.630 -0.5581  0.2607  0.6568
16863TIP3    H172080   1.791   2.059  12.565  0.6153  1.9118  1.0824
16863TIP3    H272081   1.914   1.973  12.583 -1.0610 -0.6754  0.5104
16864TIP3   OH272082   0.580   5.768  17.204  0.1953  0.2517  1.0331
16864TIP3    H172083   0.652   5.828  17.221 -0.8598  1.3871  1.5766
16864TIP3    H272084   0.503   5.813  17.238 -0.6067 -1.4515  1.5489
16865TIP3   OH272085   3.650   6.442  14.691  0.1643  0.4875  0.1248
16865TIP3    H172086   3.584   6.402  14.634 -1.5749  0.5924  1.9744
16865TIP3    H272087   3.685   6.368  14.741 -0.6457  0.7964  1.1738
16866TIP3   OH272088   2.631   3.370  12.670 -0.1922  0.1754 -0.3870
16866TIP3    H172089   2.648   3.422  12.749 -1.6572  1.0540 -0.6249
16866TIP3    H272090   2.676   3.287  12.685  1.1421  1.0516  0.5398
16867TIP3   OH272091   5.827   4.957   2.068 -0.9148 -0.3747  0.2884
16867TIP3    H172092   5.749   4.988   2.113 -0.7417  2.0971 -1.0222
16867TIP3    H272093   5.898   5.013   2.099 -0.1651 -0.8328 -0.5388
16868TIP3   OH272094   4.967   6.593   3.408 -0.0514 -0.0554  0.1371
16868TIP3    H172095   4.935   6.513   3.367 -1.4454 -0.0376  1.1437
16868TIP3    H272096   5.062   6.586   3.403 -0.1665 -1.5643 -0.1813
16869TIP3   OH272097   4.027   0.987   3.730  0.1973  0.8559  0.3343
16869TIP3    H172098   4.011   0.911   3.787 -0.1970  2.0346  1.8143
16869TIP3    H272099   3.963   1.052   3.758 -0.3548  1.2926 -1.8233
16870TIP3   OH272100   1.421   0.754   2.451  0.3666 -0.1118 -0.3886
16870TIP3    H172101   1.489   0.822   2.451  0.5757 -0.3218  0.1703
16870TIP3    H272102   1.466   0.675   2.420  0.5096 -0.3773  0.4751
16871TIP3   OH272103   4.358   6.191   3.108 -0.7604 -0.1677 -0.4036
16871TIP3    H172104   4.275   6.212   3.066 -1.4320 -0.3906  0.7662
16871TIP3    H272105   4.348   6.224   3.198  0.2115 -0.6505 -0.1124
16872TIP3   OH272106   5.783   0.581   4.786  0.0374  0.0520 -0.7585
16872TIP3    H172107   5.868   0.598   4.746  0.0841  0.9512 -0.2727
16872TIP3    H272108   5.803   0.558   4.877 -0.5166  5.1667  0.7974
16873TIP3   OH272109   2.565   0.624  17.085 -0.0648 -0.2149  0.3864
16873TIP3    H172110   2.549   0.676  17.006  0.7667 -1.8620 -0.8768
16873TIP3    H272111   2.638   0.668  17.127  0.5081 -0.2339 -0.5787
16874TIP3   OH272112   6.604   2.724  15.611  0.3355 -0.5897 -0.3989
16874TIP3    H172113   6.698   2.725  15.596  0.2395  0.0114 -0.9719
16874TIP3    H272114   6.582   2.631  15.618  1.0747 -0.7015  0.4290
16875TIP3   OH272115   1.135   0.610   0.117  0.3368  0.7164  0.1053
16875TIP3    H172116   1.059   0.657   0.152  0.7122  0.5242  1.2020
16875TIP3    H272117   1.116   0.518   0.134 -0.1649  0.4918 -1.5792
16876TIP3   OH272118   0.805   4.168   0.172 -0.1797 -0.3557  0.7809
16876TIP3    H172119   0.809   4.262   0.192  2.1666 -0.2092 -0.2799
16876TIP3    H272120   0.827   4.125   0.254  1.2161  0.0812  0.6409
16877TIP3   OH272121   4.131   5.741  16.636 -0.0569  0.7083  0.4070
16877TIP3    H172122   4.071   5.678  16.676  0.3720  0.2394  0.3322
16877TIP3    H272123   4.189   5.687  16.583  1.7247  0.8997  2.0747
16878TIP3   OH272124   0.955   4.462  14.694  0.4284 -0.0890  0.3533
16878TIP3    H172125   1.030   4.441  14.638  0.3404 -0.6848  0.4597
16878TIP3    H272126   0.922   4.545  14.659  1.0720  0.1249  0.2420
16879TIP3   OH272127   0.895   1.693   1.135 -0.2998  0.2583  0.1822
16879TIP3    H172128   0.881   1.786   1.115  0.6450  0.0759 -1.4110
16879TIP3    H272129   0.990   1.685   1.144 -0.2575 -0.7988 -1.0253
16880TIP3   OH272130   2.773   4.196   3.333  0.4609 -0.1314 -0.5351
16880TIP3    H172131   2.738   4.108   3.350  2.0358 -0.7729 -0.5079
16880TIP3    H272132   2.713   4.254   3.379 -0.9118 -1.1408 -0.9896
16881TIP3   OH272133   4.462   5.597  13.459 -0.7396  0.1371  0.3488
16881TIP3    H172134   4.444   5.572  13.549  3.0289 -1.8152  0.7107
16881TIP3    H272135   4.399   5.547  13.407  0.7492 -3.2525  1.6481
16882TIP3   OH272136   4.440   1.331  15.851 -0.0610 -0.4581  0.1494
16882TIP3    H172137   4.419   1.378  15.770 -0.8746 -0.5034  0.3279
16882TIP3    H272138   4.375   1.260  15.855  1.9204 -2.3994 -0.7673
16883TIP3   OH272139   2.422   0.058  17.252  0.0831  0.1352 -0.2371
16883TIP3    H172140   2.499   0.108  17.278  0.3232 -0.3318 -0.0245
16883TIP3    H272141   2.414   0.073  17.158  1.0228 -0.5954 -0.4522
16884TIP3   OH272142   5.990   0.651  13.393  0.5114 -0.1623 -0.4671
16884TIP3    H172143   6.019   0.740  13.410 -0.0325  0.5111 -2.8873
16884TIP3    H272144   6.068   0.605  13.362  0.4173 -0.0586 -0.8628
16885TIP3   OH272145   4.002   1.712   2.885  0.1907 -0.3220 -0.4210
16885TIP3    H172146   4.002   1.760   2.802 -1.3389  0.5824  0.0820
16885TIP3    H272147   3.965   1.627   2.863 -0.6874  0.0931 -0.5858
16886TIP3   OH272148   4.132   5.342  15.343  0.0446 -0.0774 -0.1667
16886TIP3    H172149   4.158   5.298  15.263  0.2450  2.1869 -1.3861
16886TIP3    H272150   4.214   5.377  15.379 -0.5417  2.2750 -1.0667
16887TIP3   OH272151   0.027   3.261  17.057  0.0125  0.0313  0.3975
16887TIP3    H172152   0.065   3.176  17.035 -1.5948 -0.6838  0.2613
16887TIP3    H272153   0.006   3.300  16.972  0.0027  0.2018  0.4801
16888TIP3   OH272154   1.441   2.910  12.843 -0.3032 -0.0543  0.1738
16888TIP3    H172155   1.371   2.946  12.788 -0.6369  0.7661  1.1071
16888TIP3    H272156   1.500   2.867  12.782 -0.4281  1.2259 -0.8855
16889TIP3   OH272157   6.590   4.233  10.637 -0.7071  0.3781 -0.0604
16889TIP3    H172158   6.680   4.230  10.605 -1.0226 -0.6194 -0.9135
16889TIP3    H272159   6.538   4.196  10.565 -2.0864  3.2331 -0.6083
16890TIP3   OH272160   0.222   1.893   2.518  0.0674 -0.3165  0.4648
16890TIP3    H172161   0.147   1.838   2.495 -0.8759  1.1961 -0.1905
16890TIP3    H272162   0.272   1.900   2.437 -0.9665  1.5138 -0.0410
16891TIP3   OH272163   0.180   2.155   5.085  0.1546  0.0625 -0.2269
16891TIP3    H172164   0.247   2.157   5.154  1.2264 -1.4236 -1.1939
16891TIP3    H272165   0.100   2.130   5.130  0.6127  0.1580  0.6596
16892TIP3   OH272166   3.999   1.503   3.442  0.0809 -0.2869  0.4834
16892TIP3    H172167   4.010   1.496   3.537  0.1399 -0.6178  0.4536
16892TIP3    H272168   4.078   1.463   3.406 -0.2803 -0.8401  0.2885
16893TIP3   OH272169   0.050   4.138   3.385 -0.1807  0.3355 -0.4754
16893TIP3    H172170  -0.024   4.080   3.366 -1.5285  1.4593  1.1009
16893TIP3    H272171   0.010   4.211   3.433  1.3775  2.7690 -2.7134
16894TIP3   OH272172   3.434   4.086  14.490  0.2658 -0.0663 -0.1239
16894TIP3    H172173   3.394   4.170  14.472 -1.0123 -0.7629 -0.5748
16894TIP3    H272174   3.528   4.102  14.482  0.0450  1.3557  0.0038
16895TIP3   OH272175   1.403   0.687  10.999 -0.2070  0.4507 -0.2113
16895TIP3    H172176   1.409   0.728  10.913 -2.5750 -1.1315 -1.1929
16895TIP3    H272177   1.459   0.740  11.055  1.5529  1.3718 -2.7681
16896TIP3   OH272178   5.968   6.580   3.595 -0.0278 -0.2875  0.4459
16896TIP3    H172179   5.999   6.614   3.511 -1.1832 -0.1144  0.0688
16896TIP3    H272180   6.043   6.535   3.632  1.1821  1.6427  0.4091
16897TIP3   OH272181   6.513   0.905   1.079 -1.0746 -0.2642  0.2616
16897TIP3    H172182   6.605   0.913   1.053 -0.9465 -2.5938 -0.0868
16897TIP3    H272183   6.517   0.872   1.169 -1.5868 -1.2354 -0.0758
16898TIP3   OH272184   2.452   2.833  15.720  0.2453  0.2648  0.5287
16898TIP3    H172185   2.434   2.926  15.734 -1.0793  0.1824 -0.5226
16898TIP3    H272186   2.520   2.812  15.784  0.2989  1.8646  1.0238
16899TIP3   OH272187   4.802   0.935  12.321  0.0304 -0.0709  0.8467
16899TIP3    H172188   4.734   0.982  12.274 -1.0046  1.6139  3.8726
16899TIP3    H272189   4.873   0.999  12.332  0.1870 -0.3689  1.6823
16900TIP3   OH272190   2.795   5.395  15.291 -0.0489 -0.4402 -0.1353
16900TIP3    H172191   2.844   5.323  15.331  0.4598 -1.5047 -2.5469
16900TIP3    H272192   2.818   5.472  15.343  0.9052 -1.6802  1.3180
16901TIP3   OH272193   2.998   4.887   3.495  0.2272 -0.1006  0.4009
16901TIP3    H172194   3.063   4.839   3.547 -1.1006  0.3533  2.5327
16901TIP3    H272195   2.961   4.821   3.437 -0.2858 -1.2700  2.0322
16902TIP3   OH272196   0.261   3.659   0.936  0.5353  0.6760  0.0774
16902TIP3    H172197   0.268   3.713   1.015 -0.4045  0.6430  0.1912
16902TIP3    H272198   0.212   3.714   0.874 -2.5606 -0.9023  1.0110
16903TIP3   OH272199   0.789   1.755  11.346  0.1415  0.1521  0.1418
16903TIP3    H172200   0.842   1.727  11.421  0.6958 -0.7372 -0.5685
16903TIP3    H272201   0.726   1.684  11.335 -1.8388  1.6272  1.5582
16904TIP3   OH272202   1.531   4.178   1.401 -0.2867  0.4531 -0.4252
16904TIP3    H172203   1.516   4.087   1.424  0.4559  0.0526 -1.4649
16904TIP3    H272204   1.609   4.176   1.344 -0.8296  1.6165 -1.2375
16905TIP3   OH272205   0.460   4.614  16.347 -0.4251 -0.1226 -0.0810
16905TIP3    H172206   0.483   4.699  16.311 -1.2981 -0.1292 -0.6704
16905TIP3    H272207   0.393   4.633  16.413 -1.2837 -0.4225 -0.8437
16906TIP3   OH272208   1.727   4.980   3.290 -0.2268  0.1579 -0.2989
16906TIP3    H172209   1.757   4.982   3.199  0.1037  0.5344 -0.1834
16906TIP3    H272210   1.807   4.967   3.341 -0.0983  2.4062  0.0896
16907TIP3   OH272211   1.661   6.505  12.067 -0.3797 -0.5460 -0.2557
16907TIP3    H172212   1.631   6.572  12.128 -1.8300 -1.4049 -0.0082
16907TIP3    H272213   1.648   6.545  11.980 -2.3139 -0.9030 -0.1615
16908TIP3   OH272214   4.934   1.909   4.063 -0.1868  0.2884 -0.3763
16908TIP3    H172215   4.940   1.989   4.010  2.3727  1.1837  1.1954
16908TIP3    H272216   4.975   1.842   4.009  0.0594  0.6177 -0.6023
16909TIP3   OH272217   5.709   3.380  15.011  0.3726  0.4152 -0.1025
16909TIP3    H172218   5.777   3.440  15.041  0.0686  0.3006  0.8320
16909TIP3    H272219   5.755   3.299  14.991  0.3294 -0.1650  2.0061
16910TIP3   OH272220   4.716   2.776  12.351 -0.8415 -0.5057 -0.0330
16910TIP3    H172221   4.697   2.833  12.277 -1.7418 -0.1081  0.4927
16910TIP3    H272222   4.805   2.744  12.335 -0.4034  0.8819 -0.4326
16911TIP3   OH272223   3.815   3.107  11.661 -0.0958 -0.5524  0.1745
16911TIP3    H172224   3.910   3.114  11.660 -0.1559  0.3355  0.4379
16911TIP3    H272225   3.796   3.025  11.615  0.7494 -0.2572 -0.6999
16912TIP3   OH272226   6.387   3.967   2.043  0.1142 -0.3249 -0.0978
16912TIP3    H172227   6.325   3.916   1.992  1.6777 -1.7667 -0.6020
16912TIP3    H272228   6.397   4.049   1.995 -1.6968  0.1040  0.2211
16913TIP3   OH272229   5.455   3.269  11.581  0.0983 -0.1233 -0.2325
16913TIP3    H172230   5.440   3.261  11.486 -0.3655 -0.8378 -0.1065
16913TIP3    H272231   5.390   3.333  11.610 -0.6017 -0.8266 -0.2071
16914TIP3   OH272232   0.477   4.791   1.975  0.4394 -0.6042 -0.7014
16914TIP3    H172233   0.464   4.878   1.938  0.2125 -0.8858 -1.3027
16914TIP3    H272234   0.397   4.774   2.025  0.3633 -0.5743 -0.8119
16915TIP3   OH272235   0.409   2.551  11.153  0.1655 -0.4051  0.0152
16915TIP3    H172236   0.449   2.494  11.087 -1.4669 -2.5463  0.8277
16915TIP3    H272237   0.421   2.505  11.235  2.9407  2.6461  1.4229
16916TIP3   OH272238   6.066   1.968  15.166  0.2087 -0.2878  0.0300
16916TIP3    H172239   6.080   1.912  15.089  1.0060  1.9152 -1.4836
16916TIP3    H272240   5.973   1.990  15.162  0.2560 -0.1482 -0.3231
16917TIP3   OH272241   4.062   0.524  14.255 -0.1472  0.1897  0.2122
16917TIP3    H172242   4.058   0.506  14.349  1.5319  1.5311  0.5896
16917TIP3    H272243   4.153   0.504  14.231 -0.1694  1.2109 -0.8012
16918TIP3   OH272244   4.649   4.039   5.149  0.6494 -1.1936 -0.2980
16918TIP3    H172245   4.689   4.112   5.197 -0.8280 -0.8432  0.4241
16918TIP3    H272246   4.555   4.048   5.166  0.2801 -2.1126 -1.8251
16919TIP3   OH272247   5.152   4.281  12.009 -0.6582  0.5260  0.1741
16919TIP3    H172248   5.135   4.358  11.955  1.1559  1.7911  1.3470
16919TIP3    H272249   5.229   4.240  11.971 -0.7198  0.1368  0.4598
16920TIP3   OH272250   5.997   1.697   6.251 -0.2902 -0.8754 -0.1675
16920TIP3    H172251   6.042   1.715   6.334 -0.8515 -0.4541  0.0449
16920TIP3    H272252   5.917   1.651   6.276 -0.1024 -1.4096 -0.5303
16921TIP3   OH272253   5.982   5.045  14.500 -0.3438 -0.2797  0.5866
16921TIP3    H172254   6.015   5.060  14.588  0.1411 -2.5646  0.8041
16921TIP3    H272255   6.001   4.953  14.482  1.2749  0.5846 -2.6118
16922TIP3   OH272256   2.860   5.205  14.369  0.1091  0.3746  0.6131
16922TIP3    H172257   2.795   5.156  14.420 -2.1573 -0.3465 -2.8357
16922TIP3    H272258   2.927   5.141  14.348 -0.1640  0.0700  0.6682
16923TIP3   OH272259   4.362   5.763   5.088 -0.3337  0.1799  0.2302
16923TIP3    H172260   4.354   5.827   5.158 -1.2548 -0.2780  0.5430
16923TIP3    H272261   4.274   5.727   5.077  0.2029 -1.1421  0.1710
16924TIP3   OH272262   0.652   4.462  10.474 -0.0954 -0.2061 -0.4114
16924TIP3    H172263   0.594   4.520  10.523 -0.8257 -1.0160 -0.3149
16924TIP3    H272264   0.594   4.407  10.422  0.6277 -0.2495 -1.1939
16925TIP3   OH272265   5.372   0.500  16.327 -0.1024 -0.0806  0.8520
16925TIP3    H172266   5.279   0.521  16.339  0.0546 -0.5283  3.0134
16925TIP3    H272267   5.402   0.471  16.413  1.9278 -0.4530  0.0589
16926TIP3   OH272268   5.003   3.247  16.856  0.1107  0.7470  0.4685
16926TIP3    H172269   5.056   3.218  16.930  0.5021  1.3348  0.4216
16926TIP3    H272270   4.913   3.231  16.883  0.3139 -0.4306  0.4722
16927TIP3   OH272271   5.198   3.651  14.035 -0.3062  0.0987 -0.8895
16927TIP3    H172272   5.109   3.620  14.052 -0.5403  1.9972  1.6592
16927TIP3    H272273   5.191   3.701  13.954 -1.3691 -0.5237 -1.1864
16928TIP3   OH272274   1.183   4.979  11.418  0.3654 -0.6394  0.4214
16928TIP3    H172275   1.261   5.022  11.452 -0.3644  2.1752 -1.2679
16928TIP3    H272276   1.176   5.009  11.327 -2.7439 -0.6922  0.5649
16929TIP3   OH272277   2.702   4.904   1.303 -0.2641  0.5077  0.1052
16929TIP3    H172278   2.631   4.960   1.273 -3.1982 -2.5481  0.9983
16929TIP3    H272279   2.714   4.840   1.232  0.0684 -0.2878  0.8643
16930TIP3   OH272280   1.863   3.243  12.791 -0.2224 -0.4424 -0.1223
16930TIP3    H172281   1.779   3.200  12.803 -0.9233  0.8430 -0.3680
16930TIP3    H272282   1.863   3.314  12.856 -0.3338  1.0287 -1.6944
16931TIP3   OH272283   2.111   5.864   2.482 -0.1306  0.2549  0.1454
16931TIP3    H172284   2.175   5.801   2.450  0.1180 -0.6728  2.3959
16931TIP3    H272285   2.163   5.937   2.515 -0.3048  0.1506  0.6445
16932TIP3   OH272286   5.683   3.146  11.977  1.0014 -0.6200  0.3417
16932TIP3    H172287   5.759   3.088  11.972  1.7587  0.2313  1.8515
16932TIP3    H272288   5.713   3.221  12.028 -0.2397  0.7030 -0.8222
16933TIP3   OH272289   6.593   0.429  13.974  0.6243 -1.1561  0.1618
16933TIP3    H172290   6.598   0.382  14.057 -0.2074 -1.6518 -0.0682
16933TIP3    H272291   6.510   0.476  13.977  0.7415 -0.9096 -0.2575
16934TIP3   OH272292   2.080   0.213   5.396 -0.5242 -0.1374 -0.2931
16934TIP3    H172293   2.023   0.185   5.468 -1.2562 -1.2843 -1.3076
16934TIP3    H272294   2.147   0.267   5.439 -2.1670  0.9813  0.9495
16935TIP3   OH272295   6.033   1.616   0.972  0.3516 -0.7897  0.0619
16935TIP3    H172296   6.034   1.531   0.927 -0.9703 -0.2535 -0.9974
16935TIP3    H272297   6.123   1.648   0.965  0.6691 -1.7157 -0.2465
16936TIP3   OH272298   6.442   0.992   3.933 -0.0525  0.0738  0.6224
16936TIP3    H172299   6.467   0.946   3.853 -0.7311 -0.1407  0.5396
16936TIP3    H272300   6.381   1.059   3.905  1.7949  1.8016  0.5691
16937TIP3   OH272301   0.827   0.819  10.821 -0.1302  0.6317  0.4333
16937TIP3    H172302   0.878   0.888  10.777 -0.9825  1.2035  0.3362
16937TIP3    H272303   0.863   0.816  10.909  1.5867 -0.5164 -0.2814
16938TIP3   OH272304   5.773   0.227   2.028 -0.0619 -0.2472 -0.2335
16938TIP3    H172305   5.726   0.171   2.090 -1.6590  1.9013  0.5637
16938TIP3    H272306   5.737   0.203   1.943 -0.1405 -0.9979  0.0051
16939TIP3   OH272307   5.746   0.456   0.978 -0.0711 -0.6488 -0.1828
16939TIP3    H172308   5.744   0.530   0.917 -2.0102 -0.5947 -0.0825
16939TIP3    H272309   5.655   0.426   0.982 -0.0622 -0.4420  2.9148
16940TIP3   OH272310   5.278   5.205  11.831 -0.1770 -0.0776 -0.1701
16940TIP3    H172311   5.366   5.190  11.796  0.0426 -0.2219  0.4214
16940TIP3    H272312   5.219   5.165  11.768  0.1047  1.0686 -1.1822
16941TIP3   OH272313   4.445   4.905  13.488  0.3873  0.2575 -0.2664
16941TIP3    H172314   4.401   4.825  13.458  0.7273 -0.0134 -0.0372
16941TIP3    H272315   4.536   4.894  13.461  0.4687  0.4948 -0.0896
16942TIP3   OH272316   4.794   1.607  16.933 -0.3683 -0.3155 -0.1895
16942TIP3    H172317   4.872   1.603  16.988  0.5145 -0.8132 -1.4468
16942TIP3    H272318   4.812   1.545  16.862 -1.5411  0.2228 -0.9695
16943TIP3   OH272319   4.956   0.912   3.616 -0.0706 -0.0702 -0.3247
16943TIP3    H172320   4.903   0.992   3.620  0.6784  0.3629  1.4213
16943TIP3    H272321   4.955   0.887   3.523 -0.5213  1.8287 -0.8531
16944TIP3   OH272322   6.533   6.356  14.023  0.5150 -0.3235  0.0852
16944TIP3    H172323   6.459   6.299  14.001  0.2813 -0.0319  0.1020
16944TIP3    H272324   6.609   6.314  13.983  0.1894 -0.1200 -0.7614
16945TIP3   OH272325   0.002   1.211   4.242 -0.0288 -0.0595  0.0538
16945TIP3    H172326   0.079   1.207   4.299  0.0922  0.4862 -0.0765
16945TIP3    H272327  -0.011   1.304   4.225 -0.3730 -0.1891 -0.3940
16946TIP3   OH272328   5.160   0.053   3.080 -0.6946 -0.0928  0.1773
16946TIP3    H172329   5.169   0.006   2.998 -0.0010  0.8785 -0.3111
16946TIP3    H272330   5.232   0.021   3.135  0.2959  1.0052 -0.4607
16947TIP3   OH272331   4.080   6.212   2.312  0.3845  0.3215 -0.2853
16947TIP3    H172332   4.028   6.276   2.359  0.7207  1.0718 -0.9248
16947TIP3    H272333   4.018   6.166   2.256  0.1928  0.2945 -0.0496
16948TIP3   OH272334   1.936   4.588  13.146 -0.4160  0.0439 -0.0726
16948TIP3    H172335   1.874   4.644  13.098  0.2059 -0.0474 -0.9925
16948TIP3    H272336   1.880   4.528  13.195 -1.0905  1.0607  0.4432
16949TIP3   OH272337   1.495   3.422  12.865 -0.5958  0.3437  0.3435
16949TIP3    H172338   1.464   3.347  12.815 -0.8206  1.1889 -0.8174
16949TIP3    H272339   1.499   3.391  12.955  2.0951 -1.9675 -0.4896
16950TIP3   OH272340   4.901   4.343  11.651 -0.1084  0.1235 -0.7675
16950TIP3    H172341   4.967   4.388  11.598  2.2528 -0.8838  1.2393
16950TIP3    H272342   4.880   4.264  11.601 -0.2784  0.7414 -1.6980
16951TIP3   OH272343   3.488   6.632  12.286  0.6681  0.2460  0.0089
16951TIP3    H172344   3.394   6.646  12.295  0.2789 -1.3240 -1.3736
16951TIP3    H272345   3.500   6.539  12.305  2.0655  0.6477  1.0947
16952TIP3   OH272346   3.259   1.025   0.375  0.1468  0.0163 -0.0906
16952TIP3    H172347   3.230   1.101   0.324  0.3102 -0.7046 -1.2680
16952TIP3    H272348   3.328   1.059   0.431  1.4589  0.3752 -1.8857
16953TIP3   OH272349   1.456   2.300  11.909 -0.0153  0.5382 -0.1086
16953TIP3    H172350   1.538   2.301  11.959  0.6408 -2.2530 -1.0530
16953TIP3    H272351   1.389   2.278  11.974  0.5466 -1.0241 -0.0286
16954TIP3   OH272352   1.171   6.166   2.127 -0.0332  0.2654  0.4513
16954TIP3    H172353   1.106   6.225   2.089 -0.4693 -0.7428 -0.3867
16954TIP3    H272354   1.131   6.079   2.122  0.6512 -0.1337  1.5598
16955TIP3   OH272355   4.077   4.955  15.712  0.0043  0.1221  0.4956
16955TIP3    H172356   4.082   5.042  15.672 -0.4193  0.5616  1.3856
16955TIP3    H272357   4.027   4.969  15.793  2.6129 -0.3844  2.2366
16956TIP3   OH272358   3.460   1.243  11.645 -0.1092  0.5446  0.1170
16956TIP3    H172359   3.417   1.279  11.723  1.5627 -0.2732  1.4600
16956TIP3    H272360   3.523   1.311  11.620 -0.1500  0.5038 -0.0912
16957TIP3   OH272361   2.387   3.934   2.530  0.2291  0.0842  0.5021
16957TIP3    H172362   2.435   3.980   2.461 -1.7764  1.3015 -0.1345
16957TIP3    H272363   2.372   3.846   2.495 -1.3669  0.8928 -0.9674
16958TIP3   OH272364   0.338   4.420   2.222 -0.5310 -0.1825  0.0687
16958TIP3    H172365   0.364   4.370   2.300  1.1980  0.1422 -0.2788
16958TIP3    H272366   0.319   4.508   2.255 -0.7595 -0.3052  0.2675
16959TIP3   OH272367   6.489   1.432   3.470 -0.4771  0.8834 -0.1098
16959TIP3    H172368   6.395   1.424   3.486 -0.1965  0.3510  1.3184
16959TIP3    H272369   6.526   1.454   3.555  0.7811  0.3663 -0.5114
16960TIP3   OH272370   4.414   0.907   2.003  0.6792 -0.4674  0.3774
16960TIP3    H172371   4.334   0.858   1.982  0.4139  0.7035 -1.4679
16960TIP3    H272372   4.458   0.854   2.069 -0.6710 -2.1122 -0.0059
16961TIP3   OH272373   5.378   0.440   1.022 -0.2008  0.4442 -0.1901
16961TIP3    H172374   5.452   0.405   1.072 -2.4947 -1.4299  2.0550
16961TIP3    H272375   5.352   0.518   1.070 -1.4448 -0.5058  0.7259
16962TIP3   OH272376   1.317   2.967   3.112  0.4173 -0.2098 -0.1655
16962TIP3    H172377   1.350   3.054   3.133 -1.1745 -0.0933  2.0393
16962TIP3    H272378   1.292   2.973   3.019  1.9106  1.1414 -0.5025
16963TIP3   OH272379   6.117   3.763  14.734  0.2227 -0.3473 -0.7142
16963TIP3    H172380   6.071   3.715  14.802 -1.8227  3.9268  1.1550
16963TIP3    H272381   6.206   3.773  14.766  0.2099 -1.4332 -0.3455
16964TIP3   OH272382   5.063   1.957  14.256  0.0012  0.1968  0.5419
16964TIP3    H172383   5.102   1.870  14.260  0.3694  0.3657  0.6361
16964TIP3    H272384   4.970   1.943  14.277  0.1168 -0.1345  0.8249
16965TIP3   OH272385   6.479   4.482   0.820  0.4965 -0.4911  0.0510
16965TIP3    H172386   6.574   4.497   0.827  0.7029 -1.9321  0.6521
16965TIP3    H272387   6.468   4.391   0.848 -0.8862 -0.8029 -1.4597
16966TIP3   OH272388   6.692   0.395   2.998 -0.0886  0.4535  0.0116
16966TIP3    H172389   6.732   0.390   2.911  0.7349  0.6079  0.3804
16966TIP3    H272390   6.657   0.484   3.002 -0.6542  0.2544 -0.3862
16967TIP3   OH272391   2.146   2.292  15.054  0.1020  0.2425 -0.3088
16967TIP3    H172392   2.201   2.350  15.108  1.6852 -2.0653  0.6115
16967TIP3    H272393   2.139   2.211  15.105 -2.2326 -0.3472 -1.5013
16968TIP3   OH272394   3.705   2.027  10.538 -0.4163  0.0945  0.3755
16968TIP3    H172395   3.760   1.952  10.561 -0.0923  0.4428  0.7780
16968TIP3    H272396   3.696   2.075  10.621  1.5589  1.8909 -0.4122
16969TIP3   OH272397   0.394   0.187  14.447  0.2603  0.3094 -0.1242
16969TIP3    H172398   0.384   0.175  14.353  2.2580  2.2783 -0.6216
16969TIP3    H272399   0.450   0.115  14.475 -3.2584 -2.4255  0.2569
16970TIP3   OH272400   6.286   4.032  15.108  0.0659  0.0374  0.3326
16970TIP3    H172401   6.283   4.066  15.019 -1.1924 -0.2748  0.2524
16970TIP3    H272402   6.248   4.101  15.162  0.1070 -0.0937  0.5314
16971TIP3   OH272403   4.689   4.264   5.305  0.2117  0.1965 -0.1765
16971TIP3    H172404   4.678   4.190   5.365  0.2308  1.1997  1.0802
16971TIP3    H272405   4.635   4.333   5.343 -1.6787  0.1048 -2.6129
16972TIP3   OH272406   0.942   0.271   5.991 -0.1472 -0.0918  0.5107
16972TIP3    H172407   0.992   0.212   6.048  1.4336 -0.4023 -1.1470
16972TIP3    H272408   1.005   0.298   5.924 -1.0409  2.9495  0.8404
16973TIP3   OH272409   0.768   5.504   4.431  0.7447 -0.1973  0.0267
16973TIP3    H172410   0.742   5.417   4.402 -0.3369  0.0714  0.1750
16973TIP3    H272411   0.700   5.531   4.493  1.2113  0.6426  0.1921
16974TIP3   OH272412   5.788   5.123  14.991 -0.2860 -0.0133  0.0679
16974TIP3    H172413   5.693   5.136  14.997 -0.0734  1.6263  0.2092
16974TIP3    H272414   5.821   5.153  15.076  0.4479  0.2472 -0.3124
16975TIP3   OH272415   0.415   0.982  15.598 -0.0956  0.1323 -0.5074
16975TIP3    H172416   0.440   0.921  15.667 -1.5565 -1.2347 -1.1446
16975TIP3    H272417   0.498   1.010  15.559  0.5892 -1.8053 -0.5034
16976TIP3   OH272418   3.249   6.755  17.049  0.1934 -0.2616 -0.1101
16976TIP3    H172419   3.337   6.790  17.039 -0.5023  1.2964 -0.8812
16976TIP3    H272420   3.208   6.812  17.114 -0.3295 -0.8448  0.0824
16977TIP3   OH272421   3.205   3.565  13.305  0.1184 -0.2827  0.2867
16977TIP3    H172422   3.277   3.620  13.337 -0.4852  0.7795 -0.1505
16977TIP3    H272423   3.230   3.476  13.329  1.1489  0.1760  0.9424
16978TIP3   OH272424   0.065   0.576  15.829 -0.5264  0.3155  0.3436
16978TIP3    H172425   0.075   0.507  15.895  0.2611  0.1353  0.0427
16978TIP3    H272426   0.068   0.529  15.745  0.3553  0.7572  0.1260
16979TIP3   OH272427   1.449   4.846   4.175  0.3482 -0.3993  0.5212
16979TIP3    H172428   1.507   4.806   4.240 -1.0404 -1.8753  0.9067
16979TIP3    H272429   1.368   4.795   4.182 -1.3143  2.1775  0.6318
16980TIP3   OH272430   1.721   1.612   2.179  0.5689  0.0006 -0.0379
16980TIP3    H172431   1.735   1.537   2.121  0.5315 -0.2066  0.2225
16980TIP3    H272432   1.793   1.673   2.157 -0.4934  0.7283 -1.5876
16981TIP3   OH272433   3.471   0.437  15.249 -0.1988  0.1006 -0.5707
16981TIP3    H172434   3.511   0.355  15.278 -0.5619 -0.3153 -1.2320
16981TIP3    H272435   3.377   0.420  15.252 -0.3160  0.9572  0.6349
16982TIP3   OH272436   4.256   1.365   3.381  0.5346  1.0395  0.0800
16982TIP3    H172437   4.318   1.424   3.424  2.2618 -1.3514  0.9812
16982TIP3    H272438   4.309   1.290   3.353 -1.6603 -0.2835 -0.6788
16983TIP3   OH272439   3.780   5.849   5.038  0.0566  0.2971 -0.8544
16983TIP3    H172440   3.741   5.927   4.999  0.2806  0.9624  0.2447
16983TIP3    H272441   3.747   5.777   4.984 -1.7153  0.9517 -0.6912
16984TIP3   OH272442   3.239   5.613  10.469 -0.9252 -0.4835  0.4157
16984TIP3    H172443   3.299   5.602  10.395 -1.1131  0.1195  0.1640
16984TIP3    H272444   3.289   5.584  10.545 -0.0270  0.7568  0.3163
16985TIP3   OH272445   0.105   1.603  15.031 -0.0240 -0.1259  0.6380
16985TIP3    H172446   0.057   1.683  15.009  1.3147  0.7917  0.9543
16985TIP3    H272447   0.133   1.616  15.122 -0.4655 -1.2999  0.9486
16986TIP3   OH272448   3.853   2.330   0.228 -0.5634 -0.0586  0.3507
16986TIP3    H172449   3.884   2.375   0.149 -0.9453  0.4788  0.4999
16986TIP3    H272450   3.933   2.300   0.272 -0.2136  1.5975  0.8917
16987TIP3   OH272451   1.613   5.890  12.342 -0.0673  0.0766  0.1342
16987TIP3    H172452   1.636   5.860  12.254  0.3621  0.1849  0.2085
16987TIP3    H272453   1.691   5.937  12.373  1.1125 -2.8411  1.8698
16988TIP3   OH272454   6.367   6.240   5.535  0.5760  0.3430  0.2222
16988TIP3    H172455   6.344   6.226   5.443  0.3404  0.0952  0.3209
16988TIP3    H272456   6.305   6.306   5.565 -1.8161 -2.3369  1.2586
16989TIP3   OH272457   5.462   3.617  15.794  0.3238  0.0062 -0.6253
16989TIP3    H172458   5.378   3.580  15.823  0.1172  0.9879  0.0534
16989TIP3    H272459   5.492   3.556  15.727  0.0882 -1.5252  0.6097
16990TIP3   OH272460   5.091   1.225   3.762  0.6686  0.5577  0.1630
16990TIP3    H172461   5.010   1.218   3.813  0.1093  0.9193 -0.6619
16990TIP3    H272462   5.155   1.263   3.823 -0.1574  1.5663  0.4182
16991TIP3   OH272463   0.572   4.646   1.733  0.2939  0.4579  0.1796
16991TIP3    H172464   0.518   4.675   1.660  1.9854 -0.6216 -1.5265
16991TIP3    H272465   0.544   4.701   1.806 -0.8730  2.0949 -1.4530
16992TIP3   OH272466   1.800   5.339  16.747 -0.2396  0.0233 -1.1982
16992TIP3    H172467   1.782   5.244  16.749  0.4051 -0.0820 -0.3642
16992TIP3    H272468   1.802   5.360  16.654 -0.2122 -0.8188 -1.3975
16993TIP3   OH272469   0.043   0.006  16.940 -0.0612 -0.4433  0.0773
16993TIP3    H172470   0.113  -0.058  16.930 -0.7388 -0.7250 -3.4279
16993TIP3    H272471  -0.038  -0.045  16.933 -0.6177  0.4775 -0.3002
16994TIP3   OH272472   0.682   0.813  17.184 -0.0497  0.4006 -0.2376
16994TIP3    H172473   0.656   0.832  17.274 -0.3522 -1.2643  0.0571
16994TIP3    H272474   0.600   0.814  17.135 -0.0322  0.1484 -0.2707
16995TIP3   OH272475   0.256   6.498   2.342 -0.1011  0.1010 -0.2487
16995TIP3    H172476   0.197   6.428   2.312  2.5794 -2.8975  1.1213
16995TIP3    H272477   0.320   6.507   2.271 -1.3587  2.3956 -1.1410
16996TIP3   OH272478   3.822   6.123   2.507 -0.1061 -0.5705 -0.4298
16996TIP3    H172479   3.733   6.090   2.490  0.2821 -0.9098 -1.8506
16996TIP3    H272480   3.879   6.052   2.477  0.7437  1.1919 -3.1850
16997TIP3   OH272481   6.087   2.653   4.608 -0.1406 -0.0085 -0.4161
16997TIP3    H172482   6.039   2.726   4.647 -2.3821 -0.6036 -1.9513
16997TIP3    H272483   6.047   2.575   4.646  1.5872 -0.4820  0.4746
16998TIP3   OH272484   2.316   5.226   3.911 -0.1377  0.1533  0.4181
16998TIP3    H172485   2.365   5.307   3.924  1.7393 -0.6852 -1.1163
16998TIP3    H272486   2.235   5.253   3.869  0.9144  1.1435 -1.0200
16999TIP3   OH272487   4.740   3.599  11.715 -0.2737 -0.5161 -0.4338
16999TIP3    H172488   4.757   3.555  11.632 -0.2901 -1.3049 -0.0264
16999TIP3    H272489   4.801   3.557  11.777  0.6076  0.9189 -0.3208
17000TIP3   OH272490   3.364   5.317  15.134  0.2154  0.6024  0.4257
17000TIP3    H172491   3.416   5.347  15.209  2.2331  0.3039 -0.8230
17000TIP3    H272492   3.323   5.396  15.101  2.2368  1.3661 -0.3523
17001TIP3   OH272493   0.417   3.594  14.250 -0.1162  0.1264  0.2949
17001TIP3    H172494   0.384   3.507  14.225  0.9126 -0.3814  0.6794
17001TIP3    H272495   0.359   3.655  14.204 -0.6241 -0.7645 -0.2765
17002TIP3   OH272496   0.237   2.032  12.394 -0.5688  0.0066 -0.3292
17002TIP3    H172497   0.184   2.022  12.473 -0.0431 -0.8307 -0.0748
17002TIP3    H272498   0.178   2.010  12.322 -0.4094 -1.5258 -0.0103
17003TIP3   OH272499   6.418   4.854  14.578  0.0768 -0.2958 -0.3886
17003TIP3    H172500   6.469   4.774  14.587 -0.1605 -0.4099 -0.0615
17003TIP3    H272501   6.363   4.857  14.656  2.1563  1.6765  1.0516
17004TIP3   OH272502   6.677   2.510   3.134  0.1510 -0.4416  0.3360
17004TIP3    H172503   6.671   2.559   3.052 -0.2019 -0.6506  0.2344
17004TIP3    H272504   6.727   2.431   3.111  0.5935 -0.1953  0.4652
17005TIP3   OH272505   4.451   6.783  15.356 -0.8339  0.2893 -0.2633
17005TIP3    H172506   4.360   6.789  15.328 -0.9667  0.4169  0.1905
17005TIP3    H272507   4.447   6.748  15.445 -0.6101  2.6956  0.7378
17006TIP3   OH272508   4.155   3.085   2.581 -0.0961  0.6010  0.0488
17006TIP3    H172509   4.210   3.068   2.504 -1.2484  1.0083 -0.8829
17006TIP3    H272510   4.208   3.143   2.636  0.6747  0.4451 -0.5155
17007TIP3   OH272511   4.348   2.925   0.042 -0.1241 -0.7717  0.0787
17007TIP3    H172512   4.333   3.005   0.093  0.1874 -1.7102  1.6917
17007TIP3    H272513   4.260   2.889   0.030 -0.1726 -0.7155  0.2505
17008TIP3   OH272514   1.422   1.803  15.033  0.5531  0.4705 -0.1868
17008TIP3    H172515   1.443   1.884  14.986 -4.1864  1.0405 -1.5767
17008TIP3    H272516   1.414   1.830  15.125  0.4775  1.2662 -0.4209
17009TIP3   OH272517   4.433   0.870  12.206 -0.0105  0.0417  0.2800
17009TIP3    H172518   4.355   0.842  12.253 -0.2186  0.6566  0.3048
17009TIP3    H272519   4.400   0.917  12.130  0.3327  0.3151  0.2966
17010TIP3   OH272520   3.490   2.537  11.485  0.1100  0.1873  0.4183
17010TIP3    H172521   3.559   2.475  11.462  0.5045  0.4117  0.9968
17010TIP3    H272522   3.419   2.483  11.519  0.7915  0.1229  1.7491
17011TIP3   OH272523   6.767   3.440   3.854  0.2371  0.0353 -0.6341
17011TIP3    H172524   6.695   3.501   3.841  0.5895  0.5600 -0.1637
17011TIP3    H272525   6.780   3.438   3.949 -0.4250 -1.5346 -0.5568
17012TIP3   OH272526   3.107   0.138   0.347 -0.0569  0.0646  0.4502
17012TIP3    H172527   3.021   0.176   0.331 -1.2559 -1.5163  2.9893
17012TIP3    H272528   3.142   0.187   0.422  0.1038 -1.1169  1.1559
17013TIP3   OH272529   0.484   5.843   3.678  0.4552  0.3201 -0.4053
17013TIP3    H172530   0.487   5.753   3.647  0.6665  0.5267 -0.9822
17013TIP3    H272531   0.575   5.870   3.684  0.5989 -0.7057  3.3342
17014TIP3   OH272532   2.473   1.329  12.025 -0.8304  0.8082 -0.0423
17014TIP3    H172533   2.491   1.235  12.027 -3.1225  0.1297 -4.8566
17014TIP3    H272534   2.391   1.338  12.074  0.3095  0.6015  1.9485
17015TIP3   OH272535   6.437   0.866   2.647 -0.4291 -0.3016 -0.0918
17015TIP3    H172536   6.351   0.836   2.617 -0.6944  0.8294 -0.4812
17015TIP3    H272537   6.495   0.850   2.573 -0.6185  0.3391 -0.3865
17016TIP3   OH272538   0.144   5.076   0.586 -0.3330 -0.6360 -0.1060
17016TIP3    H172539   0.117   5.144   0.648  2.4148  0.2038  0.2497
17016TIP3    H272540   0.086   5.002   0.605 -3.3556  1.5440 -0.4816
17017TIP3   OH272541   4.501   5.754   1.864  0.4727 -0.0571 -0.1190
17017TIP3    H172542   4.542   5.818   1.805 -0.2208 -0.7919 -1.4102
17017TIP3    H272543   4.411   5.747   1.832  0.7789 -2.3478 -0.5575
17018TIP3   OH272544   0.089   6.151  12.168  0.0017  0.4179 -0.0554
17018TIP3    H172545   0.104   6.071  12.219 -0.5851  0.8188  0.7596
17018TIP3    H272546   0.176   6.187  12.154  0.3796 -0.9247 -1.3660
17019TIP3   OH272547   4.454   2.461  16.288  0.2381 -0.2748 -0.3786
17019TIP3    H172548   4.479   2.418  16.369  1.5368  0.5752 -0.3131
17019TIP3    H272549   4.375   2.415  16.259 -0.4820 -0.3079  1.5748
17020TIP3   OH272550   2.270   2.109  11.833  0.0841 -0.4201  0.1543
17020TIP3    H172551   2.182   2.071  11.827 -0.9801  2.1312 -1.2936
17020TIP3    H272552   2.276   2.168  11.758  2.5065  0.5287  1.0386
17021TIP3   OH272553   3.060   5.549   2.126  0.3255 -0.1360  0.6005
17021TIP3    H172554   3.104   5.473   2.164 -1.4373 -1.2837  0.4185
17021TIP3    H272555   3.016   5.515   2.048  2.2752  1.7791 -1.4356
17022TIP3   OH272556   5.570   0.593  12.354  0.2374 -0.6838 -0.2015
17022TIP3    H172557   5.555   0.570  12.446  0.8393  1.4886  0.4605
17022TIP3    H272558   5.514   0.669  12.339  2.2880  0.7483 -0.8011
17023TIP3   OH272559   1.805   0.154   2.578 -0.0168 -0.1953 -0.1370
17023TIP3    H172560   1.856   0.213   2.633 -0.0324 -0.7033  0.4329
17023TIP3    H272561   1.796   0.074   2.630  0.0298 -0.7130 -0.9053
17024TIP3   OH272562   4.858   3.820  14.345 -0.0916 -0.1128 -0.8551
17024TIP3    H172563   4.787   3.832  14.281  1.0093 -0.6110 -2.2192
17024TIP3    H272564   4.920   3.762  14.300  1.3931  0.6804  0.1418
17025TIP3   OH272565   3.206   5.307   2.267  0.5718 -0.4079  0.0743
17025TIP3    H172566   3.212   5.242   2.197  1.8762  0.4396 -0.6264
17025TIP3    H272567   3.293   5.306   2.307  0.0643 -0.3283  1.1715
17026TIP3   OH272568   2.771   5.303   0.222  0.1091 -0.0693  0.1931
17026TIP3    H172569   2.826   5.361   0.170 -0.9145  0.0072 -0.8330
17026TIP3    H272570   2.689   5.352   0.234  0.3647 -0.0381  1.9885
17027TIP3   OH272571   1.956   2.466   5.330  0.5373  0.0548  0.1590
17027TIP3    H172572   1.878   2.417   5.304  0.1022  0.5621  0.4973
17027TIP3    H272573   1.962   2.538   5.268  1.0539 -0.2945 -0.2048
17028TIP3   OH272574   1.468   2.758   4.155  0.0841  0.0560 -0.1025
17028TIP3    H172575   1.547   2.802   4.187 -1.1745  1.9335  0.5339
17028TIP3    H272576   1.429   2.719   4.233  1.3853 -2.5734 -0.7206
17029TIP3   OH272577   2.162   4.318   0.104  0.2881 -0.1698  0.0534
17029TIP3    H172578   2.236   4.275   0.147 -0.4504  0.6678  2.2179
17029TIP3    H272579   2.085   4.287   0.152 -0.6149  0.3533 -1.0306
17030TIP3   OH272580   3.695   6.541  13.464 -0.5004 -0.2832  0.2475
17030TIP3    H172581   3.662   6.465  13.512  0.0385 -0.3264  0.5451
17030TIP3    H272582   3.788   6.544  13.484 -0.5410  0.5323  0.3302
17031TIP3   OH272583   2.187   4.218  17.119 -0.0649  0.0461 -0.3228
17031TIP3    H172584   2.223   4.148  17.173  0.3785  1.4409  1.2585
17031TIP3    H272585   2.150   4.280  17.182 -1.6623  0.5825 -1.7453
17032TIP3   OH272586   4.261   6.768   6.382 -0.0824  0.5277 -0.0773
17032TIP3    H172587   4.221   6.689   6.418  0.4881 -0.5660 -1.8443
17032TIP3    H272588   4.210   6.840   6.422 -1.8091 -0.7528  0.0921
17033TIP3   OH272589   1.737   1.575   5.943 -0.2849 -0.1522 -0.2413
17033TIP3    H172590   1.771   1.558   6.031  1.6285  3.4027 -0.2215
17033TIP3    H272591   1.647   1.604   5.957 -0.0360  0.2574  0.5507
17034TIP3   OH272592   2.116   4.014  12.724 -0.1889 -0.6128  0.5093
17034TIP3    H172593   2.162   3.983  12.646 -1.3648 -1.2122  0.0468
17034TIP3    H272594   2.186   4.036  12.786  0.7846  0.6053 -0.9807
17035TIP3   OH272595   4.050   5.549   2.721  0.0286 -0.6382  0.0478
17035TIP3    H172596   4.030   5.587   2.636 -0.4747 -0.6870  0.1431
17035TIP3    H272597   4.145   5.559   2.730 -0.1166  0.7467  0.1591
17036TIP3   OH272598   5.633   4.882   3.421 -0.1943  0.0301 -0.0345
17036TIP3    H172599   5.697   4.947   3.390  0.2172  0.7790  2.3205
17036TIP3    H272600   5.556   4.897   3.365  1.1080  0.1871 -1.8329
17037TIP3   OH272601   5.429   3.923   4.195  0.4638 -0.0085 -0.2567
17037TIP3    H172602   5.484   3.871   4.254  1.6015 -0.8208 -2.0044
17037TIP3    H272603   5.417   4.006   4.241  3.3494  0.2812  0.0666
17038TIP3   OH272604   3.909   5.900  13.028  0.0692 -0.0622  0.5156
17038TIP3    H172605   3.962   5.821  13.040  0.5612  0.5122  2.2749
17038TIP3    H272606   3.821   5.874  13.053  0.4268  0.1998  2.0932
17039TIP3   OH272607   1.607   0.248   0.877  0.1491 -0.1871 -0.4169
17039TIP3    H172608   1.519   0.280   0.897  0.1855 -0.2274 -0.1958
17039TIP3    H272609   1.636   0.303   0.805 -0.2806 -0.5455 -0.8735
17040TIP3   OH272610   6.744   6.573  11.080  0.2816  0.0551  0.0796
17040TIP3    H172611   6.803   6.630  11.129  0.1020 -0.2073  0.6082
17040TIP3    H272612   6.712   6.510  11.145  0.9175 -1.0030 -0.6190
17041TIP3   OH272613   3.560   1.766  15.172 -0.2551  0.4334  0.6235
17041TIP3    H172614   3.606   1.814  15.103 -1.1483  0.8501  0.3052
17041TIP3    H272615   3.469   1.763  15.142 -0.4481 -0.3195  1.2756
17042TIP3   OH272616   3.020   1.503  11.579 -0.3742 -0.0580 -0.4476
17042TIP3    H172617   3.076   1.456  11.641 -0.9725  1.5528  1.3520
17042TIP3    H272618   3.049   1.594  11.584 -2.5742  0.6586 -0.0839
17043TIP3   OH272619   3.065   2.567  14.949 -0.3959  0.2415  0.0584
17043TIP3    H172620   2.985   2.602  14.988 -1.1615 -2.4433  1.0070
17043TIP3    H272621   3.093   2.498  15.009  1.5563 -0.1611 -1.2582
17044TIP3   OH272622   6.807   0.667   4.545 -0.3045 -0.1099 -0.4358
17044TIP3    H172623   6.862   0.743   4.563 -0.4981 -0.2030  0.5760
17044TIP3    H272624   6.800   0.665   4.450 -0.9237  1.5981 -0.4491
17045TIP3   OH272625   3.675   5.500   0.343 -0.3039  0.1718 -0.3983
17045TIP3    H172626   3.664   5.591   0.369 -0.9677 -0.6235  2.2666
17045TIP3    H272627   3.606   5.486   0.278 -1.2039  1.1465  0.3296
17046TIP3   OH272628   0.658   4.338  12.820 -0.4224  0.5033 -0.7522
17046TIP3    H172629   0.580   4.393  12.811  0.0144  1.4402  1.1348
17046TIP3    H272630   0.623   4.249  12.830 -1.3140  1.0337  1.0559
17047TIP3   OH272631   5.798   0.608  14.678  0.0859  0.0485  0.1822
17047TIP3    H172632   5.750   0.675  14.630  3.0462  0.8707 -1.7133
17047TIP3    H272633   5.794   0.636  14.770 -0.7417  1.5124 -0.2950
17048TIP3   OH272634   6.782   2.713  12.048  0.2793  0.2909 -0.4540
17048TIP3    H172635   6.833   2.633  12.034  2.2600  1.4777 -0.1652
17048TIP3    H272636   6.691   2.682  12.053  1.1135 -2.1084  1.0441
17049TIP3   OH272637   0.072   5.901  11.953 -0.3202 -0.0676  0.3476
17049TIP3    H172638   0.106   5.886  11.865  0.8220  0.6447  0.6617
17049TIP3    H272639   0.036   5.989  11.951 -2.9172 -1.0830 -0.2018
17050TIP3   OH272640   4.792   2.162   0.126  0.3664 -0.9747 -0.4733
17050TIP3    H172641   4.845   2.233   0.161  0.1712 -0.8056 -0.5169
17050TIP3    H272642   4.831   2.082   0.161  0.7477 -0.8614 -0.6400
17051TIP3   OH272643   4.101   4.526  14.663 -0.1816 -0.8927 -0.2350
17051TIP3    H172644   4.117   4.602  14.608 -0.3083  1.0608  2.3290
17051TIP3    H272645   4.026   4.482  14.623  0.9422 -0.6724 -2.7074
17052TIP3   OH272646   2.193   3.663  12.929  0.6108  0.5802  0.6171
17052TIP3    H172647   2.105   3.643  12.899 -0.0786  0.8113  2.3844
17052TIP3    H272648   2.244   3.676  12.850 -0.8362 -0.0463 -0.4294
17053TIP3   OH272649   6.765   1.759   4.529 -0.4753 -0.1464  0.6135
17053TIP3    H172650   6.685   1.789   4.572 -0.7358 -0.1239  0.1172
17053TIP3    H272651   6.748   1.668   4.505 -0.4358 -0.0745  0.3082
17054TIP3   OH272652   2.395   2.542  13.113  0.6379 -0.6559  0.5466
17054TIP3    H172653   2.466   2.604  13.097 -0.9959  1.4786  1.3890
17054TIP3    H272654   2.316   2.589  13.091 -0.6454 -2.5260  1.0271
17055TIP3   OH272655   3.011   4.003  14.514  0.5811  0.6625 -0.3775
17055TIP3    H172656   3.092   3.952  14.518  0.6315  0.6284 -1.5317
17055TIP3    H272657   2.992   4.026  14.605  0.9535 -0.7963  0.0880
17056TIP3   OH272658   1.462   3.760  12.004 -0.2333  0.6018  0.2845
17056TIP3    H172659   1.431   3.804  12.083  2.1290  2.2918  0.3057
17056TIP3    H272660   1.504   3.680  12.036  1.1805  1.5392  0.7985
17057TIP3   OH272661   1.896   5.076  11.098 -0.3608 -0.0690  0.2755
17057TIP3    H172662   1.944   5.158  11.098  1.2187 -0.9826  1.5530
17057TIP3    H272663   1.810   5.098  11.135  0.4601  0.7735  1.7013
17058TIP3   OH272664   6.197   4.512  16.514 -0.3736  0.3427  0.0121
17058TIP3    H172665   6.133   4.524  16.444 -2.5193 -0.2603  1.8375
17058TIP3    H272666   6.174   4.429  16.554  0.1966  1.1507  2.0902
17059TIP3   OH272667   2.309   1.012  16.658  0.7415  0.3116 -0.1666
17059TIP3    H172668   2.345   0.994  16.571  1.9339  2.5194 -0.1600
17059TIP3    H272669   2.248   1.085  16.645  0.9709  0.6963  0.8432
17060TIP3   OH272670   1.681   1.410   5.559 -0.4592 -0.2842  0.0738
17060TIP3    H172671   1.590   1.427   5.586 -0.2725 -0.5986  0.8947
17060TIP3    H272672   1.723   1.373   5.636  0.1325 -1.0030 -0.5882
17061TIP3   OH272673   1.600   6.466  16.278  0.2997 -0.0637  0.0872
17061TIP3    H172674   1.667   6.413  16.321  1.0901  0.8988  0.0450
17061TIP3    H272675   1.517   6.433  16.313  0.9255  0.6286  2.2862
17062TIP3   OH272676   4.230   1.783   5.012  0.5200 -0.7160 -0.0055
17062TIP3    H172677   4.297   1.750   4.952 -0.8558 -1.1975 -1.3359
17062TIP3    H272678   4.213   1.872   4.981  1.9091  0.1104  1.5470
17063TIP3   OH272679   2.889   2.512   2.336  0.2824 -0.0085  0.0572
17063TIP3    H172680   2.839   2.566   2.396 -0.2958 -0.3556 -0.1006
17063TIP3    H272681   2.952   2.465   2.392  0.0135 -0.0342  0.3412
17064TIP3   OH272682   2.039   2.895   3.113 -0.2153  0.1385 -0.0268
17064TIP3    H172683   2.116   2.871   3.165 -1.9949 -1.1318  2.1185
17064TIP3    H272684   2.010   2.978   3.149  0.0638  0.5644 -0.7654
17065TIP3   OH272685   0.432   4.309   2.448 -0.1802 -0.5151  0.3335
17065TIP3    H172686   0.392   4.347   2.526 -0.7575 -0.7162  0.1347
17065TIP3    H272687   0.525   4.330   2.457 -0.4591  0.8100  0.3058
17066TIP3   OH272688   2.293   3.375  10.629 -0.3461  0.0740  0.2975
17066TIP3    H172689   2.263   3.466  10.636 -1.3955 -0.3355  1.1072
17066TIP3    H272690   2.385   3.378  10.656  0.0087  1.1062 -0.9429
17067TIP3   OH272691   1.811   0.727  10.739  0.0331 -0.1711  0.6555
17067TIP3    H172692   1.883   0.673  10.705  0.9897  1.3151  0.2628
17067TIP3    H272693   1.738   0.711  10.679  0.6589 -0.1728 -0.1133
17068TIP3   OH272694   2.049   3.096  14.386  0.0833  0.0186 -0.1373
17068TIP3    H172695   2.076   3.107  14.478 -2.0157 -0.4802  0.5684
17068TIP3    H272696   2.051   3.184  14.349 -0.6471  0.4569  0.8528
17069TIP3   OH272697   6.592   4.433   6.129  0.0212 -0.3842 -0.2962
17069TIP3    H172698   6.566   4.351   6.169 -0.1800  0.0890  0.5575
17069TIP3    H272699   6.683   4.446   6.158 -0.3419  0.2902  0.5721
17070TIP3   OH272700   6.622   3.485  16.900  0.0745  0.4567 -0.3829
17070TIP3    H172701   6.706   3.480  16.855  0.1403 -0.1836 -0.1960
17070TIP3    H272702   6.642   3.529  16.983  0.4727 -0.8534  0.2317
17071TIP3   OH272703   6.741   4.872   2.736  0.0979  0.4073  0.2389
17071TIP3    H172704   6.824   4.875   2.688  0.3964  2.6716  0.8292
17071TIP3    H272705   6.694   4.949   2.706 -1.1565 -0.0244  1.0756
17072TIP3   OH272706   4.893   3.828  12.815  0.1999  1.0098  0.6755
17072TIP3    H172707   4.836   3.812  12.890  2.0379  0.2589  1.9782
17072TIP3    H272708   4.980   3.841  12.854  1.5228 -1.1593 -1.3897
17073TIP3   OH272709   5.936   2.396   1.387  0.1655  0.3530 -0.2130
17073TIP3    H172710   5.924   2.396   1.482  1.7859  0.3595  0.0028
17073TIP3    H272711   5.858   2.352   1.353  0.1985 -0.8458  1.2044
17074TIP3   OH272712   0.467   1.741  14.369  0.1487 -0.4849  0.5197
17074TIP3    H172713   0.437   1.657  14.405  0.7297 -0.2545  1.5616
17074TIP3    H272714   0.562   1.733  14.367  0.2614  0.5200  1.5719
17075TIP3   OH272715   6.115   2.543   1.078  0.0676 -0.5854  0.2052
17075TIP3    H172716   6.048   2.545   1.147  0.5217 -1.8146  0.6898
17075TIP3    H272717   6.195   2.518   1.123  0.3471 -1.4852 -0.7791
17076TIP3   OH272718   0.098   1.075   1.178  0.2865  0.4862 -0.2388
17076TIP3    H172719   0.075   0.995   1.225  1.8168 -0.8043 -1.6468
17076TIP3    H272720   0.194   1.077   1.179  0.2571  2.8219  0.6120
17077TIP3   OH272721   1.994   4.794   0.521 -0.1289  0.9029 -0.2935
17077TIP3    H172722   2.073   4.848   0.523  0.0736  0.6170  2.6323
17077TIP3    H272723   1.950   4.818   0.440  2.4284  1.8199 -1.4789
17078TIP3   OH272724   6.106   5.963  12.933 -0.1852 -0.5072  0.1019
17078TIP3    H172725   6.119   6.033  12.997 -1.3362  1.6452 -1.9049
17078TIP3    H272726   6.180   5.972  12.872  0.1288 -1.5916  0.3243
17079TIP3   OH272727   2.533   5.486   2.826 -0.4962  0.0102  0.3968
17079TIP3    H172728   2.470   5.415   2.809  0.0280 -0.2680 -0.4076
17079TIP3    H272729   2.532   5.538   2.746  2.9324 -2.0153 -1.0403
17080TIP3   OH272730   5.970   3.343   0.876  0.2826  0.2305 -0.3183
17080TIP3    H172731   5.981   3.288   0.953  1.6589  0.8376 -0.0633
17080TIP3    H272732   5.896   3.400   0.898  0.4385  0.1563  0.4086
17081TIP3   OH272733   5.592   2.488  11.981 -0.1474 -0.0853 -0.2293
17081TIP3    H172734   5.572   2.495  12.074  0.0304 -0.5476 -0.1500
17081TIP3    H272735   5.568   2.398  11.959  0.8627 -0.3302 -0.3696
17082TIP3   OH272736   5.447   0.974  13.344  0.6105  0.4010 -0.0713
17082TIP3    H172737   5.462   1.019  13.260 -1.3298  0.1080 -0.6062
17082TIP3    H272738   5.358   0.999  13.369  0.1875 -1.6445  0.5594
17083TIP3   OH272739   3.489   2.311   3.616  0.3807  0.3511 -0.1055
17083TIP3    H172740   3.505   2.395   3.659  1.9254 -0.1340  0.3135
17083TIP3    H272741   3.424   2.330   3.548  3.0378  2.5585 -2.1461
17084TIP3   OH272742   4.961   3.943   0.005  0.9417 -0.4613 -0.2223
17084TIP3    H172743   4.939   3.927  -0.087 -0.6813 -0.6547  0.1863
17084TIP3    H272744   4.891   4.000   0.036  1.4334 -0.4796  0.9227
17085TIP3   OH272745   1.042   5.184   5.864  0.2951 -0.0977 -0.3953
17085TIP3    H172746   0.998   5.243   5.924 -0.3124 -1.1887  0.2424
17085TIP3    H272747   1.052   5.102   5.913 -0.8944 -1.2501 -2.0149
17086TIP3   OH272748   2.070   3.249  13.444  0.7893  0.4148 -0.6624
17086TIP3    H172749   2.083   3.337  13.409  2.4578  0.2166 -0.5932
17086TIP3    H272750   2.153   3.228  13.486  0.3640 -1.1544 -0.5897
17087TIP3   OH272751   4.189   0.737  12.903  0.3886  0.3118  0.2540
17087TIP3    H172752   4.219   0.689  12.981  1.9097 -1.4770 -1.3648
17087TIP3    H272753   4.111   0.690  12.874 -0.2595  1.0626  0.7857
17088TIP3   OH272754   3.812   6.209  15.698  0.2685 -0.3073  0.5263
17088TIP3    H172755   3.787   6.247  15.782 -0.6232 -2.0189  1.0574
17088TIP3    H272756   3.846   6.282  15.647 -0.8338  1.0700  1.7477
17089TIP3   OH272757   4.907   4.840   5.627 -0.0902 -0.6343  0.1564
17089TIP3    H172758   4.956   4.893   5.564 -0.3743  0.1740  0.5913
17089TIP3    H272759   4.973   4.804   5.686  0.2804 -2.3316 -1.2760
17090TIP3   OH272760   4.507   2.161   3.724  0.3068  0.0753 -0.1062
17090TIP3    H172761   4.459   2.242   3.708  0.9465  0.2603 -1.1686
17090TIP3    H272762   4.474   2.100   3.658  1.1621  0.0501 -0.5169
17091TIP3   OH272763   6.623   0.810   4.248 -0.7527 -0.0852 -0.1555
17091TIP3    H172764   6.687   0.747   4.281 -0.7361 -0.1357 -0.2836
17091TIP3    H272765   6.582   0.766   4.174 -0.5735  0.1438 -0.3941
17092TIP3   OH272766   3.558   3.878  13.826 -0.6587  0.0836  0.4488
17092TIP3    H172767   3.491   3.862  13.760 -0.0870  1.4300 -0.4885
17092TIP3    H272768   3.543   3.969  13.853  1.7047  0.8982 -0.8703
17093TIP3   OH272769   1.560   2.769   4.768 -0.0399 -0.5278  0.0878
17093TIP3    H172770   1.610   2.766   4.850  0.9584 -0.9219 -0.5375
17093TIP3    H272771   1.579   2.855   4.731  0.9935 -1.0645 -0.6543
17094TIP3   OH272772   5.283   5.235   3.431  0.1898  0.2220 -0.3389
17094TIP3    H172773   5.283   5.148   3.472  0.9299  0.4048  0.0565
17094TIP3    H272774   5.194   5.268   3.445  0.8913  0.9640  2.5786
17095TIP3   OH272775   5.065   3.128   2.747 -0.0056  0.3292 -1.0659
17095TIP3    H172776   5.107   3.110   2.831  2.8512  1.5320 -2.1527
17095TIP3    H272777   5.034   3.219   2.755 -2.4009 -0.5230 -0.3021
17096TIP3   OH272778   6.008   6.638   4.216  0.4965  0.1529 -0.0242
17096TIP3    H172779   5.981   6.707   4.156 -1.0345  0.0776  0.5633
17096TIP3    H272780   6.094   6.667   4.248 -0.7012  2.4598  1.2232
17097TIP3   OH272781   3.373   5.239  13.222 -0.2388 -0.0129 -0.0962
17097TIP3    H172782   3.381   5.327  13.185 -1.6725 -0.0213 -0.4279
17097TIP3    H272783   3.346   5.253  13.312  1.9480 -0.0451  0.6097
17098TIP3   OH272784   6.466   2.575   5.378 -0.1890  0.7081 -0.4227
17098TIP3    H172785   6.403   2.503   5.378 -0.0639  0.5825 -1.3476
17098TIP3    H272786   6.483   2.591   5.285  2.8181 -0.7466 -0.1590
17099TIP3   OH272787   4.048   4.698   4.934  0.5536  0.3434  0.6171
17099TIP3    H172788   3.992   4.749   4.992  0.3892 -1.2003  1.8383
17099TIP3    H272789   4.021   4.607   4.947  1.0858 -0.1226 -1.2552
17100TIP3   OH272790   6.066   1.521  14.947  0.2579  0.1363  0.1556
17100TIP3    H172791   6.108   1.491  14.866  0.4171  1.5808 -0.3084
17100TIP3    H272792   5.987   1.467  14.953  0.8571 -0.8114 -0.3218
17101TIP3   OH272793   1.482   6.134   3.695  0.1088 -0.4798 -0.0889
17101TIP3    H172794   1.417   6.092   3.639  1.2365 -1.6577 -0.5423
17101TIP3    H272795   1.507   6.066   3.758 -2.4888  1.3623  3.0898
17102TIP3   OH272796   3.074   1.663   2.833  0.3122 -0.5727  0.3378
17102TIP3    H172797   3.129   1.736   2.804  0.2240 -0.3407  0.7592
17102TIP3    H272798   3.058   1.679   2.926 -1.0358 -0.2775  0.0686
17103TIP3   OH272799   0.505   2.351   2.915 -0.3658 -0.1280 -0.1608
17103TIP3    H172800   0.562   2.393   2.979  1.4537 -0.1488 -1.7254
17103TIP3    H272801   0.457   2.285   2.964 -0.3010  1.0696  1.5277
17104TIP3   OH272802   1.422   0.695  14.116 -0.4116  0.4915 -0.3032
17104TIP3    H172803   1.446   0.736  14.199 -0.9408  1.0959 -0.4402
17104TIP3    H272804   1.386   0.767  14.064 -2.3918 -0.3484 -0.1373
17105TIP3   OH272805   5.720   2.009  17.024  0.2173 -0.0653  0.0035
17105TIP3    H172806   5.707   2.092  16.980 -0.7042  0.2385  0.8220
17105TIP3    H272807   5.745   2.033  17.114 -0.2549 -0.6638  0.2971
17106TIP3   OH272808   4.298   2.461   1.838 -0.0985  0.5246 -0.1322
17106TIP3    H172809   4.370   2.473   1.776 -0.6878  0.7076 -0.7897
17106TIP3    H272810   4.234   2.527   1.813 -1.3416 -0.8853 -0.7910
17107TIP3   OH272811   0.284   5.158  16.806  0.3244  0.5642  0.1586
17107TIP3    H172812   0.356   5.204  16.850  0.0964 -0.3645  1.5030
17107TIP3    H272813   0.326   5.113  16.732  0.8720  1.2333  0.0542
17108TIP3   OH272814   3.748   1.062   0.439 -0.3986 -0.1704 -0.4628
17108TIP3    H172815   3.726   1.147   0.400 -1.3015 -0.7052 -1.1277
17108TIP3    H272816   3.775   1.008   0.365 -1.1914 -0.8979 -0.2208
17109TIP3   OH272817   2.311   0.727   4.141  0.1532 -0.2419 -0.2220
17109TIP3    H172818   2.403   0.703   4.130 -0.3212 -2.7601  1.0461
17109TIP3    H272819   2.265   0.677   4.073 -0.5776 -1.0998  0.8896
17110TIP3   OH272820   4.441   5.632   4.351  0.4132  0.4469  0.5034
17110TIP3    H172821   4.514   5.635   4.288 -1.3305  0.8545 -1.5661
17110TIP3    H272822   4.411   5.722   4.356 -0.4940  0.1352  0.6707
17111TIP3   OH272823   5.596   2.552  10.454  0.0582  0.2979  0.2934
17111TIP3    H172824   5.586   2.467  10.411  0.2180 -0.3082  1.4351
17111TIP3    H272825   5.691   2.567  10.456  0.0505  0.3264  0.4355
17112TIP3   OH272826   5.354   1.656  16.717 -0.1974 -0.0790 -0.8719
17112TIP3    H172827   5.340   1.684  16.808  1.6466 -0.4549 -0.4580
17112TIP3    H272828   5.299   1.715  16.665  2.5450  3.5593  0.0792
17113TIP3   OH272829   3.742   3.519   1.671 -0.4404 -0.2052  0.3218
17113TIP3    H172830   3.661   3.472   1.692 -0.4190  0.2792  1.5103
17113TIP3    H272831   3.793   3.456   1.621 -1.4496 -0.5995 -0.2334
17114TIP3   OH272832   5.678   4.360  14.169 -0.0559 -0.7373 -0.0798
17114TIP3    H172833   5.634   4.443  14.187  2.1954  0.6966 -0.9717
17114TIP3    H272834   5.709   4.330  14.254 -3.0766 -2.0110  0.6375
17115TIP3   OH272835   2.730   2.888  17.010 -0.1221 -0.1899  0.2619
17115TIP3    H172836   2.734   2.883  16.915 -2.0930  0.3659  0.1434
17115TIP3    H272837   2.656   2.946  17.029  0.8925  0.5591  2.1134
17116TIP3   OH272838   0.079   5.282   3.800  0.1193 -0.4490 -0.4622
17116TIP3    H172839   0.061   5.190   3.821 -1.0126 -0.1145  0.1017
17116TIP3    H272840   0.056   5.290   3.708 -1.0932 -0.4274 -0.1722
17117TIP3   OH272841   3.407   4.666   2.743  0.1038 -0.4755  0.0203
17117TIP3    H172842   3.420   4.743   2.798 -0.5564 -0.7579  0.5720
17117TIP3    H272843   3.428   4.697   2.654 -1.6463  0.7493  0.0200
17118TIP3   OH272844   2.368   6.721   2.388 -0.3123  0.4028  0.1517
17118TIP3    H172845   2.288   6.673   2.408  0.4119 -0.5984  0.6429
17118TIP3    H272846   2.433   6.688   2.450  0.6223  0.8515 -0.5660
17119TIP3   OH272847   6.159   1.275  11.474  0.5228 -0.1771 -0.1623
17119TIP3    H172848   6.164   1.243  11.384 -2.7401  0.2231 -0.5357
17119TIP3    H272849   6.244   1.254  11.512  2.5163  0.9557 -3.7695
17120TIP3   OH272850   4.223   6.815   3.178 -0.4482  0.0815 -0.1263
17120TIP3    H172851   4.310   6.810   3.139 -0.3599 -2.2802  0.3508
17120TIP3    H272852   4.165   6.777   3.113 -0.6980 -1.2061  0.8433
17121TIP3   OH272853   6.428   0.286   0.160 -0.1841 -0.5675 -0.5324
17121TIP3    H172854   6.335   0.295   0.143 -0.1466  1.3461  0.1577
17121TIP3    H272855   6.471   0.324   0.084  0.0404 -1.8706 -1.0626
17122TIP3   OH272856   2.694   4.409  15.442  0.4133 -0.6530  0.2734
17122TIP3    H172857   2.688   4.370  15.529  1.9774 -0.7879  0.3238
17122TIP3    H272858   2.733   4.340  15.387 -0.2576 -0.4579 -0.4638
17123TIP3   OH272859   0.740   4.475   6.374  0.7045 -0.5413  0.2193
17123TIP3    H172860   0.785   4.391   6.388  0.6205 -0.6996 -0.4540
17123TIP3    H272861   0.649   4.451   6.359  1.1909 -0.5663 -2.9588
17124TIP3   OH272862   3.777   2.674  15.851 -0.2606 -0.2361 -0.6226
17124TIP3    H172863   3.865   2.709  15.864 -0.2580 -0.4476 -0.0653
17124TIP3    H272864   3.784   2.581  15.870 -0.8479 -0.0505  0.6007
17125TIP3   OH272865   2.096   5.319   3.770 -0.5270  0.0133 -0.3593
17125TIP3    H172866   2.085   5.414   3.778  1.9466  0.0993  3.1109
17125TIP3    H272867   2.008   5.284   3.782 -1.2467  1.7988 -0.2090
17126TIP3   OH272868   1.625   6.342  17.002 -0.7024 -1.0738  0.4557
17126TIP3    H172869   1.559   6.405  17.030 -0.9546 -0.8506 -0.6447
17126TIP3    H272870   1.660   6.307  17.084 -1.0444 -0.0175  1.0619
17127TIP3   OH272871   3.687   4.371  14.863 -0.2538  0.1202 -0.3870
17127TIP3    H172872   3.698   4.358  14.957 -1.4388  1.5436 -0.0330
17127TIP3    H272873   3.740   4.302  14.823  0.1254 -0.6050  1.3182
17128TIP3   OH272874   0.994   3.386  13.506  0.0081 -0.4947  0.2485
17128TIP3    H172875   0.939   3.313  13.481 -0.0771 -0.5765  0.6673
17128TIP3    H272876   1.082   3.363  13.475  0.1333 -1.1233  1.0473
17129TIP3   OH272877   0.506   4.988  13.128 -0.2708  0.8473  0.2659
17129TIP3    H172878   0.556   4.959  13.051 -0.0278  0.6810  0.4879
17129TIP3    H272879   0.568   4.984  13.200 -0.7440  0.1485  0.6358
17130TIP3   OH272880   6.458   6.266   4.886  0.9830 -0.0134  0.4169
17130TIP3    H172881   6.367   6.282   4.911  1.0427 -0.4698  0.9145
17130TIP3    H272882   6.466   6.306   4.799 -1.0567 -4.2557 -1.8527
17131TIP3   OH272883   1.079   6.562   3.000  0.4776 -0.1141 -0.4227
17131TIP3    H172884   1.162   6.597   2.968 -0.4421  1.3382 -1.2977
17131TIP3    H272885   1.089   6.559   3.095  2.6509 -2.9233 -0.7060
17132TIP3   OH272886   6.141   5.986  13.504  0.4245 -0.0541  0.0764
17132TIP3    H172887   6.175   5.971  13.592  0.0474  0.6201  0.3438
17132TIP3    H272888   6.111   5.900  13.474  1.8639 -0.5561  0.0459
17133TIP3   OH272889   1.758   1.587  13.072 -0.0267 -0.2879 -0.0043
17133TIP3    H172890   1.672   1.547  13.074 -0.1666  0.0306  0.6512
17133TIP3    H272891   1.781   1.600  13.164 -0.8480  2.9361 -0.2012
17134TIP3   OH272892   0.636   3.564   1.460  0.2816  0.1460 -0.0890
17134TIP3    H172893   0.581   3.547   1.537  0.2546  0.7677  0.0259
17134TIP3    H272894   0.579   3.546   1.385  1.1724 -3.4268  0.0022
17135TIP3   OH272895   6.187   2.631   2.295  0.1279  0.4221 -0.3187
17135TIP3    H172896   6.121   2.604   2.231 -1.4168  0.5394  1.1870
17135TIP3    H272897   6.258   2.668   2.242  0.0364 -1.8272 -2.1067
17136TIP3   OH272898   4.098   6.751  14.149 -0.2960 -0.0346  0.6682
17136TIP3    H172899   4.191   6.773  14.155 -0.2619 -0.1325  0.4957
17136TIP3    H272900   4.058   6.828  14.107 -0.1333 -0.4208 -0.1924
17137TIP3   OH272901   1.610   5.349  11.953 -0.1477 -0.5295 -0.1072
17137TIP3    H172902   1.576   5.437  11.962 -0.3071 -0.6789  0.7597
17137TIP3    H272903   1.558   5.310  11.883 -1.8691 -0.8055  1.3016
17138TIP3   OH272904   6.124   4.188   0.831 -0.2934 -0.1170 -0.1757
17138TIP3    H172905   6.164   4.189   0.744 -0.0889  1.9735 -0.0954
17138TIP3    H272906   6.157   4.108   0.872  2.8935  0.9475 -0.5510
17139TIP3   OH272907   3.722   0.407   3.258 -1.0941  0.5586 -0.7117
17139TIP3    H172908   3.643   0.420   3.312 -0.3807 -0.9432  0.7005
17139TIP3    H272909   3.793   0.401   3.320 -0.0630  0.1528 -1.9120
17140TIP3   OH272910   1.976   0.961  16.922  0.6700 -0.4978  0.8496
17140TIP3    H172911   1.941   1.050  16.923  1.8787  0.0117 -0.6788
17140TIP3    H272912   1.923   0.914  16.987  0.1169  1.3574  1.7819
17141TIP3   OH272913   0.112   1.680  13.022  0.1566 -0.9024 -0.0359
17141TIP3    H172914   0.140   1.768  12.995  0.6586 -1.2452 -0.6557
17141TIP3    H272915   0.183   1.649  13.079 -0.0720 -0.8618  0.2700
17142TIP3   OH272916   4.208   2.933  11.012  0.1884  0.0647 -0.4189
17142TIP3    H172917   4.294   2.974  11.010  0.8790 -1.3240  0.0724
17142TIP3    H272918   4.204   2.881  10.931 -0.2524  0.2668 -0.5270
17143TIP3   OH272919   1.166   6.144   3.296 -0.8047 -0.0988 -0.3779
17143TIP3    H172920   1.240   6.201   3.275 -0.2779 -0.5155  0.3038
17143TIP3    H272921   1.146   6.100   3.213 -0.0007 -0.3064 -0.4686
17144TIP3   OH272922   6.309   2.919   4.823 -0.3222 -0.0659 -0.1223
17144TIP3    H172923   6.329   2.906   4.916  1.2284 -2.3065 -0.7186
17144TIP3    H272924   6.395   2.928   4.781 -0.9742 -0.0079 -1.4621
17145TIP3   OH272925   5.019   1.927   6.069 -0.2221 -0.2377  0.1557
17145TIP3    H172926   4.962   1.928   6.145  2.1627 -0.5049  2.0086
17145TIP3    H272927   5.050   2.017   6.061  1.3417 -0.6876  0.9461
17146TIP3   OH272928   3.176   1.061   0.945  0.2016  0.4947  0.0790
17146TIP3    H172929   3.187   1.130   0.880 -3.5600  1.9522  0.8779
17146TIP3    H272930   3.219   1.094   1.024 -0.4115  1.3175  0.0649
17147TIP3   OH272931   1.339   4.429  13.618 -0.2340 -0.8515  0.0524
17147TIP3    H172932   1.269   4.367  13.634  0.4209 -1.4955  0.4270
17147TIP3    H272933   1.339   4.441  13.523 -0.3040 -1.4796 -0.0243
17148TIP3   OH272934   3.980   1.002   4.795  0.0714  0.2300 -0.6199
17148TIP3    H172935   4.006   0.962   4.878 -0.7756  0.8333 -0.0556
17148TIP3    H272936   3.995   1.096   4.808  1.1670  0.1934 -1.6105
17149TIP3   OH272937   5.048   0.842  13.467  0.2712 -0.0285 -0.7798
17149TIP3    H172938   4.988   0.860  13.395  1.3587 -0.5567 -1.8229
17149TIP3    H272939   5.067   0.749  13.461  1.0156  0.0849 -0.3217
17150TIP3   OH272940   1.800   6.386  12.765 -0.3279  0.6355 -0.5650
17150TIP3    H172941   1.852   6.466  12.768  0.1555  0.3309 -0.6995
17150TIP3    H272942   1.836   6.337  12.691 -0.4008  0.1422 -0.2754
17151TIP3   OH272943   1.409   6.366  15.258  0.1906 -0.0933  0.1927
17151TIP3    H172944   1.431   6.276  15.237 -0.1507 -0.2303  0.4210
17151TIP3    H272945   1.381   6.364  15.349  0.3992  0.2802  0.2686
17152TIP3   OH272946   4.016   4.347   4.259  0.2093 -0.0951 -0.2943
17152TIP3    H172947   3.962   4.424   4.240  0.5066  0.1333 -0.2252
17152TIP3    H272948   4.096   4.383   4.299  0.2459 -0.4581 -0.0431
17153TIP3   OH272949   3.122   1.696  15.460  0.5057  0.2063  0.1925
17153TIP3    H172950   3.209   1.721  15.430  1.1046  0.0284  1.7563
17153TIP3    H272951   3.072   1.777  15.457  0.4518  0.1340 -1.5707
17154TIP3   OH272952   3.266   3.388  13.920 -0.2695 -0.3723 -0.0011
17154TIP3    H172953   3.213   3.344  13.854  0.1381  0.6064 -1.0164
17154TIP3    H272954   3.312   3.457  13.871 -0.2095  0.5861  1.3656
17155TIP3   OH272955   6.209   2.573   2.556 -0.5341 -0.2937 -0.6426
17155TIP3    H172956   6.263   2.630   2.610 -3.2847  0.8644  1.0277
17155TIP3    H272957   6.200   2.619   2.473  0.9960 -0.4882 -0.9242
17156TIP3   OH272958   5.291   1.047   3.606  0.0627  0.8642 -0.8707
17156TIP3    H172959   5.341   1.092   3.674  1.3003 -1.0120 -0.4919
17156TIP3    H272960   5.209   1.095   3.601  0.8300  2.3629  0.4073
17157TIP3   OH272961   1.985   1.019   1.040  0.1408 -0.3852 -0.0124
17157TIP3    H172962   1.932   0.944   1.069  0.6519 -0.5526  0.4874
17157TIP3    H272963   2.025   1.053   1.120  1.3208 -0.6584 -0.4832
17158TIP3   OH272964   0.228   1.392   5.338  0.3806  0.2599  0.2788
17158TIP3    H172965   0.227   1.309   5.385  0.1831  0.4460  0.6078
17158TIP3    H272966   0.300   1.441   5.379 -0.7358  0.9936  1.3967
17159TIP3   OH272967   3.594   6.745   3.865  0.4362 -0.3251  0.0126
17159TIP3    H172968   3.539   6.699   3.929  0.4250  0.5677  0.6466
17159TIP3    H272969   3.631   6.675   3.811 -0.1258 -1.0351  0.5330
17160TIP3   OH272970   6.646   1.115   2.426 -0.0471  0.2137 -0.0079
17160TIP3    H172971   6.612   1.026   2.435  0.6815  0.1708  2.6282
17160TIP3    H272972   6.637   1.153   2.513  2.0733  1.8613 -0.4694
17161TIP3   OH272973   6.689   5.952  14.947 -0.3895 -0.4776 -0.4187
17161TIP3    H172974   6.741   5.892  15.000  0.1629  0.0445 -0.3655
17161TIP3    H272975   6.746   5.974  14.873 -0.4282  0.3215 -0.2159
17162TIP3   OH272976   3.237   0.226   3.119 -0.1271  0.7638 -0.0790
17162TIP3    H172977   3.309   0.194   3.065  0.4162  3.0357 -0.7548
17162TIP3    H272978   3.243   0.175   3.199 -0.1204 -1.7286 -1.6031
17163TIP3   OH272979   5.004   2.615   5.995 -0.2494 -0.1111  0.3707
17163TIP3    H172980   4.937   2.549   6.010  0.1321 -0.3994  0.8390
17163TIP3    H272981   5.087   2.569   6.012  0.1091  0.0315 -0.9338
17164TIP3   OH272982   6.074   6.496   3.335  0.1583  0.6133  0.1961
17164TIP3    H172983   5.990   6.510   3.291  0.5740 -0.1160 -0.8618
17164TIP3    H272984   6.062   6.416   3.385 -0.3422  1.4907  1.4946
17165TIP3   OH272985   0.141   6.378   0.407  0.2746  0.0034 -0.1386
17165TIP3    H172986   0.117   6.470   0.404  0.9599  0.1468 -2.0217
17165TIP3    H272987   0.058   6.331   0.411 -0.0733  0.6971  0.9847
17166TIP3   OH272988   2.157   2.928   3.526  0.7180 -0.3824 -0.1744
17166TIP3    H172989   2.171   2.840   3.562  1.3861 -0.2338 -0.0637
17166TIP3    H272990   2.243   2.969   3.530  0.2259  0.5872  0.6066
17167TIP3   OH272991   2.452   5.182   0.122  0.2669  0.2426  0.3041
17167TIP3    H172992   2.389   5.230   0.067  0.1003  0.3095  0.5526
17167TIP3    H272993   2.459   5.096   0.080 -0.4069  0.0457  0.5738
17168TIP3   OH272994   2.889   3.909   3.582  0.1371 -0.0748  0.0314
17168TIP3    H172995   2.941   3.858   3.518 -0.3241  0.3041 -0.6478
17168TIP3    H272996   2.806   3.862   3.587  0.0040  0.1595  0.0038
17169TIP3   OH272997   4.464   5.033  14.251  0.0880 -0.1156  0.4182
17169TIP3    H172998   4.506   5.087  14.184 -0.2454  0.9647  1.0573
17169TIP3    H272999   4.388   5.084  14.278  0.2371 -0.5242  1.6366
17170TIP3   OH273000   5.009   2.263   5.385 -0.3697  0.3377 -0.1797
17170TIP3    H173001   5.094   2.219   5.386 -0.7482 -0.4251 -1.0110
17170TIP3    H273002   4.949   2.201   5.425 -1.0463 -0.2262 -2.0138
17171TIP3   OH273003   1.996   3.318  12.227  0.0902 -0.3908  0.2333
17171TIP3    H173004   1.960   3.407  12.233 -0.1256 -0.2950 -2.0251
17171TIP3    H273005   2.091   3.331  12.225  0.1167 -0.3298  1.4606
17172TIP3   OH273006   6.466   4.539  16.440  0.2272  0.2011  0.3771
17172TIP3    H173007   6.389   4.531  16.497 -1.7300  1.0571 -2.0612
17172TIP3    H273008   6.467   4.458  16.390  1.5587 -0.2647  1.1436
17173TIP3   OH273009   0.308   2.861   0.399 -0.1618 -0.5667 -0.3146
17173TIP3    H173010   0.269   2.801   0.462 -0.7761 -0.8805 -0.9850
17173TIP3    H273011   0.402   2.848   0.408 -0.2322 -0.4660  0.6689
17174TIP3   OH273012   6.495   1.488  17.044 -0.5225 -0.0313 -0.0424
17174TIP3    H173013   6.411   1.445  17.056 -0.3695  0.2006  2.0524
17174TIP3    H273014   6.557   1.434  17.093  0.4842  0.0425 -1.1947
17175TIP3   OH273015   4.288   2.891   5.115  0.0234  0.0328 -1.0634
17175TIP3    H173016   4.216   2.953   5.107  0.8913  1.1000 -0.6521
17175TIP3    H273017   4.301   2.859   5.026 -0.8352 -0.0354 -1.1735
17176TIP3   OH273018   2.920   2.221  10.918  1.0352 -0.7959 -0.0579
17176TIP3    H173019   2.843   2.268  10.886 -0.4063 -1.8258  1.7634
17176TIP3    H273020   2.992   2.253  10.864 -0.3972  1.3475 -0.7632
17177TIP3   OH273021   1.450   6.461  14.377 -0.0303 -0.2289 -0.2904
17177TIP3    H173022   1.413   6.445  14.464  0.1263  0.1151 -0.1585
17177TIP3    H273023   1.500   6.542  14.387 -1.3364  0.6795 -1.1099
17178TIP3   OH273024   0.382   2.615  13.601  0.9023  0.0344 -0.3930
17178TIP3    H173025   0.349   2.551  13.664 -0.9786 -0.6368 -2.0092
17178TIP3    H273026   0.472   2.588  13.585  1.2980  0.0143  1.7441
17179TIP3   OH273027   2.410   0.478  16.011  0.4554 -0.6246  0.0183
17179TIP3    H173028   2.454   0.428  16.080 -0.7321  0.0408  1.3045
17179TIP3    H273029   2.324   0.435  16.002 -0.3874  0.8439  0.8035
17180TIP3   OH273030   1.759   2.585   2.973 -0.5287  0.2247 -0.2805
17180TIP3    H173031   1.785   2.593   3.065 -3.0367  2.6844  0.2757
17180TIP3    H273032   1.811   2.651   2.927  1.9796 -2.1460 -0.9797
17181TIP3   OH273033   4.418   0.551  11.931  0.9253  0.1897 -0.8106
17181TIP3    H173034   4.415   0.462  11.896  1.9067 -0.3167  0.3499
17181TIP3    H273035   4.340   0.557  11.987  2.2476 -0.8638  1.2067
17182TIP3   OH273036   4.918   1.005  15.931 -0.7565 -0.4825 -0.0694
17182TIP3    H173037   4.932   0.914  15.903 -2.3336 -0.3524 -1.3550
17182TIP3    H273038   5.006   1.037  15.951 -0.0134 -1.8453 -1.0338
17183TIP3   OH273039   1.414   1.617  13.410  0.5456  0.1482  0.3152
17183TIP3    H173040   1.337   1.647  13.458  1.5580  2.2547  0.7001
17183TIP3    H273041   1.381   1.595  13.323 -0.0445  4.0913 -0.5496
17184TIP3   OH273042   1.665   4.758  12.336  0.0185 -0.5321  0.2193
17184TIP3    H173043   1.751   4.746  12.377 -0.6140  0.0426  1.7544
17184TIP3    H273044   1.682   4.815  12.262  1.0457 -0.8186  0.2227
17185TIP3   OH273045   5.409   0.240   6.056 -0.5570  0.4673  0.4979
17185TIP3    H173046   5.335   0.294   6.085 -0.8456 -0.2775  1.1563
17185TIP3    H273047   5.372   0.152   6.046  0.0153  0.2968 -0.1430
17186TIP3   OH273048   1.945   2.904  12.964  0.1962  0.2262 -0.0666
17186TIP3    H173049   1.996   2.859  13.031 -0.2471 -0.4696 -0.1911
17186TIP3    H273050   1.956   2.997  12.984  1.2199  0.0721  0.1193
17187TIP3   OH273051   5.949   2.022   3.570 -0.7102 -0.6290  0.3958
17187TIP3    H173052   5.988   2.068   3.495 -1.0750 -0.5256  0.2639
17187TIP3    H273053   5.855   2.035   3.558 -0.8012 -1.1804  0.5083
17188TIP3   OH273054   0.375   0.968  12.852  0.2322 -0.0528 -0.1162
17188TIP3    H173055   0.326   0.925  12.923  1.3682 -0.6506  0.3081
17188TIP3    H273056   0.327   0.943  12.773 -0.9991  0.5494  0.4165
17189TIP3   OH273057   5.826   1.720  16.580 -0.3097  0.5186  0.7259
17189TIP3    H173058   5.737   1.694  16.558  0.1642 -1.1385  0.7261
17189TIP3    H273059   5.816   1.805  16.624 -1.7242  1.2095 -0.8712
17190TIP3   OH273060   2.064   4.198   3.064  0.3308 -0.2636  0.2226
17190TIP3    H173061   1.988   4.141   3.080  0.7757 -0.5709  1.3088
17190TIP3    H273062   2.049   4.235   2.977 -1.2952  0.0196  0.6112
17191TIP3   OH273063   5.556   2.632   5.459 -0.6408 -0.0764 -0.4657
17191TIP3    H173064   5.523   2.545   5.439  0.6288 -0.5302 -0.6084
17191TIP3    H273065   5.576   2.629   5.553  1.5972 -0.6918 -0.9327
17192TIP3   OH273066   6.766   4.157   3.958  0.5531 -0.0805  0.2851
17192TIP3    H173067   6.770   4.108   4.040  0.4299  0.4328  0.6013
17192TIP3    H273068   6.746   4.247   3.984 -0.8027 -0.1726 -0.3909
17193TIP3   OH273069   3.982   5.176   3.469 -0.1826  0.1143 -0.3472
17193TIP3    H173070   3.893   5.205   3.448  0.2966  1.0128 -1.1639
17193TIP3    H273071   4.038   5.249   3.442  0.9647 -1.1362 -1.4219
17194TIP3   OH273072   3.573   6.719  13.173  0.0470 -0.1403 -0.1108
17194TIP3    H173073   3.530   6.792  13.129 -1.4079  0.1696  1.7082
17194TIP3    H273074   3.615   6.759  13.250 -1.8368 -1.3343  1.6052
17195TIP3   OH273075   0.451   0.308   4.206 -0.1875  0.7866 -0.1905
17195TIP3    H173076   0.499   0.339   4.129 -0.4947  1.9859  0.0836
17195TIP3    H273077   0.416   0.223   4.180  0.2249  0.9045 -1.1685
17196TIP3   OH273078   1.054   2.955  13.624 -0.2117 -0.2228  0.0731
17196TIP3    H173079   1.052   2.881  13.564  1.9032  0.8943 -1.4752
17196TIP3    H273080   1.101   2.923  13.700  0.8606 -0.4500 -0.6703
17197TIP3   OH273081   3.127   2.497  14.221  1.1002 -0.3660 -0.2375
17197TIP3    H173082   3.183   2.572  14.200  2.4689 -1.3173  0.0174
17197TIP3    H273083   3.136   2.438  14.146  0.3575 -0.4900 -0.2387
17198TIP3   OH273084   0.614   6.262  11.771  0.5784 -0.1546  0.0007
17198TIP3    H173085   0.528   6.302  11.756  0.4342 -0.8489 -1.1608
17198TIP3    H273086   0.599   6.201  11.844  0.0635 -0.3116 -0.2301
17199TIP3   OH273087   3.535   6.559  15.901  0.4816  0.3058  0.1554
17199TIP3    H173088   3.452   6.515  15.918  0.7985  0.0436  1.0228
17199TIP3    H273089   3.519   6.650  15.928 -0.1318  0.7233 -1.5145
17200TIP3   OH273090   2.796   0.636  13.621 -0.6039  0.4861  0.0928
17200TIP3    H173091   2.855   0.646  13.695  0.9764  0.6229 -1.1494
17200TIP3    H273092   2.784   0.724  13.587 -0.8043  0.3433 -0.2127
17201TIP3   OH273093   4.501   1.280  15.177 -0.7232 -0.6889 -0.5433
17201TIP3    H173094   4.436   1.264  15.108 -2.3426 -1.5791  1.1528
17201TIP3    H273095   4.496   1.374  15.192 -0.5950 -0.5373 -1.4161
17202TIP3   OH273096   5.013   2.392  14.978 -0.2681  0.8595 -0.1342
17202TIP3    H173097   5.103   2.379  15.010 -0.0057  1.2439 -0.7063
17202TIP3    H273098   5.006   2.331  14.904  0.5775  3.0696 -2.0879
17203TIP3   OH273099   4.866   5.752  16.721  0.1908 -0.3147  0.0587
17203TIP3    H173100   4.900   5.825  16.773 -0.3540  0.4708 -0.6686
17203TIP3    H273101   4.816   5.699  16.784 -0.7666  0.8223  0.2914
17204TIP3   OH273102   1.021   1.354   2.900  0.1443  0.3582 -0.4690
17204TIP3    H173103   1.105   1.315   2.877 -0.7577 -1.3504 -0.9332
17204TIP3    H273104   1.016   1.433   2.847  0.3589 -0.8484 -2.3531
17205TIP3   OH273105   2.920   0.240  14.168 -0.2213 -0.3266 -0.9978
17205TIP3    H173106   2.967   0.245  14.252 -1.7346  0.0485 -0.1394
17205TIP3    H273107   2.876   0.155  14.170 -0.7995 -0.0327 -1.1121
17206TIP3   OH273108   2.043   4.060  14.709  0.1029  0.7593 -0.7562
17206TIP3    H173109   2.122   4.101  14.744 -0.8513  1.1020  1.0614
17206TIP3    H273110   2.068   3.969  14.691  1.0481  1.0158 -0.7373
17207TIP3   OH273111   0.618   3.916   1.518 -0.1906 -0.1097  0.3582
17207TIP3    H173112   0.683   3.986   1.523  0.8608 -1.2302  3.2419
17207TIP3    H273113   0.636   3.873   1.434  2.5381 -0.1269  0.9045
17208TIP3   OH273114   2.611   2.086   4.610 -0.3872  0.0709 -0.3363
17208TIP3    H173115   2.556   2.060   4.536 -1.6738  0.2935  0.5174
17208TIP3    H273116   2.586   2.025   4.680 -1.9465  2.2689  1.0640
17209TIP3   OH273117   0.786   5.470  11.478  0.4441  0.5228  0.3626
17209TIP3    H173118   0.862   5.450  11.424 -0.3443  0.7102 -0.8241
17209TIP3    H273119   0.808   5.432  11.564  1.9286  0.7009  0.0833
17210TIP3   OH273120   5.601   5.991   3.915  0.3450 -0.0203  0.2212
17210TIP3    H173121   5.640   6.023   3.996 -0.3202  1.3741 -0.0000
17210TIP3    H273122   5.636   5.903   3.905 -1.0092 -0.9200  2.9774
17211TIP3   OH273123   5.559   5.503   1.237  0.0629 -0.2605 -0.1066
17211TIP3    H173124   5.562   5.565   1.164 -1.9299 -0.5542 -0.4700
17211TIP3    H273125   5.465   5.485   1.249  0.6105 -3.3683 -0.1510
17212TIP3   OH273126   3.859   1.720   4.133  0.1368  0.1681  0.2461
17212TIP3    H173127   3.938   1.769   4.156  1.6859 -0.9230 -2.4101
17212TIP3    H273128   3.871   1.634   4.174 -0.7427  0.7179  1.6809
17213TIP3   OH273129   4.123   1.132  12.246 -0.5702 -0.0034  0.4557
17213TIP3    H173130   4.072   1.167  12.173  0.6948 -0.5890 -0.7464
17213TIP3    H273131   4.191   1.080  12.204  1.2029  1.0143  1.9878
17214TIP3   OH273132   6.241   4.336   5.257 -0.1966  0.0946 -0.0758
17214TIP3    H173133   6.230   4.321   5.351 -0.5505 -1.0723 -0.2927
17214TIP3    H273134   6.160   4.380   5.230  0.2387  1.1401  0.3054
17215TIP3   OH273135   6.090   0.931   6.486  0.0392 -0.7797  0.0751
17215TIP3    H173136   6.020   0.992   6.463 -0.0496 -0.7571  0.4046
17215TIP3    H273137   6.048   0.865   6.541  0.5336 -0.0554  1.3428
17216TIP3   OH273138   0.442   5.407  13.847  0.0725  0.3186  0.6020
17216TIP3    H173139   0.519   5.457  13.871  0.3258 -0.2849  1.0582
17216TIP3    H273140   0.382   5.471  13.810  0.6725  0.8373  0.5246
17217TIP3   OH273141   0.414   2.223  12.499 -0.7216 -0.2465  0.5421
17217TIP3    H173142   0.389   2.183  12.582  0.8199 -0.7046  0.7858
17217TIP3    H273143   0.379   2.165  12.432 -0.1276 -0.9972  0.8844
17218TIP3   OH273144   2.185   5.564  14.357 -0.1078 -0.4792  0.2476
17218TIP3    H173145   2.280   5.567  14.349 -0.2126 -0.5193 -1.0521
17218TIP3    H273146   2.168   5.491  14.416  0.6424 -0.6916  0.2062
17219TIP3   OH273147   2.238   3.486   6.290  0.0159  0.2720  0.1921
17219TIP3    H173148   2.260   3.400   6.326  0.0561  0.3482  0.3482
17219TIP3    H273149   2.146   3.479   6.264  0.5803 -0.4736 -1.6929
17220TIP3   OH273150   2.877   1.527   1.396  0.4646 -0.4933  0.4757
17220TIP3    H173151   2.837   1.564   1.318  1.3190 -0.5054  0.0234
17220TIP3    H273152   2.837   1.441   1.406 -1.5327  0.5254  1.5299
17221TIP3   OH273153   1.861   1.822   2.065 -0.7784 -0.4063 -0.3355
17221TIP3    H173154   1.803   1.888   2.027 -0.8114  0.2971  0.9294
17221TIP3    H273155   1.930   1.811   1.999 -2.1407 -1.0198 -1.7070
17222TIP3   OH273156   6.281   5.518  16.081 -0.0068  0.0066  0.3203
17222TIP3    H173157   6.230   5.575  16.138 -0.6322  0.4800 -0.6959
17222TIP3    H273158   6.363   5.504  16.128 -1.1791 -1.0138  2.1155
17223TIP3   OH273159   4.961   6.572  13.741  0.4885 -0.1423 -0.1216
17223TIP3    H173160   5.056   6.566  13.728  0.5865 -1.1261  0.9768
17223TIP3    H273161   4.951   6.627  13.818  0.0952  1.3636 -1.2335
17224TIP3   OH273162   4.837   4.226  15.593 -0.3665 -0.3253 -0.2929
17224TIP3    H173163   4.762   4.203  15.649 -0.8667 -2.4615 -1.7957
17224TIP3    H273164   4.898   4.153  15.604 -0.7938 -1.1309 -3.1005
17225TIP3   OH273165   5.705   5.524  15.334  0.0763 -0.1188  0.1991
17225TIP3    H173166   5.653   5.589  15.381 -0.4395  1.2147 -2.1437
17225TIP3    H273167   5.663   5.516  15.249  1.1501 -2.2790 -0.1738
17226TIP3   OH273168   3.437   6.686   1.867 -0.3486  0.0151  0.3137
17226TIP3    H173169   3.477   6.728   1.791  1.1226 -1.1858  0.3976
17226TIP3    H273170   3.382   6.617   1.830 -2.8984  2.0662  0.1674
17227TIP3   OH273171   3.734   6.572  16.853 -0.0131 -0.1362 -0.9206
17227TIP3    H173172   3.738   6.483  16.890  1.2078 -0.1898 -1.1537
17227TIP3    H273173   3.733   6.629  16.930  1.4498 -0.2853 -0.7697
17228TIP3   OH273174   1.721   5.331   1.664  0.1616  0.7946  0.1538
17228TIP3    H173175   1.792   5.303   1.607 -1.4830 -2.6937 -0.3449
17228TIP3    H273176   1.648   5.349   1.605 -0.0060  2.2961  0.8057
17229TIP3   OH273177   6.735   1.437   2.300 -0.2828  0.3675  0.7207
17229TIP3    H173178   6.791   1.361   2.282  0.7807  1.3184 -0.0128
17229TIP3    H273179   6.652   1.414   2.258  0.3346  0.0149 -0.3429
17230TIP3   OH273180   1.375   2.524  11.243  0.5056 -0.3139 -0.4906
17230TIP3    H173181   1.427   2.497  11.319  0.8357 -0.9288 -0.9230
17230TIP3    H273182   1.308   2.456  11.235  0.9095 -0.6428 -1.1663
17231TIP3   OH273183   6.804   3.180  15.132 -0.6545  0.2272  0.7388
17231TIP3    H173184   6.724   3.154  15.178  0.2629  0.0247  2.2500
17231TIP3    H273185   6.811   3.117  15.060 -2.6725  1.1945 -0.3613
17232TIP3   OH273186   6.268   0.127  15.768  0.2761  0.7128  0.2904
17232TIP3    H173187   6.177   0.131  15.737  0.4985  0.6784 -0.3667
17232TIP3    H273188   6.260   0.125  15.864 -0.5043 -1.2827  0.2219
17233TIP3   OH273189   0.770   6.713   4.354 -0.4427  0.1434  0.2544
17233TIP3    H173190   0.703   6.702   4.287 -0.0137 -2.3068  0.1969
17233TIP3    H273191   0.832   6.642   4.339 -0.1591 -0.2669  3.0166
17234TIP3   OH273192   2.040   4.041  11.951  0.3425 -0.0886 -0.0401
17234TIP3    H173193   2.119   4.095  11.959 -1.2722  2.1098  1.7673
17234TIP3    H273194   1.978   4.097  11.906 -1.3200 -0.4598  1.7263
17235TIP3   OH273195   4.251   2.028  17.095 -0.1022  0.0066  0.1188
17235TIP3    H173196   4.267   2.114  17.056  3.5812 -0.6197  0.0686
17235TIP3    H273197   4.240   2.045  17.188 -0.4587  0.6382 -0.0362
17236TIP3   OH273198   1.226   0.701  16.859  0.1074 -0.2446 -0.3026
17236TIP3    H173199   1.167   0.647  16.807  1.7875 -1.4606 -0.9973
17236TIP3    H273200   1.213   0.672  16.949  0.0034 -0.8625 -0.5121
17237TIP3   OH273201   5.666   5.809  13.489  0.3825 -0.5665 -0.1353
17237TIP3    H173202   5.684   5.805  13.395  1.9798  0.3107  0.1156
17237TIP3    H273203   5.597   5.875  13.497 -1.6316 -2.5250 -0.9227
17238TIP3   OH273204   6.206   5.394  11.756 -0.0883  0.2099  0.5683
17238TIP3    H173205   6.183   5.444  11.834  0.4694  1.8832 -0.3306
17238TIP3    H273206   6.269   5.329  11.787  0.1320  0.8622  1.5120
17239TIP3   OH273207   3.303   1.379   5.384  0.3246  0.2832 -0.1308
17239TIP3    H173208   3.260   1.319   5.324 -1.5284  0.2789  1.1461
17239TIP3    H273209   3.331   1.324   5.458 -2.0948  1.0643  1.4186
17240TIP3   OH273210   3.040   5.587  16.186 -0.0897 -0.5965  0.0020
17240TIP3    H173211   3.065   5.670  16.227  1.9142 -0.9489 -0.4437
17240TIP3    H273212   2.969   5.554  16.240  0.8701  0.1277  1.7460
17241TIP3   OH273213   5.545   5.112   0.537 -0.1727  0.1540 -0.0824
17241TIP3    H173214   5.621   5.139   0.589  0.2609  0.4927 -0.8802
17241TIP3    H273215   5.582   5.084   0.453 -0.8352 -0.7067 -0.0918
17242TIP3   OH273216   4.969   3.570   0.969 -0.0081 -0.5468 -0.0039
17242TIP3    H173217   5.055   3.567   0.927 -0.0771 -0.1788 -0.1787
17242TIP3    H273218   4.937   3.659   0.952 -0.9974 -1.0864 -1.0984
17243TIP3   OH273219   3.787   1.461  11.941  0.6321  0.1238  0.7329
17243TIP3    H173220   3.831   1.542  11.964  1.3604  0.0632 -0.4428
17243TIP3    H273221   3.732   1.484  11.866 -1.8202  0.3428  2.5229
17244TIP3   OH273222   6.023   4.883  12.233 -0.5046  0.6618  0.8670
17244TIP3    H173223   5.942   4.918  12.197  0.1437  2.1797  0.8477
17244TIP3    H273224   6.009   4.883  12.328 -0.3618  1.3480  0.8888
17245TIP3   OH273225   2.850   1.361   4.347 -0.0188 -0.2244 -0.2455
17245TIP3    H173226   2.835   1.281   4.297 -0.7231  0.7236 -1.5790
17245TIP3    H273227   2.945   1.373   4.348 -0.0721  1.0308 -3.4585
17246TIP3   OH273228   1.659   6.346   3.593  0.4141  0.0463 -0.3080
17246TIP3    H173229   1.740   6.299   3.612 -0.4981 -1.1940  0.5546
17246TIP3    H273230   1.591   6.299   3.641 -1.3363 -0.8201 -3.4767
17247TIP3   OH273231   4.770   2.621   3.830 -0.5685 -0.1870 -0.4727
17247TIP3    H173232   4.745   2.577   3.749  0.7035  0.5219 -1.2638
17247TIP3    H273233   4.834   2.562   3.871  0.3418  0.4115 -1.0131
17248TIP3   OH273234   5.386   1.964   2.395  0.4669  0.2089 -0.5984
17248TIP3    H173235   5.454   2.007   2.343  2.2238 -0.9716  0.6780
17248TIP3    H273236   5.333   1.917   2.330  0.9077  1.0736 -1.6000
17249TIP3   OH273237   0.203   3.689  13.405 -0.1417  0.1609 -0.1290
17249TIP3    H173238   0.251   3.626  13.351 -2.9062 -2.5231  0.3744
17249TIP3    H273239   0.136   3.724  13.346 -0.0442  0.9155  0.2122
17250TIP3   OH273240   2.868   0.861   5.122  0.3609 -0.0685 -0.3243
17250TIP3    H173241   2.888   0.955   5.114 -1.2828  0.2503 -0.9028
17250TIP3    H273242   2.872   0.845   5.217  1.6870  0.3300 -0.2947
17251TIP3   OH273243   0.345   4.216   1.945 -0.2222 -0.2309 -0.4099
17251TIP3    H173244   0.310   4.159   1.877 -1.1421  0.1516 -0.2537
17251TIP3    H273245   0.290   4.294   1.942  0.1275  0.0521  0.3591
17252TIP3   OH273246   1.288   4.050   3.006 -0.4089  0.2376  0.2802
17252TIP3    H173247   1.375   4.020   3.031 -0.4365 -1.1075 -1.1730
17252TIP3    H273248   1.228   4.003   3.065 -0.3502 -1.3243 -0.9013
17253TIP3   OH273249   4.193   6.678  15.391  0.5632  0.4461  0.3797
17253TIP3    H173250   4.219   6.693  15.482  0.5688  0.8475  0.3112
17253TIP3    H273251   4.098   6.668  15.395  0.7970 -2.0918  0.7823
17254TIP3   OH273252   2.649   4.534   5.719  0.0658 -0.3177 -0.1707
17254TIP3    H173253   2.573   4.498   5.672 -0.5076  0.9630 -0.2489
17254TIP3    H273254   2.613   4.561   5.804  0.8442 -1.4802  0.5397
17255TIP3   OH273255   6.028   1.980  15.842 -0.4421  0.1865 -0.1719
17255TIP3    H173256   5.989   2.007  15.924 -2.3359 -2.8081 -0.0406
17255TIP3    H273257   5.992   2.041  15.777 -0.5740  1.2227  0.8551
17256TIP3   OH273258   4.439   2.303   4.836 -0.2277  0.3438  0.4842
17256TIP3    H173259   4.363   2.323   4.891 -0.6436 -2.0176  0.8089
17256TIP3    H273260   4.406   2.244   4.768  0.8973  0.9264 -0.6026
17257TIP3   OH273261   0.050   4.344  14.682  0.3986  0.0124  0.2955
17257TIP3    H173262   0.058   4.435  14.654 -0.2311 -0.3681 -1.1771
17257TIP3    H273263   0.083   4.343  14.772 -0.4855  1.8635  0.6525
17258TIP3   OH273264   6.491   6.770   3.990 -0.2156  0.1114  0.3566
17258TIP3    H173265   6.428   6.839   3.968 -0.5677 -0.8928 -1.8314
17258TIP3    H273266   6.439   6.703   4.034  0.1005  1.1139  2.3494
17259TIP3   OH273267   3.253   3.410   0.224  0.2686 -0.1171 -0.1199
17259TIP3    H173268   3.280   3.349   0.155  0.9463 -0.1969  0.2122
17259TIP3    H273269   3.314   3.483   0.217 -0.3575  0.3986 -0.3232
17260TIP3   OH273270   3.076   2.959   0.567  0.3037 -0.3654 -0.9383
17260TIP3    H173271   3.010   2.905   0.611 -0.3036  0.6771 -0.5492
17260TIP3    H273272   3.063   3.047   0.603  0.2624  0.3667 -2.6730
17261TIP3   OH273273   2.899   1.403  10.927  0.5179  0.2509  0.7585
17261TIP3    H173274   2.811   1.416  10.893  0.7831  1.0373  0.3640
17261TIP3    H273275   2.907   1.308  10.939 -0.7953  0.2663  1.9121
17262TIP3   OH273276   0.820   2.797  16.205 -0.1493 -0.7814  0.3480
17262TIP3    H173277   0.904   2.837  16.182 -0.1795 -1.7526 -1.4572
17262TIP3    H273278   0.797   2.838  16.289  2.9087 -1.7093  1.7021
17263TIP3   OH273279   0.296   5.102   0.315  0.3020 -0.3331 -0.4462
17263TIP3    H173280   0.366   5.156   0.353 -0.0216  1.1126 -1.8287
17263TIP3    H273281   0.216   5.134   0.356  0.2281 -0.5900 -0.3875
17264TIP3   OH273282   6.489   3.318   3.345  0.6611 -0.5384  0.0961
17264TIP3    H173283   6.574   3.323   3.388 -0.2575 -0.3326  1.9151
17264TIP3    H273284   6.475   3.224   3.330  1.7446 -0.4852 -1.3305
17265TIP3   OH273285   3.298   5.729   5.140 -0.2168  0.0234 -0.2844
17265TIP3    H173286   3.333   5.780   5.067 -0.9316  0.0560 -0.6082
17265TIP3    H273287   3.297   5.639   5.107  0.6122 -0.1415  0.1245
17266TIP3   OH273288   1.096   1.482  12.916  0.0693  0.0030  0.3868
17266TIP3    H173289   1.027   1.471  12.981  0.9633 -0.9799  1.2034
17266TIP3    H273290   1.050   1.495  12.833 -1.0937 -0.9606  0.8714
17267TIP3   OH273291   4.176   3.334  14.398 -0.1047  0.4920  0.1858
17267TIP3    H173292   4.104   3.393  14.372  0.1888  1.3979  1.3640
17267TIP3    H273293   4.212   3.375  14.477  1.4724 -0.1566 -0.1852
17268TIP3   OH273294   1.593   4.170   6.181  0.0980 -0.2158  0.1671
17268TIP3    H173295   1.609   4.147   6.272 -0.4321  1.3973  0.6750
17268TIP3    H273296   1.501   4.150   6.166  0.2458 -0.7141 -0.0925
17269TIP3   OH273297   2.630   1.660  13.681  0.1200 -0.4265 -0.3550
17269TIP3    H173298   2.681   1.589  13.643  1.5237  0.5299 -0.3074
17269TIP3    H273299   2.692   1.733  13.687 -1.6913  1.3354 -1.9886
17270TIP3   OH273300   5.890   3.216  16.856 -0.1728 -0.1774  0.1827
17270TIP3    H173301   5.973   3.262  16.847  0.0498 -0.1923  1.9215
17270TIP3    H273302   5.824   3.280  16.831  0.2409  0.5277  0.8798
17271TIP3   OH273303   6.570   0.669   3.032 -0.3117  0.0691 -0.6676
17271TIP3    H173304   6.513   0.648   2.957 -1.3616 -0.3266  0.2209
17271TIP3    H273305   6.635   0.729   2.997 -0.6639 -0.2838 -1.9539
17272TIP3   OH273306   1.278   1.939   3.698 -0.3466 -0.1280  0.2860
17272TIP3    H173307   1.230   1.870   3.651 -0.6892  0.1219  0.2612
17272TIP3    H273308   1.354   1.956   3.643 -0.9405  0.4257 -0.3863
17273TIP3   OH273309   3.928   6.320  15.407  0.0937 -0.5846 -0.5276
17273TIP3    H173310   3.841   6.325  15.368  0.7058  0.1007 -1.8399
17273TIP3    H273311   3.952   6.228  15.399  0.7037 -0.2538 -2.9385
17274TIP3   OH273312   1.231   0.337  11.676  0.4467  0.4810  0.2680
17274TIP3    H173313   1.220   0.357  11.769 -1.4962  0.9129 -0.0527
17274TIP3    H273314   1.151   0.291  11.651  0.8383  0.5960 -1.2569
17275TIP3   OH273315   3.006   5.295  17.240  0.7987  0.3586  0.4068
17275TIP3    H173316   2.994   5.200  17.244 -1.0899  0.6131  1.1785
17275TIP3    H273317   3.035   5.320  17.327 -1.2463  0.7992  0.9881
17276TIP3   OH273318   1.638   6.410   2.317 -0.4635 -0.0006 -0.0398
17276TIP3    H173319   1.607   6.326   2.351  0.9392 -0.4049  0.2733
17276TIP3    H273320   1.644   6.397   2.222 -0.4897 -0.1850 -0.0164
17277TIP3   OH273321   3.202   0.222  13.691 -0.5132  0.0368  0.4258
17277TIP3    H173322   3.288   0.185  13.710 -1.1017 -1.1958  0.7164
17277TIP3    H273323   3.149   0.201  13.768 -0.6977  2.0280  0.8737
17278TIP3   OH273324   4.225   3.300  16.700  0.1625 -0.0388 -0.1290
17278TIP3    H173325   4.312   3.338  16.689 -0.6910  1.8275 -0.5855
17278TIP3    H273326   4.165   3.374  16.691 -1.3985 -1.0015  1.9563
17279TIP3   OH273327   3.851   4.480  11.767  0.4881  0.1809 -1.2093
17279TIP3    H173328   3.917   4.424  11.806 -0.9173  0.4029  1.5712
17279TIP3    H273329   3.813   4.528  11.840 -0.3056  2.6884 -3.1791
17280TIP3   OH273330   1.877   1.785  10.861  0.4701  0.0059 -0.2265
17280TIP3    H173331   1.941   1.740  10.807  1.7528 -0.5452  1.6978
17280TIP3    H273332   1.912   1.780  10.950 -1.8860  0.3181  0.7713
17281TIP3   OH273333   6.095   4.144  16.931 -0.4208  0.1663 -0.4191
17281TIP3    H173334   6.163   4.203  16.899 -1.1835  0.6082 -1.2072
17281TIP3    H273335   6.030   4.201  16.972 -0.2395 -0.2708  0.5024
17282TIP3   OH273336   1.432   1.554   3.560 -0.3081 -0.4462  0.2616
17282TIP3    H173337   1.346   1.514   3.576 -0.1091 -0.0063  2.6032
17282TIP3    H273338   1.412   1.643   3.531 -0.6399 -0.6038 -0.0030
17283TIP3   OH273339   0.752   4.167  13.990  0.1291  0.5643  0.8906
17283TIP3    H173340   0.753   4.072  13.996  2.0612  0.5750  0.8989
17283TIP3    H273341   0.659   4.190  13.998 -0.3684 -1.3093  0.7548
17284TIP3   OH273342   0.565   1.466  16.993 -0.9859  0.0813  0.2310
17284TIP3    H173343   0.562   1.371  17.003  1.2181  0.1328  1.7243
17284TIP3    H273344   0.483   1.497  17.032 -1.3511 -1.1500  0.4675
17285TIP3   OH273345   2.283   6.172   4.829  0.2223  0.0257 -0.2867
17285TIP3    H173346   2.274   6.108   4.759 -0.9576 -1.0337  0.8146
17285TIP3    H273347   2.312   6.252   4.784  2.9411 -1.5819 -1.4969
17286TIP3   OH273348   5.300   2.983  15.261 -0.4650  0.1190 -0.3639
17286TIP3    H173349   5.331   2.994  15.171  1.0678  0.9169  0.2277
17286TIP3    H273350   5.378   2.957  15.310 -0.4341  3.1872  1.3680
17287TIP3   OH273351   1.088   4.012   6.449  0.1691  0.1401  0.3404
17287TIP3    H173352   1.129   3.943   6.396 -1.9131 -0.9933  0.1652
17287TIP3    H273353   1.097   4.091   6.396  0.5324 -0.4531 -0.5003
17288TIP3   OH273354   2.335   4.938   4.999 -0.1435 -0.2376 -0.2141
17288TIP3    H173355   2.289   4.858   4.972 -1.2471  0.1059  0.6224
17288TIP3    H273356   2.316   4.946   5.093 -1.7370  2.0793 -0.6822
17289TIP3   OH273357   6.662   0.464  12.733 -0.1365  0.0474 -0.4348
17289TIP3    H173358   6.606   0.438  12.659 -1.3769  1.3386  0.0374
17289TIP3    H273359   6.705   0.544  12.704 -0.0947  0.1802 -0.0044
17290TIP3   OH273360   2.479   2.907   0.689  0.1044 -0.1142 -0.1130
17290TIP3    H173361   2.496   2.840   0.623  1.1905 -1.5375  1.5184
17290TIP3    H273362   2.387   2.897   0.711  0.1831 -0.8898 -0.1100
17291TIP3   OH273363   2.589   5.103  12.095 -0.1219  0.1538 -0.1810
17291TIP3    H173364   2.611   5.156  12.172 -1.1994  0.4412 -0.0724
17291TIP3    H273365   2.615   5.014  12.119 -1.9801 -0.0472  1.1448
17292TIP3   OH273366   6.368   2.094  15.543  0.8849 -0.0334 -0.3104
17292TIP3    H173367   6.391   2.044  15.465 -1.8447  0.8363 -1.7570
17292TIP3    H273368   6.331   2.029  15.603  1.8187 -0.4985 -0.2253
17293TIP3   OH273369   6.743   1.952   6.288 -0.4302 -0.2813  0.1069
17293TIP3    H173370   6.688   2.014   6.336  0.3842 -0.2158  0.9649
17293TIP3    H273371   6.694   1.934   6.208 -1.2259  0.5589  0.3947
17294TIP3   OH273372   5.575   5.573  11.141  0.0576 -0.3731 -0.3147
17294TIP3    H173373   5.523   5.653  11.139 -0.1795 -0.5186  0.0145
17294TIP3    H273374   5.604   5.561  11.050 -0.7691 -0.4805 -0.5720
17295TIP3   OH273375   4.027   4.360  12.739 -0.4694 -0.0602  0.4080
17295TIP3    H173376   3.974   4.348  12.818 -0.6537  0.1929  0.3242
17295TIP3    H273377   4.092   4.427  12.764 -0.7917  0.3272  0.2186
17296TIP3   OH273378   6.197   4.254  13.562 -0.1662 -0.2951 -0.4465
17296TIP3    H173379   6.202   4.347  13.580  0.0321 -0.6044  1.1505
17296TIP3    H273380   6.105   4.237  13.545 -0.0140  0.4187 -2.1228
17297TIP3   OH273381   1.415   1.140  16.989 -0.1711 -0.1350  0.3054
17297TIP3    H173382   1.433   1.079  16.918 -0.8975  0.6797 -0.5958
17297TIP3    H273383   1.495   1.140  17.041  0.1347 -1.2329 -0.1412
17298TIP3   OH273384   0.390   2.225   3.186 -0.2727 -0.0791  0.0180
17298TIP3    H173385   0.368   2.268   3.269  1.0090 -0.9728  0.8452
17298TIP3    H273386   0.439   2.147   3.212  2.3038  0.9383 -1.6583
17299TIP3   OH273387   4.988   3.595   5.364 -0.7697  0.0691  0.0307
17299TIP3    H173388   5.063   3.653   5.350 -1.0146  0.1647 -0.9142
17299TIP3    H273389   4.913   3.654   5.370 -0.7580 -0.0160  1.1104
17300TIP3   OH273390   2.221   6.310   5.789 -0.1053 -0.1516 -0.0274
17300TIP3    H173391   2.259   6.307   5.701 -0.4455 -0.4692 -0.1626
17300TIP3    H273392   2.293   6.285   5.847 -0.2074 -1.1447 -0.3175
17301TIP3   OH273393   2.284   3.720   0.288  0.2966 -0.0607 -0.4185
17301TIP3    H173394   2.359   3.688   0.338  0.3622  1.7545  0.6937
17301TIP3    H273395   2.308   3.705   0.197  1.8663  0.1496 -0.0588
17302TIP3   OH273396   6.209   2.434   5.370 -0.1330  0.1322 -0.3784
17302TIP3    H173397   6.208   2.528   5.389 -2.2151  0.0344  0.1128
17302TIP3    H273398   6.121   2.404   5.392  0.0865 -1.6861 -1.8145
17303TIP3   OH273399   1.771   0.410  16.036  0.1462 -0.1162 -0.0387
17303TIP3    H173400   1.806   0.326  16.065 -0.1596 -0.6809 -1.2843
17303TIP3    H273401   1.837   0.445  15.977  0.2081  0.4626  0.3628
17304TIP3   OH273402   4.347   2.650  12.353  0.5822  0.3311  0.1334
17304TIP3    H173403   4.343   2.566  12.306  1.9391  0.6127 -0.5180
17304TIP3    H273404   4.418   2.638  12.416  1.4202  1.2841 -0.6044
17305TIP3   OH273405   4.655   1.458   3.911  0.4628 -0.0156  0.0108
17305TIP3    H173406   4.673   1.519   3.983 -2.5640 -0.6390  1.3813
17305TIP3    H273407   4.565   1.478   3.884  0.3993 -2.0099 -1.3900
17306TIP3   OH273408   0.585   3.876  11.924  0.0014 -0.1149  0.3889
17306TIP3    H173409   0.504   3.912  11.888 -0.4526  0.9799  2.4064
17306TIP3    H273410   0.555   3.810  11.988  0.6676  0.7769  1.6348
17307TIP3   OH273411   6.403   4.220   0.179  0.0601 -0.0470  0.3298
17307TIP3    H173412   6.490   4.184   0.194 -0.1183 -0.4276  0.4429
17307TIP3    H273413   6.345   4.144   0.173 -0.4595  0.2366  1.4729
17308TIP3   OH273414   5.461   2.317  16.622 -0.6457 -0.1189 -0.3747
17308TIP3    H173415   5.429   2.387  16.678  0.6542  1.0866 -1.1177
17308TIP3    H273416   5.445   2.347  16.533 -3.4472 -2.3755 -0.7124
17309TIP3   OH273417   4.878   4.768   4.540 -0.9399  0.2576  0.6460
17309TIP3    H173418   4.842   4.846   4.497  0.1147  0.0810 -0.5874
17309TIP3    H273419   4.861   4.697   4.478 -0.0305 -0.1279  0.8331
17310TIP3   OH273420   4.873   1.400   3.239  0.7007 -0.1163 -0.1401
17310TIP3    H173421   4.837   1.334   3.297 -1.9619  0.9483 -0.5004
17310TIP3    H273422   4.880   1.479   3.293 -0.0541  0.3881 -0.7615
17311TIP3   OH273423   5.240   0.644  15.092  0.1510  0.8304  0.3536
17311TIP3    H173424   5.196   0.636  15.177  1.4783 -0.7231  0.9339
17311TIP3    H273425   5.241   0.554  15.058  0.7065  1.2541 -0.7477
17312TIP3   OH273426   3.770   1.501   1.486  0.1324 -0.0818 -0.0094
17312TIP3    H173427   3.676   1.515   1.471  0.1425 -0.5041 -0.4931
17312TIP3    H273428   3.777   1.408   1.507  0.7215 -0.5884 -2.3200
17313TIP3   OH273429   0.591   0.861   5.468  0.3580 -0.4960  0.1643
17313TIP3    H173430   0.668   0.854   5.412  0.2155  0.7550 -0.2222
17313TIP3    H273431   0.535   0.925   5.423  0.1715  0.4280  1.6756
17314TIP3   OH273432   6.376   1.317   2.513  0.5147  0.3302  0.0543
17314TIP3    H173433   6.316   1.273   2.453 -0.9339  1.5088  0.6093
17314TIP3    H273434   6.324   1.334   2.591  2.2057 -0.5842  1.3969
17315TIP3   OH273435   0.986   0.524   5.050  0.8524  0.1090 -0.1752
17315TIP3    H173436   1.062   0.484   5.092  0.3253 -0.3639  0.3421
17315TIP3    H273437   0.992   0.498   4.958 -0.1036 -2.1357  0.3737
17316TIP3   OH273438   0.628   3.325   1.171  0.2123 -0.1588  0.7784
17316TIP3    H173439   0.604   3.371   1.091  0.3493  2.0902  1.9902
17316TIP3    H273440   0.619   3.232   1.149  0.4005  0.4107 -1.8754
17317TIP3   OH273441   5.895   1.551   1.858  0.1525  0.6767 -0.1959
17317TIP3    H173442   5.929   1.508   1.780  1.3925 -0.7554  1.0883
17317TIP3    H273443   5.805   1.519   1.866  0.4835 -0.2893 -0.2693
17318TIP3   OH273444   4.302   2.751  14.093 -0.5512  0.1382  0.9061
17318TIP3    H173445   4.395   2.736  14.073 -1.2886 -1.5500 -1.4708
17318TIP3    H273446   4.292   2.719  14.182  0.6474 -2.0436  0.3147
17319TIP3   OH273447   3.038   0.896  13.772  0.2558 -0.3229  0.0722
17319TIP3    H173448   3.074   0.980  13.801  0.5380 -0.4494  0.0860
17319TIP3    H273449   2.981   0.919  13.698 -0.0492 -0.0645  0.3811
17320TIP3   OH273450   0.006   0.209  16.349  0.2443 -0.0938  0.2850
17320TIP3    H173451   0.008   0.133  16.407  0.4153 -1.5594 -1.5910
17320TIP3    H273452  -0.087   0.227  16.335  0.1835 -1.6533 -1.4115
17321TIP3   OH273453   2.059   0.309   5.691 -0.4356  0.4055 -0.3838
17321TIP3    H173454   2.088   0.370   5.623  0.7122  0.0889 -0.1900
17321TIP3    H273455   1.981   0.349   5.728 -0.2389  1.2875 -0.9185
17322TIP3   OH273456   5.344   5.329   0.913 -0.5172  0.2778 -0.2674
17322TIP3    H173457   5.327   5.407   0.860 -1.2951  0.6578  0.5328
17322TIP3    H273458   5.440   5.325   0.919 -0.4974  2.1974  1.1819
17323TIP3   OH273459   6.042   2.926   5.958 -0.3277 -0.5935  0.1610
17323TIP3    H173460   6.069   3.017   5.966 -1.5557 -0.2241  0.2135
17323TIP3    H273461   6.122   2.879   5.931 -0.0053  0.7059 -1.1792
17324TIP3   OH273462   1.024   3.281   0.756 -0.3508 -0.1794  0.5963
17324TIP3    H173463   1.044   3.192   0.787 -0.2250 -0.7767 -1.1713
17324TIP3    H273464   0.978   3.268   0.673 -0.9119  1.4003  0.6545
17325TIP3   OH273465   2.569   6.274  12.872 -0.2675  0.2246 -0.3124
17325TIP3    H173466   2.631   6.276  12.799 -0.5141 -0.6949 -0.5600
17325TIP3    H273467   2.523   6.358  12.868  0.9544  0.9119 -0.1266
17326TIP3   OH273468   6.541   3.089   6.172 -0.5180  0.9175 -0.3995
17326TIP3    H173469   6.574   3.027   6.237  0.5355  0.7036 -1.1141
17326TIP3    H273470   6.495   3.156   6.223 -1.4462 -0.3117  0.3935
17327TIP3   OH273471   5.393   6.289   2.470  0.1246  0.0956  0.2128
17327TIP3    H173472   5.399   6.384   2.484 -0.1073  0.2378 -0.6273
17327TIP3    H273473   5.436   6.251   2.546 -0.3615  0.8660  0.8792
17328TIP3   OH273474   5.158   0.078  12.306  0.5536  0.9651  0.2651
17328TIP3    H173475   5.237   0.043  12.264  0.8079 -0.0314  1.5359
17328TIP3    H273476   5.136   0.156  12.256  0.4212 -0.6063 -2.1669
17329TIP3   OH273477   2.664   4.439   4.774 -0.1118  0.1107 -0.2511
17329TIP3    H173478   2.588   4.397   4.815  0.5867 -1.0245 -0.0826
17329TIP3    H273479   2.723   4.366   4.755  1.6060  1.1544  1.0273
17330TIP3   OH273480   0.077   3.094  13.932 -0.4978 -0.7126 -0.0416
17330TIP3    H173481   0.022   3.153  13.984 -0.4451 -1.0469  0.3921
17330TIP3    H273482   0.150   3.072  13.990  0.3171  0.0580 -0.7624
17331TIP3   OH273483   1.348   6.372   3.543 -0.4342 -0.6502 -0.0467
17331TIP3    H173484   1.311   6.445   3.592 -1.0082 -0.7175 -0.3657
17331TIP3    H273485   1.352   6.300   3.606 -0.8820 -0.6480 -0.0148
17332TIP3   OH273486   2.718   1.845  11.388  0.5409  0.1354  0.0303
17332TIP3    H173487   2.668   1.846  11.306 -2.8826 -0.2407  1.9952
17332TIP3    H273488   2.753   1.933  11.396 -0.8765  0.7993 -0.8087
17333TIP3   OH273489   5.251   6.233   3.609  0.6531 -0.7328  0.6787
17333TIP3    H173490   5.223   6.321   3.635  0.0217 -0.8782  0.4949
17333TIP3    H273491   5.346   6.235   3.618  0.4269 -0.9382  3.5437
17334TIP3   OH273492   6.608   5.543  11.391  0.4124 -0.2055 -0.2452
17334TIP3    H173493   6.676   5.601  11.426 -0.0053  0.6571 -0.8545
17334TIP3    H273494   6.653   5.494  11.322  0.4727  0.2227 -0.5127
17335TIP3   OH273495   6.509   5.355  14.419  0.6506 -0.4240 -0.4490
17335TIP3    H173496   6.450   5.344  14.493 -0.8934  2.6511 -1.1389
17335TIP3    H273497   6.461   5.320  14.344 -1.2103  3.6530 -1.3303
17336TIP3   OH273498   6.551   6.605  12.326 -0.0701  0.0683  0.0783
17336TIP3    H173499   6.628   6.656  12.352  0.1878 -0.7071  0.8916
17336TIP3    H273500   6.585   6.516  12.311 -0.7904 -0.2783  0.4499
17337TIP3   OH273501   5.573   0.813   0.280  0.4244  0.1990  0.9380
17337TIP3    H173502   5.631   0.827   0.205  1.4407 -1.5278  1.3610
17337TIP3    H273503   5.616   0.744   0.331 -2.0448 -1.1966  1.2208
17338TIP3   OH273504   2.319   3.907   3.503  0.6549 -0.4151 -0.3095
17338TIP3    H173505   2.389   3.928   3.565  0.0150 -0.5987  0.4782
17338TIP3    H273506   2.335   3.815   3.480  0.7418 -0.4202 -0.2304
17339TIP3   OH273507   3.449   2.044  16.849 -0.0900 -0.5803  0.2605
17339TIP3    H173508   3.417   1.960  16.883  2.7312 -1.9549 -0.3581
17339TIP3    H273509   3.509   2.076  16.917 -0.8932  0.7843  0.3453
17340TIP3   OH273510   3.715   1.012   5.426 -0.3174 -0.4705 -0.0271
17340TIP3    H173511   3.675   1.030   5.511  0.8735 -1.1381  0.6820
17340TIP3    H273512   3.758   1.093   5.402 -0.9794 -0.1607 -0.1753
17341TIP3   OH273513   5.192   4.475  12.238 -0.2299  0.0720  0.7277
17341TIP3    H173514   5.186   4.397  12.182 -3.4839  2.7350 -2.9447
17341TIP3    H273515   5.269   4.521  12.205  0.3948 -0.4629  1.4167
17342TIP3   OH273516   0.357   1.490   1.722  0.4311 -0.4090 -0.0625
17342TIP3    H173517   0.431   1.476   1.663 -0.5325 -0.4110 -1.3037
17342TIP3    H273518   0.313   1.405   1.726 -0.1488 -0.1175 -0.2285
17343TIP3   OH273519   5.776   5.322   3.321  0.2539 -0.2321 -0.3649
17343TIP3    H173520   5.811   5.399   3.275  0.7846  0.7458  1.5892
17343TIP3    H273521   5.683   5.320   3.298 -0.0512  1.7941  0.5849
17344TIP3   OH273522   3.666   4.173   0.234 -0.4010 -0.3589 -0.2133
17344TIP3    H173523   3.729   4.154   0.165  0.4012 -0.0400  0.4159
17344TIP3    H273524   3.594   4.112   0.219 -1.0989  0.9624 -2.4379
17345TIP3   OH273525   0.019   4.390   0.165  0.0936 -0.0366 -0.6834
17345TIP3    H173526  -0.001   4.483   0.166  3.5179  0.7638 -0.6098
17345TIP3    H273527   0.090   4.381   0.101  0.1974 -2.5113 -0.2800
17346TIP3   OH273528   0.556   5.988  13.229 -0.6711 -0.4159 -0.1364
17346TIP3    H173529   0.480   5.964  13.176 -0.6730 -1.9929  0.5320
17346TIP3    H273530   0.523   5.987  13.319 -0.2189  0.4058  0.0406
17347TIP3   OH273531   4.666   4.734   5.519  0.7617 -0.9092  0.3507
17347TIP3    H173532   4.742   4.786   5.545 -2.7698  3.6695  2.1889
17347TIP3    H273533   4.628   4.705   5.602 -1.6406  0.2015 -0.3326
17348TIP3   OH273534   5.063   1.906   4.868 -0.2770 -0.0149  0.1270
17348TIP3    H173535   5.000   1.977   4.878 -0.1599 -0.0034  0.8455
17348TIP3    H273536   5.132   1.943   4.814 -0.0612  0.5296  0.7618
17349TIP3   OH273537   5.077   1.791   0.935 -0.5482  0.4733  0.1159
17349TIP3    H173538   5.171   1.790   0.915 -1.2653  0.2116 -3.7454
17349TIP3    H273539   5.050   1.882   0.919 -0.9414  0.5417  1.1742
17350TIP3   OH273540   2.562   6.593  14.323  1.0569 -0.2740  0.2443
17350TIP3    H173541   2.643   6.638  14.345  1.2911 -0.9310  0.7264
17350TIP3    H273542   2.497   6.629  14.384  0.9388  0.3715 -0.2510
17351TIP3   OH273543   0.643   2.046   1.950  0.5279  0.2086  0.4986
17351TIP3    H173544   0.633   1.969   1.894  0.5353 -0.5995  1.6016
17351TIP3    H273545   0.584   2.112   1.912  0.3116 -0.4313 -0.2767
17352TIP3   OH273546   6.496   6.676   4.543 -0.2827  0.1111 -0.3191
17352TIP3    H173547   6.560   6.711   4.604 -0.8950  1.5452 -0.4739
17352TIP3    H273548   6.468   6.752   4.492 -1.9186 -0.5419 -0.4151
17353TIP3   OH273549   1.688   6.543   4.902  0.5559  0.1269 -0.4775
17353TIP3    H173550   1.696   6.528   4.808  1.0920 -0.4649 -0.3357
17353TIP3    H273551   1.617   6.486   4.930  2.1986 -1.7382 -0.0451
17354TIP3   OH273552   0.722   2.028  11.477 -0.2013  0.0219 -0.2428
17354TIP3    H173553   0.784   1.958  11.457  0.3337 -0.0224  1.5345
17354TIP3    H273554   0.667   2.034  11.399  1.4211 -0.5902 -1.4451
17355TIP3   OH273555   0.517   4.230  12.125  0.2398 -0.3008  0.1120
17355TIP3    H173556   0.456   4.272  12.064 -0.8992  1.7628  2.5565
17355TIP3    H273557   0.473   4.149  12.152  0.3629 -0.7794 -1.1123
17356TIP3   OH273558   4.891   2.908  10.683  0.1399 -0.1587 -0.1524
17356TIP3    H173559   4.871   2.886  10.592  0.1631 -1.4670  0.1487
17356TIP3    H273560   4.876   3.002  10.689 -2.6525 -0.5180 -0.8049
17357TIP3   OH273561   5.752   4.823   1.227  0.2948  0.3774  0.1684
17357TIP3    H173562   5.712   4.896   1.274  0.5383  1.4524 -1.2485
17357TIP3    H273563   5.694   4.808   1.152  1.2380  0.3706 -0.5728
17358TIP3   OH273564   4.331   1.418   4.986 -0.4592  0.2289 -0.5732
17358TIP3    H173565   4.268   1.455   5.049  0.4035  1.2461 -0.2999
17358TIP3    H273566   4.336   1.325   5.010  1.0349  0.9062  1.8868
17359TIP3   OH273567   2.672   4.399   2.811 -0.5793 -0.4894  0.3858
17359TIP3    H173568   2.607   4.365   2.872  0.5222  0.8811  2.3711
17359TIP3    H273569   2.630   4.476   2.772 -0.7448 -0.5444  0.4547
17360TIP3   OH273570   4.071   2.921   1.308 -0.4329  0.1473  0.2268
17360TIP3    H173571   4.161   2.917   1.274 -0.4924 -1.1596  0.2226
17360TIP3    H273572   4.082   2.941   1.401 -0.1975  1.3671 -0.0458
17361TIP3   OH273573   5.139   2.444   1.008 -0.2472  0.6305 -0.3659
17361TIP3    H173574   5.186   2.383   1.065 -1.4658  0.5825  0.6008
17361TIP3    H273575   5.105   2.390   0.937  1.2267  0.6796 -1.1197
17362TIP3   OH273576   5.331   3.503  17.119 -0.0053 -0.1130  0.1620
17362TIP3    H173577   5.356   3.413  17.140 -0.4539 -0.0176  1.1143
17362TIP3    H273578   5.405   3.556  17.148 -0.2221 -0.0673  0.6243
17363TIP3   OH273579   6.053   4.186   3.467 -0.0779 -0.1329 -0.0922
17363TIP3    H173580   6.061   4.199   3.372 -1.2575 -1.4657 -0.3946
17363TIP3    H273581   6.010   4.266   3.498  0.1682  0.2426 -0.7021
17364TIP3   OH273582   3.409   3.037   1.221  0.5799  0.0890 -0.3686
17364TIP3    H173583   3.482   2.979   1.239  0.5937 -0.0425 -0.8645
17364TIP3    H273584   3.395   3.031   1.127  0.9163  1.2770 -0.5080
17365TIP3   OH273585   5.785   1.469  13.922 -0.2176  0.1749  0.5243
17365TIP3    H173586   5.706   1.470  13.868 -0.8718  0.6441  1.4703
17365TIP3    H273587   5.812   1.561  13.927 -0.3115  0.1700  1.2046
17366TIP3   OH273588   2.288   4.286  12.606  0.3243  0.3964 -0.2904
17366TIP3    H173589   2.287   4.263  12.698 -0.0825  1.1240 -0.1110
17366TIP3    H273590   2.202   4.258  12.573  0.4784  0.1128 -0.4550
17367TIP3   OH273591   5.446   0.383   4.113 -0.6025 -0.0124 -0.0883
17367TIP3    H173592   5.521   0.374   4.054  0.0222  0.9814  0.5365
17367TIP3    H273593   5.466   0.462   4.165 -1.8602 -0.0034  0.3918
17368TIP3   OH273594   0.092   5.062   1.360 -0.2127  0.2113  0.0809
17368TIP3    H173595   0.119   5.146   1.323  3.2088 -1.3262 -1.0416
17368TIP3    H273596   0.023   5.085   1.422  0.5830  3.8367 -0.2600
17369TIP3   OH273597   1.969   2.916   0.423 -0.3673  0.5863 -0.2154
17369TIP3    H173598   1.941   2.987   0.365 -0.6046  0.6610 -0.0099
17369TIP3    H273599   2.021   2.960   0.490 -1.0199  0.6469  0.2533
17370TIP3   OH273600   1.250   4.483   5.801 -0.1239  0.5364 -0.5034
17370TIP3    H173601   1.240   4.403   5.852 -1.9659  0.5017 -0.8549
17370TIP3    H273602   1.160   4.516   5.791  0.6307  2.7649 -0.1784
17371TIP3   OH273603   2.808   6.361  15.845 -0.0018  0.1771 -0.1981
17371TIP3    H173604   2.726   6.363  15.895  0.4996  1.7198  0.6249
17371TIP3    H273605   2.782   6.343  15.755 -1.1991  0.1998  0.1407
17372TIP3   OH273606   3.593   5.132  12.612 -0.1753  0.2192 -0.0026
17372TIP3    H173607   3.586   5.221  12.577 -0.4339  0.6407  1.1014
17372TIP3    H273608   3.554   5.077  12.544  0.4913  0.8847 -0.9389
17373TIP3   OH273609   4.903   2.863  14.522  0.4335 -0.6511 -0.3612
17373TIP3    H173610   4.974   2.927  14.523 -0.7278  0.6811 -1.6232
17373TIP3    H273611   4.827   2.912  14.493 -0.4618 -2.6320 -1.4471
17374TIP3   OH273612   3.319   1.286  14.474  0.6131 -0.1445 -0.1307
17374TIP3    H173613   3.333   1.216  14.410 -0.8436 -0.4024 -0.1715
17374TIP3    H273614   3.257   1.346  14.432  0.4341  0.2141  0.6295
17375TIP3   OH273615   1.790   6.336   3.290 -0.1711 -0.8186 -0.8144
17375TIP3    H173616   1.797   6.241   3.289 -1.5630 -0.9243 -3.7039
17375TIP3    H273617   1.863   6.366   3.236 -0.7765 -0.3212 -1.3600
17376TIP3   OH273618   6.308   1.565   6.047 -0.1205 -0.8608  0.3263
17376TIP3    H173619   6.250   1.534   5.977 -1.7839  1.2678  0.6963
17376TIP3    H273620   6.283   1.514   6.124 -1.1511 -0.3346  0.3500
17377TIP3   OH273621   6.790   6.185   5.214  0.3598  0.0849 -0.3532
17377TIP3    H173622   6.757   6.139   5.137  2.3690 -0.9781 -0.6129
17377TIP3    H273623   6.822   6.115   5.272  0.5930  0.9816  0.6214
17378TIP3   OH273624   5.727   5.095   4.846  0.5937 -0.1223 -0.0863
17378TIP3    H173625   5.739   5.147   4.767  0.9034 -0.3632 -0.2004
17378TIP3    H273626   5.636   5.065   4.841  0.7861 -0.6283 -0.6514
17379TIP3   OH273627   4.208   1.646  12.760  0.3999 -0.0271  0.4426
17379TIP3    H173628   4.296   1.609  12.758  0.0864 -0.9768  2.7644
17379TIP3    H273629   4.211   1.711  12.830 -1.2687 -1.5486  1.9825
17380TIP3   OH273630   2.281   0.576  10.964 -0.2308  0.0538  0.3442
17380TIP3    H173631   2.341   0.503  10.947  0.5714  0.8797 -0.4367
17380TIP3    H273632   2.200   0.534  10.993  0.2479 -1.1402 -0.0081
17381TIP3   OH273633   0.895   3.538   2.976  0.1887 -0.1946 -0.0445
17381TIP3    H173634   0.971   3.480   2.975 -0.1379 -0.6368  0.8235
17381TIP3    H273635   0.854   3.523   3.061 -0.5351  0.4837 -0.2682
17382TIP3   OH273636   4.140   4.166  16.857 -0.1219  0.2733  0.0336
17382TIP3    H173637   4.119   4.159  16.764 -0.8429  0.2894  0.1935
17382TIP3    H273638   4.180   4.082  16.879 -0.5283  0.0310 -0.1465
17383TIP3   OH273639   2.722   6.682  13.354 -0.2523  0.6503  0.0236
17383TIP3    H173640   2.716   6.777  13.346  1.3322  0.8306  0.7829
17383TIP3    H273641   2.797   6.658  13.299  1.0983  0.1681  2.0256
17384TIP3   OH273642   0.892   3.594   1.780  0.4252 -0.3548 -0.0516
17384TIP3    H173643   0.837   3.659   1.737  0.8483  0.2954  0.3748
17384TIP3    H273644   0.831   3.530   1.816 -0.1323  1.0195  1.5080
17385TIP3   OH273645   1.630   4.435   5.382  0.3552 -0.4312 -0.0322
17385TIP3    H173646   1.612   4.450   5.475  2.9841  1.2677  0.2619
17385TIP3    H273647   1.624   4.340   5.371 -0.0832 -0.6338  1.8319
17386TIP3   OH273648   6.584   5.632  17.225 -0.0875 -0.1241  0.7141
17386TIP3    H173649   6.666   5.611  17.270 -0.1031  0.3702  0.9818
17386TIP3    H273650   6.519   5.573  17.263 -0.1372  0.4153  1.4819
17387TIP3   OH273651   5.753   6.049   4.843 -0.0794 -0.0095  0.0742
17387TIP3    H173652   5.801   5.966   4.843 -0.4969 -0.2533 -0.2247
17387TIP3    H273653   5.782   6.093   4.922  1.2049  0.1671 -0.4866
17388TIP3   OH273654   6.599   3.901   4.039  0.9886 -0.2080 -0.1773
17388TIP3    H173655   6.584   3.806   4.031  1.1925 -0.2706  0.1664
17388TIP3    H273656   6.570   3.937   3.955 -0.6171 -0.3831  0.2872
17389TIP3   OH273657   4.493   5.575  17.163  0.1409 -0.1457  0.1661
17389TIP3    H173658   4.547   5.575  17.084 -0.0126 -0.3962  0.0566
17389TIP3    H273659   4.487   5.667  17.189 -0.8101  0.0753 -0.8066
17390TIP3   OH273660   1.477   6.810   3.998  0.6723  0.6158 -0.2695
17390TIP3    H173661   1.421   6.887   3.981  0.6939  0.8446  0.6567
17390TIP3    H273662   1.436   6.768   4.074 -0.1389 -1.0704 -1.6297
17391TIP3   OH273663   5.846   0.935   0.606  0.1824 -0.0898 -0.0053
17391TIP3    H173664   5.765   0.905   0.646  1.6385 -0.5264  2.7569
17391TIP3    H273665   5.885   0.857   0.567 -0.2638 -0.0642 -0.5017
17392TIP3   OH273666   1.812   5.968  14.524  0.6773  0.2805 -0.3612
17392TIP3    H173667   1.757   5.915  14.466  0.0677 -0.2161  0.6657
17392TIP3    H273668   1.812   6.055  14.482  0.7116 -0.2120 -1.4093
17393TIP3   OH273669   1.481   2.809  13.609  0.0215 -0.1272 -0.0646
17393TIP3    H173670   1.512   2.752  13.680 -1.0033 -0.5249  0.0743
17393TIP3    H273671   1.529   2.780  13.532  1.3008  0.4470  0.5094
17394TIP3   OH273672   3.664   2.087  16.584 -0.0966  0.0916 -0.2192
17394TIP3    H173673   3.721   2.032  16.638  0.4766  0.0711 -0.8429
17394TIP3    H273674   3.586   2.033  16.570 -0.3359  0.1714  0.7433
17395TIP3   OH273675   3.217   0.221  16.666  0.7353  0.0860 -0.0045
17395TIP3    H173676   3.239   0.142  16.616  0.6916  0.0938 -0.0356
17395TIP3    H273677   3.273   0.218  16.743  1.1615  0.3312 -0.3002
17396TIP3   OH273678   3.404   4.771   1.694  0.4761 -0.5209  0.5322
17396TIP3    H173679   3.398   4.678   1.713  0.5311 -0.6365  0.0018
17396TIP3    H273680   3.498   4.790   1.695  0.5320 -0.7330 -0.5737
17397TIP3   OH273681   0.053   1.589   3.372  0.0732  0.5843  0.7808
17397TIP3    H173682  -0.010   1.527   3.337  0.6154 -0.5040  1.7110
17397TIP3    H273683   0.000   1.662   3.405 -0.5734  0.5191 -0.1103
17398TIP3   OH273684   6.222   2.336  15.283 -0.1846  0.1843  0.1770
17398TIP3    H173685   6.190   2.385  15.207 -0.5543 -0.8575 -0.3525
17398TIP3    H273686   6.145   2.291  15.317  0.0220  0.4792  1.0528
17399TIP3   OH273687   2.719   5.961   5.365 -0.1203 -0.5750  0.4395
17399TIP3    H173688   2.738   5.943   5.458  0.6352 -1.3353  0.1521
17399TIP3    H273689   2.756   5.886   5.319  1.9406  1.1050 -0.7217
17400TIP3   OH273690   4.482   4.650   4.186 -0.1046 -0.0144  0.9766
17400TIP3    H173691   4.451   4.595   4.114 -0.7589 -1.1438  2.1141
17400TIP3    H273692   4.474   4.740   4.152 -1.7224 -0.4618  0.1455
17401TIP3   OH273693   2.248   5.051  13.512 -0.2741  0.1714 -0.1575
17401TIP3    H173694   2.317   5.090  13.458  0.5318 -0.3551  0.4687
17401TIP3    H273695   2.265   5.083  13.600 -1.2281  0.5521 -0.1043
17402TIP3   OH273696   3.768   2.806   5.625 -0.3083  0.0722 -0.5461
17402TIP3    H173697   3.765   2.878   5.688 -3.1372 -1.4817  1.1980
17402TIP3    H273698   3.689   2.817   5.572 -1.7976 -2.7876  0.9908
17403TIP3   OH273699   3.083   0.374  13.467  0.0458  0.0946 -0.2893
17403TIP3    H173700   3.152   0.317  13.502  1.6270  1.5353 -0.9862
17403TIP3    H273701   3.003   0.342  13.508  1.2525 -1.0563  1.2461
17404TIP3   OH273702   1.429   2.113  12.787  0.1280 -0.4031 -0.7228
17404TIP3    H173703   1.396   2.032  12.825  1.0116 -0.9079 -1.0331
17404TIP3    H273704   1.354   2.149  12.739  0.0824 -1.6725 -1.6388
17405TIP3   OH273705   2.115   0.439   2.293 -0.5540 -0.0460 -0.2273
17405TIP3    H173706   2.169   0.411   2.219  0.5136 -0.2322  0.6041
17405TIP3    H273707   2.140   0.380   2.364 -2.8092 -1.0100 -0.1662
17406TIP3   OH273708   0.358   4.188  12.979 -0.4285  0.1904  0.4979
17406TIP3    H173709   0.357   4.226  12.891  0.4925 -0.9475 -0.0160
17406TIP3    H273710   0.447   4.154  12.990 -0.8706 -0.7172  1.4198
17407TIP3   OH273711   4.927   6.061   5.708 -0.6676 -0.4178 -0.2224
17407TIP3    H173712   4.957   5.993   5.647 -1.1646 -0.3015 -0.6000
17407TIP3    H273713   4.874   6.120   5.654  0.2210  0.5796 -0.0133
17408TIP3   OH273714   1.380   0.553  15.943 -0.5924  0.1965 -0.6091
17408TIP3    H173715   1.398   0.464  15.973  1.4922  0.3123 -1.4561
17408TIP3    H273716   1.363   0.543  15.849  1.6316  0.9254 -1.1067
17409TIP3   OH273717   4.724   2.591   5.334  0.5004 -0.1253 -0.6764
17409TIP3    H173718   4.815   2.597   5.363  0.4126  1.2718 -0.6694
17409TIP3    H273719   4.674   2.637   5.402 -0.0484  0.4004 -1.4318
17410TIP3   OH273720   2.780   4.843  10.872 -0.1960 -0.5377  0.0407
17410TIP3    H173721   2.722   4.787  10.820 -0.7388 -0.0258  0.0833
17410TIP3    H273722   2.745   4.931  10.859  0.3118 -0.2798  0.4231
17411TIP3   OH273723   4.654   1.066  15.885 -0.3347 -0.1072 -0.2906
17411TIP3    H173724   4.672   1.154  15.920 -1.1258  0.4034 -1.1463
17411TIP3    H273725   4.732   1.015  15.909 -0.1532  0.6540  0.7775
17412TIP3   OH273726   5.121   2.837  10.402  0.1188 -0.4725  0.5273
17412TIP3    H173727   5.176   2.761  10.417  1.2756 -0.4905 -3.3554
17412TIP3    H273728   5.034   2.801  10.384  0.2034 -0.7411  0.6596
17413TIP3   OH273729   6.166   2.969  14.222 -0.0143 -0.6323 -0.2492
17413TIP3    H173730   6.084   3.016  14.235 -0.0871 -0.5369 -1.0074
17413TIP3    H273731   6.234   3.035  14.233 -0.0578 -0.6346  0.0258
17414TIP3   OH273732   6.337   5.084  12.712  0.0696 -0.0163 -0.4497
17414TIP3    H173733   6.252   5.047  12.738 -1.1986  2.6469 -0.6835
17414TIP3    H273734   6.330   5.097  12.618  0.3398  1.2427 -0.2936
17415TIP3   OH273735   5.816   5.613   5.994  0.1552 -0.0843 -0.1436
17415TIP3    H173736   5.822   5.555   5.918  0.3137 -0.3859  0.0980
17415TIP3    H273737   5.785   5.696   5.958 -0.4762 -0.4426 -0.4258
17416TIP3   OH273738   1.140   5.174  14.975 -0.5461  0.0496  0.2974
17416TIP3    H173739   1.174   5.205  14.891 -0.1743 -1.2922 -0.0624
17416TIP3    H273740   1.214   5.185  15.035  0.2520 -1.9714 -0.2729
17417TIP3   OH273741   4.555   6.282   2.269  0.4632  0.4130  0.1701
17417TIP3    H173742   4.534   6.202   2.317 -0.1080  0.5672  0.1944
17417TIP3    H273743   4.469   6.321   2.249  0.6857  0.1960 -1.2440
17418TIP3   OH273744   3.102   1.020   4.133 -0.6666  0.1636 -0.1873
17418TIP3    H173745   3.059   0.948   4.086 -1.5805 -0.5579  1.7197
17418TIP3    H273746   3.177   0.980   4.176  0.2117  0.8430 -1.0580
17419TIP3   OH273747   2.317   4.258  10.550  0.3711  0.6583  0.0817
17419TIP3    H173748   2.291   4.166  10.557  2.5859  0.1003  1.4434
17419TIP3    H273749   2.260   4.294  10.482 -1.0697 -1.5128  0.0925
17420TIP3   OH273750   2.944   5.414  15.663 -0.2617  0.8549 -0.0208
17420TIP3    H173751   3.000   5.337  15.674 -0.1819  0.7653 -1.0241
17420TIP3    H273752   2.951   5.461  15.747 -1.1453 -0.7688  0.9762
17421TIP3   OH273753   3.018   3.101  15.345  0.0277 -0.7428 -0.4452
17421TIP3    H173754   2.951   3.072  15.283  0.2229  0.1059 -1.0615
17421TIP3    H273755   3.028   3.027  15.406 -0.7756 -1.2455 -0.9135
17422TIP3   OH273756   4.917   4.083  13.202 -0.5028  0.1550  0.5585
17422TIP3    H173757   4.885   4.100  13.113  0.5389 -0.1307  0.1185
17422TIP3    H273758   4.938   3.989  13.202  0.0049  0.2687  0.9351
17423TIP3   OH273759   2.654   0.841  12.227 -0.0379 -0.0866  0.6596
17423TIP3    H173760   2.628   0.917  12.278 -1.0024 -0.0085  0.0665
17423TIP3    H273761   2.605   0.768  12.265 -0.9140  0.0081 -0.2729
17424TIP3   OH273762   4.703   1.312  13.814 -0.6654  0.8864 -0.3602
17424TIP3    H173763   4.691   1.342  13.724 -0.2411 -0.6172 -0.9347
17424TIP3    H273764   4.733   1.390  13.861 -1.8562  1.9350 -1.2969
17425TIP3   OH273765   0.181   4.398   0.570 -0.4150  0.8058  0.3784
17425TIP3    H173766   0.195   4.364   0.482  4.4414  0.2374  1.2270
17425TIP3    H273767   0.163   4.320   0.623  0.8724  0.6534  0.6019
17426TIP3   OH273768   3.544   5.185  12.233 -0.5538 -0.0794 -0.2009
17426TIP3    H173769   3.491   5.132  12.293 -1.8080  0.9962 -0.3216
17426TIP3    H273770   3.481   5.222  12.172  0.3891  0.9387 -0.5723
17427TIP3   OH273771   3.016   1.697  12.377 -0.1167  0.2887 -0.6239
17427TIP3    H173772   3.056   1.769  12.330  0.1391  1.7533  1.7934
17427TIP3    H273773   2.954   1.738  12.438 -0.6092 -1.5641  0.1857
17428TIP3   OH273774   6.652   4.991   5.305 -0.1769 -0.4929  0.1101
17428TIP3    H173775   6.722   4.989   5.370  1.1910 -0.9030 -1.3445
17428TIP3    H273776   6.639   5.084   5.287 -1.1183 -0.3318  1.5350
17429TIP3   OH273777   2.507   2.001  16.494 -0.0817 -0.2527  0.1111
17429TIP3    H173778   2.463   1.921  16.465  0.6013 -0.2214 -0.9968
17429TIP3    H273779   2.567   1.972  16.563  0.7144 -0.8044 -0.8097
17430TIP3   OH273780   5.940   2.689  16.977 -0.1571  0.0373 -0.4082
17430TIP3    H173781   5.879   2.755  17.012 -1.7307 -0.5679 -1.9428
17430TIP3    H273782   5.976   2.647  17.055 -0.4676  1.5146  0.5614
17431TIP3   OH273783   0.250   3.191  12.808  0.5697  0.6851  0.6923
17431TIP3    H173784   0.335   3.233  12.795  0.4931  0.5672 -0.2377
17431TIP3    H273785   0.270   3.109  12.854  1.0702  0.1709 -0.4277
17432TIP3   OH273786   2.940   2.178   2.909  0.3585  0.2924 -0.1280
17432TIP3    H173787   2.883   2.153   2.837 -2.0311  0.5078  1.6379
17432TIP3    H273788   3.002   2.105   2.916 -1.7998 -1.5897  0.0664
17433TIP3   OH273789   0.478   2.741   2.533  0.3210 -0.2479 -0.3830
17433TIP3    H173790   0.504   2.808   2.596 -0.5811 -0.2961  0.0449
17433TIP3    H273791   0.419   2.787   2.473  1.6488 -0.0543 -1.5454
17434TIP3   OH273792   2.648   5.933   1.039 -0.0783  0.2244  0.1133
17434TIP3    H173793   2.684   6.012   0.998  0.2038 -0.1941 -0.4479
17434TIP3    H273794   2.609   5.965   1.121  0.3197  0.8958  0.0505
17435TIP3   OH273795   2.980   3.334  12.939  0.8735  0.3400  0.1690
17435TIP3    H173796   2.958   3.408  12.995  0.4303  0.2120  0.1604
17435TIP3    H273797   3.076   3.339  12.930  1.0289 -0.0383  1.4929
17436TIP3   OH273798   4.995   2.201   0.344 -0.1917 -0.1605  0.9986
17436TIP3    H173799   4.942   2.225   0.421  1.9795  0.7024  2.2941
17436TIP3    H273800   4.964   2.115   0.319 -2.6286  0.5784  1.3234
17437TIP3   OH273801   5.588   6.611   2.480  0.0513  0.1427  0.7466
17437TIP3    H173802   5.499   6.590   2.507  0.5259 -2.3517  0.4861
17437TIP3    H273803   5.597   6.704   2.498 -2.1974  0.1637  1.9554
17438TIP3   OH273804   1.043   5.943  16.406 -0.0055  0.3485 -0.2266
17438TIP3    H173805   0.965   5.987  16.441 -0.7205 -0.2121 -1.1055
17438TIP3    H273806   1.086   6.010  16.353 -0.6669  0.2288 -0.9155
17439TIP3   OH273807   4.191   2.979   3.173  0.4973  0.4173 -0.1988
17439TIP3    H173808   4.198   3.074   3.174  1.1442  0.4003 -1.7937
17439TIP3    H273809   4.141   2.958   3.094  0.1619 -0.5572  0.2555
17440TIP3   OH273810   0.917   2.395   0.927 -0.2506 -0.2546 -0.1308
17440TIP3    H173811   0.924   2.410   0.832 -0.7918  1.2310  0.0626
17440TIP3    H273812   0.879   2.476   0.962 -0.3389 -0.9119  1.3226
17441TIP3   OH273813   6.316   1.841   1.043  0.3307 -0.3247  0.1711
17441TIP3    H173814   6.410   1.852   1.036  0.4969 -2.4500 -1.1865
17441TIP3    H273815   6.302   1.807   1.132  0.6309  1.8456  1.0768
17442TIP3   OH273816   3.726   5.847  15.271 -0.6513  0.1319  0.5510
17442TIP3    H173817   3.765   5.781  15.213  1.7490  0.5512  1.6303
17442TIP3    H273818   3.638   5.813  15.290 -0.2305 -1.7003 -0.5800
17443TIP3   OH273819   5.568   3.943  13.252  0.0750 -0.5340  0.4331
17443TIP3    H173820   5.615   4.017  13.214  0.3426 -0.1291  1.5456
17443TIP3    H273821   5.490   3.934  13.197  0.0066  0.6159  0.3180
17444TIP3   OH273822   2.277   5.803  15.144 -0.0175  0.1605  0.3274
17444TIP3    H173823   2.221   5.839  15.075  1.4628  2.1129  0.0929
17444TIP3    H273824   2.233   5.825  15.225 -1.1651 -1.1022  0.0712
17445TIP3   OH273825   4.448   5.916  15.053 -0.5541 -0.3397 -0.3135
17445TIP3    H173826   4.443   5.864  15.133  0.9429 -1.3466 -0.8512
17445TIP3    H273827   4.428   5.853  14.983 -0.1216  0.1333 -0.8597
17446TIP3   OH273828   2.500   1.458  11.803  0.2366  0.1025 -0.1179
17446TIP3    H173829   2.492   1.418  11.889  0.1596  0.1514 -0.1017
17446TIP3    H273830   2.588   1.495  11.800  0.5791 -0.7134 -0.4047
17447TIP3   OH273831   5.619   5.298   0.953 -0.0529  0.0941  0.0730
17447TIP3    H173832   5.682   5.370   0.959 -0.9238  0.8959 -0.1370
17447TIP3    H273833   5.642   5.239   1.024 -0.4897  1.5514  1.4486
17448TIP3   OH273834   0.257   0.263   3.637 -0.6510  0.2081  0.1518
17448TIP3    H173835   0.308   0.309   3.704  0.0393  0.0852 -0.2832
17448TIP3    H273836   0.167   0.269   3.667 -0.3277 -0.0020  1.1844
17449TIP3   OH273837   3.004   3.244   2.743 -0.1086 -0.4415 -0.1426
17449TIP3    H173838   2.915   3.240   2.777 -0.4843  3.0335 -0.6054
17449TIP3    H273839   2.995   3.273   2.652  1.5619  1.1822  0.1768
17450TIP3   OH273840   3.257   4.261   1.080  0.1307  0.3504  0.1695
17450TIP3    H173841   3.258   4.308   1.163 -0.3217  0.8830 -0.1162
17450TIP3    H273842   3.306   4.318   1.020 -0.9479  0.7776 -0.3367
17451TIP3   OH273843   3.536   5.138   5.704 -0.0104  0.3402  0.5291
17451TIP3    H173844   3.452   5.162   5.667 -0.9995 -0.2360  2.3340
17451TIP3    H273845   3.515   5.097   5.788  1.9668 -1.2376  0.3075
17452TIP3   OH273846   1.352   0.244  13.514 -0.3207 -0.5121  0.2889
17452TIP3    H173847   1.357   0.317  13.452 -0.2881 -0.4339  0.3849
17452TIP3    H273848   1.398   0.172  13.471 -1.6343 -0.9318 -0.4526
17453TIP3   OH273849   0.200   1.358   0.610  0.1616 -0.4982 -0.7432
17453TIP3    H173850   0.244   1.273   0.609  1.6026  0.2200 -0.7588
17453TIP3    H273851   0.267   1.419   0.578 -0.7283  0.6954 -0.3457
17454TIP3   OH273852   2.703   0.635   3.048 -0.5326 -0.0113 -0.2274
17454TIP3    H173853   2.690   0.601   3.137 -0.0704  1.1342  0.2859
17454TIP3    H273854   2.789   0.677   3.051  0.2641 -1.4919 -1.7042
17455TIP3   OH273855   0.907   0.711   0.239  0.3770  0.2914 -0.1782
17455TIP3    H173856   0.821   0.684   0.207  0.9053 -0.7692 -0.7080
17455TIP3    H273857   0.921   0.797   0.200  0.4060 -0.3818 -1.6637
17456TIP3   OH273858   6.616   4.377   2.916 -0.0146  0.0017  0.2525
17456TIP3    H173859   6.527   4.348   2.938 -0.1620 -0.0510 -0.4233
17456TIP3    H273860   6.664   4.297   2.895 -1.0765  0.3777 -4.0482
17457TIP3   OH273861   1.398   3.556  13.883  0.7213 -0.4272  0.0470
17457TIP3    H173862   1.317   3.580  13.929  0.5388  0.1931 -0.5820
17457TIP3    H273863   1.468   3.598  13.934  0.5482  0.0073 -0.0737
17458TIP3   OH273864   5.046   3.748  15.134  0.0725  0.2243  0.2392
17458TIP3    H173865   5.004   3.697  15.065  0.9747 -0.1983 -0.0145
17458TIP3    H273866   4.985   3.745  15.207 -1.5665  1.9171 -1.0244
17459TIP3   OH273867   3.604   5.955   2.426  0.4323 -0.3879  0.6791
17459TIP3    H173868   3.576   5.951   2.335  1.1191 -1.0871  0.4909
17459TIP3    H273869   3.522   5.964   2.476 -0.1566 -2.5345  0.1428
17460TIP3   OH273870   0.457   5.648  14.813  0.3907 -0.4596 -0.1389
17460TIP3    H173871   0.532   5.641  14.872  0.9564 -0.2990 -0.8260
17460TIP3    H273872   0.380   5.634  14.869  1.0508 -3.4640  0.0540
17461TIP3   OH273873   5.538   4.141   0.811 -0.0083 -0.4390  0.6558
17461TIP3    H173874   5.512   4.231   0.832  0.0978 -0.3576  0.4453
17461TIP3    H273875   5.611   4.122   0.870  0.9469  0.1418 -0.3176
17462TIP3   OH273876   5.316   6.273   6.300  0.0469 -0.1336 -0.2884
17462TIP3    H173877   5.227   6.265   6.334  0.2763  1.4559  0.7620
17462TIP3    H273878   5.308   6.254   6.207 -0.9381 -2.5814  0.2587
17463TIP3   OH273879   0.110   5.697   1.525  0.3941 -0.5148  0.2033
17463TIP3    H173880   0.197   5.661   1.544 -0.2196 -2.2207 -0.0803
17463TIP3    H273881   0.066   5.702   1.610  0.8745  0.6688  0.3911
17464TIP3   OH273882   5.657   4.919  16.506  0.0318  0.1504  0.1478
17464TIP3    H173883   5.582   4.961  16.463  0.0845  0.3884  0.2793
17464TIP3    H273884   5.732   4.942  16.451  0.2907  1.5353  1.0492
17465TIP3   OH273885   3.407   1.506  12.483 -0.1459  0.1370  0.0431
17465TIP3    H173886   3.425   1.413  12.476  1.5051  0.6620 -3.5319
17465TIP3    H273887   3.350   1.526  12.409  0.1594  2.1289  0.3128
17466TIP3   OH273888   4.984   6.497   0.491  0.1399 -0.4616  0.4485
17466TIP3    H173889   5.023   6.567   0.543 -0.0732  0.5936 -0.7870
17466TIP3    H273890   4.889   6.507   0.504  0.0725 -0.0340 -0.3269
17467TIP3   OH273891   3.517   0.507   1.496 -0.0695 -0.0382  0.4244
17467TIP3    H173892   3.591   0.448   1.507 -0.3921 -0.4803  0.2731
17467TIP3    H273893   3.475   0.478   1.415 -0.7562 -0.1940  0.8227
17468TIP3   OH273894   4.721   4.474   0.323  0.1218  0.3291  0.4181
17468TIP3    H173895   4.630   4.445   0.313 -0.9488  3.2109  1.4006
17468TIP3    H273896   4.749   4.497   0.235 -0.5047  0.5561  0.2741
17469TIP3   OH273897   1.857   3.692   0.075 -0.1635 -0.2205  0.0699
17469TIP3    H173898   1.904   3.743   0.009  1.2079 -1.8269 -0.2233
17469TIP3    H273899   1.901   3.606   0.074 -0.6283 -0.4974  2.5166
17470TIP3   OH273900   3.750   1.711   0.592  0.5985 -0.3386 -0.0837
17470TIP3    H173901   3.732   1.735   0.683  0.1581  0.5687 -0.4035
17470TIP3    H273902   3.725   1.619   0.585 -0.8064  0.0138  0.3114
17471TIP3   OH273903   5.614   5.023   5.564 -0.2381 -0.3598  0.3484
17471TIP3    H173904   5.678   5.095   5.563 -1.1502  0.4702  1.3566
17471TIP3    H273905   5.663   4.947   5.532  0.7661  0.6869 -0.6364
17472TIP3   OH273906   4.726   2.494   5.650  0.2313 -0.4028 -0.1752
17472TIP3    H173907   4.687   2.447   5.576 -1.5681  0.3445  0.2498
17472TIP3    H273908   4.680   2.578   5.651  1.9723  0.5602  0.3120
17473TIP3   OH273909   4.826   3.093   0.096 -0.2864 -0.0701 -0.5111
17473TIP3    H173910   4.800   3.165   0.038  0.0099 -0.2541 -0.8671
17473TIP3    H273911   4.748   3.038   0.102 -0.2480 -0.1692 -0.9082
17474TIP3   OH273912   1.962   6.585  12.641  0.0970 -0.5856 -0.1491
17474TIP3    H173913   2.033   6.561  12.582 -0.5551  1.5200 -1.8544
17474TIP3    H273914   2.006   6.616  12.721  1.0659 -0.4995 -0.7118
17475TIP3   OH273915   5.778   4.834   6.242  0.3446 -0.6167  0.2152
17475TIP3    H173916   5.761   4.918   6.285 -4.0767 -1.2946 -0.0197
17475TIP3    H273917   5.794   4.857   6.151 -1.6108 -0.0397 -0.0066
17476TIP3   OH273918   4.975   6.759  16.347 -0.1823  0.1660 -0.6729
17476TIP3    H173919   5.061   6.719  16.336 -0.6294 -0.6195 -1.3458
17476TIP3    H273920   4.981   6.808  16.429 -0.1383 -2.5760  0.9968
17477TIP3   OH273921   4.604   0.030  12.435 -0.0566  0.2015 -0.5955
17477TIP3    H173922   4.531   0.009  12.492  0.6747  0.6865  0.5515
17477TIP3    H273923   4.643   0.108  12.475  1.5640 -0.5286 -0.7153
17478TIP3   OH273924   0.734   5.662   2.540  0.1965  0.2422  0.2220
17478TIP3    H173925   0.688   5.577   2.538  0.4830  0.0959 -0.0363
17478TIP3    H273926   0.817   5.646   2.496  0.8418  0.3126  1.3887
17479TIP3   OH273927   3.452   3.497   3.462  0.3966 -0.2971 -0.1258
17479TIP3    H173928   3.461   3.514   3.555 -0.2768  0.0951 -0.1279
17479TIP3    H273929   3.446   3.401   3.455 -1.4831 -0.2465  0.4225
17480TIP3   OH273930   5.690   4.615  17.167  0.5390 -0.5282 -0.1163
17480TIP3    H173931   5.643   4.534  17.143 -0.1355  0.7955 -3.6168
17480TIP3    H273932   5.635   4.685  17.131  2.0985  1.3916  1.1860
17481TIP3   OH273933   2.552   5.623  13.942  0.0192  0.4090  0.2674
17481TIP3    H173934   2.530   5.711  13.912  0.1540 -0.1103 -1.4510
17481TIP3    H273935   2.587   5.635  14.030 -1.8592  1.8547  0.8681
17482TIP3   OH273936   3.124   1.938   1.623  0.2032 -0.7206  0.1485
17482TIP3    H173937   3.146   1.966   1.534 -0.2189 -0.0350  0.2568
17482TIP3    H273938   3.209   1.914   1.662  0.5438  0.1649 -0.0341
17483TIP3   OH273939   0.815   2.700   4.253  0.1858 -0.4340 -0.1105
17483TIP3    H173940   0.734   2.687   4.302 -0.3121  2.1483 -0.1746
17483TIP3    H273941   0.807   2.643   4.177 -3.2975  2.5180 -2.0784
17484TIP3   OH273942   2.412   1.507   4.186  0.0873 -0.5844 -0.4741
17484TIP3    H173943   2.465   1.584   4.169  0.9329 -1.2742 -0.9618
17484TIP3    H273944   2.466   1.433   4.159  0.5770 -1.5802  2.9608
17485TIP3   OH273945   6.094   0.484   3.983  0.0704  0.0728  0.1956
17485TIP3    H173946   6.033   0.534   3.929 -0.4504  0.9565  1.5600
17485TIP3    H273947   6.043   0.411   4.016 -0.1236  0.5489  0.9563
17486TIP3   OH273948   5.452   3.117   5.720  0.1324 -0.5018  0.5500
17486TIP3    H173949   5.446   3.039   5.666 -0.5321 -0.2506  0.2580
17486TIP3    H273950   5.362   3.146   5.732  0.4563  1.0089 -0.5038
17487TIP3   OH273951   1.438   4.355   5.175  0.1083  0.3918 -0.2785
17487TIP3    H173952   1.513   4.385   5.226 -0.8447 -0.5727  1.7360
17487TIP3    H273953   1.459   4.264   5.154  0.5263  0.7997 -1.7225
17488TIP3   OH273954   4.490   3.314   3.073 -0.6216 -0.0398 -0.3027
17488TIP3    H173955   4.517   3.266   2.995  0.8820  0.9948 -0.4541
17488TIP3    H273956   4.399   3.340   3.055 -0.8140 -1.1875 -1.0087
17489TIP3   OH273957   2.976   4.149   5.500  0.2448  0.2697  0.0843
17489TIP3    H173958   2.936   4.082   5.557  0.4665 -0.3120 -0.4333
17489TIP3    H273959   2.972   4.229   5.551  0.8237 -0.3342  1.1138
17490TIP3   OH273960   4.242   0.767  15.124  0.9236 -0.0212 -0.7655
17490TIP3    H173961   4.279   0.745  15.039 -0.0306 -2.1793 -0.6432
17490TIP3    H273962   4.147   0.763  15.112  0.7678  0.7818  0.1075
17491TIP3   OH273963   5.035   4.788   5.900 -0.3108  0.1072  0.2076
17491TIP3    H173964   5.056   4.773   5.992 -0.9827 -0.3935  0.2844
17491TIP3    H273965   4.941   4.807   5.899  0.0861  2.0906 -0.1584
17492TIP3   OH273966   2.760   5.372  14.081  0.3024  0.0582  0.1777
17492TIP3    H173967   2.831   5.309  14.068 -0.5876 -1.1756  1.2090
17492TIP3    H273968   2.790   5.426  14.154  0.7321  0.3500 -0.2099
17493TIP3   OH273969   3.595   1.156  14.861 -0.0776 -0.0304 -0.1077
17493TIP3    H173970   3.624   1.188  14.776  0.1910  0.9754  0.3453
17493TIP3    H273971   3.518   1.209  14.881 -0.0684 -0.1760  0.3228
17494TIP3   OH273972   6.194   2.857   0.786  0.6611  0.2943 -0.1139
17494TIP3    H173973   6.229   2.820   0.867 -0.7991  0.8013  0.7598
17494TIP3    H273974   6.158   2.941   0.811 -0.1099  0.3093 -1.2228
17495TIP3   OH273975   2.992   6.418  13.491  0.0583  0.1698 -0.3762
17495TIP3    H173976   3.087   6.404  13.496  0.1312  0.5434 -0.7130
17495TIP3    H273977   2.982   6.490  13.430 -0.6152 -1.7309 -2.5611
17496TIP3   OH273978   1.033   3.379   5.454  0.1862 -0.1483 -0.2806
17496TIP3    H173979   0.948   3.344   5.479  0.9822 -1.4198  0.7641
17496TIP3    H273980   1.070   3.411   5.536  1.0506 -0.3669 -0.5775
17497TIP3   OH273981   5.007   1.326   2.446 -0.1636  0.1890  0.1234
17497TIP3    H173982   4.961   1.381   2.509 -0.2980  0.3267 -0.0944
17497TIP3    H273983   4.992   1.369   2.362 -1.2796 -0.8382 -0.2047
17498TIP3   OH273984   3.246   4.958  13.854 -0.1652  0.3382 -0.1273
17498TIP3    H173985   3.191   5.004  13.791 -2.5892 -1.2055  0.7697
17498TIP3    H273986   3.185   4.927  13.921  1.4874 -3.1326 -0.1035
17499TIP3   OH273987   3.798   0.936  15.695  0.0891  0.3906  0.0497
17499TIP3    H173988   3.893   0.922  15.694  0.2494  1.4497  0.7374
17499TIP3    H273989   3.774   0.940  15.602  0.6404 -0.3287 -0.1311
17500TIP3   OH273990   6.329   1.730  11.200 -0.5025 -0.0689 -0.4884
17500TIP3    H173991   6.318   1.639  11.175 -0.9523 -0.0334 -0.4144
17500TIP3    H273992   6.393   1.764  11.137  0.0587 -0.5680 -0.1925
17501TIP3   OH273993   3.986   2.722  16.171 -0.3383 -0.1620  0.0509
17501TIP3    H173994   4.060   2.763  16.215 -0.6787  0.5137  0.0123
17501TIP3    H273995   4.022   2.686  16.090 -0.4768  2.3394 -1.1870
17502TIP3   OH273996   5.832   0.918   4.573 -0.0393  0.2486  0.0686
17502TIP3    H173997   5.808   0.928   4.665  0.2479  0.8859  0.0755
17502TIP3    H273998   5.908   0.860   4.574  0.0015  0.3054  0.2366
17503TIP3   OH273999   4.370   1.668   3.009 -0.5475 -0.8703  0.2027
17503TIP3    H174000   4.444   1.708   3.055 -1.1502  2.6292 -1.6843
17503TIP3    H274001   4.301   1.660   3.075 -0.0896  0.4018  0.8349
17504TIP3   OH274002   4.743   4.661   2.566  0.6582  0.1141  0.5794
17504TIP3    H174003   4.700   4.646   2.481  2.8258  2.2201 -0.9832
17504TIP3    H274004   4.809   4.593   2.572  0.6573  0.1003  0.4402
17505TIP3   OH274005   2.148   4.943  12.802 -0.3738 -0.0961  0.5454
17505TIP3    H174006   2.129   5.029  12.839 -1.7636 -0.0666 -0.2150
17505TIP3    H274007   2.063   4.909  12.775  0.1637 -1.7296  0.8764
17506TIP3   OH274008   5.611   5.853   0.346  0.5382  0.3000  0.4616
17506TIP3    H174009   5.641   5.913   0.414 -0.9358  0.7421  0.7436
17506TIP3    H274010   5.611   5.767   0.388 -0.2243  0.5497  0.9870
17507TIP3   OH274011   0.881   2.224  13.057  0.5540 -0.1375 -0.5004
17507TIP3    H174012   0.836   2.249  13.138 -1.5616  0.4625 -1.8303
17507TIP3    H274013   0.974   2.235  13.077 -0.0299  2.1511  1.1353
17508TIP3   OH274014   1.212   5.978   0.235  0.0324  0.0576  0.0902
17508TIP3    H174015   1.225   6.073   0.236 -0.1877  0.0962 -0.3576
17508TIP3    H274016   1.276   5.946   0.171 -1.8454  0.2211 -1.9321
17509TIP3   OH274017   0.353   5.070   2.122 -0.9919  0.7062 -0.0134
17509TIP3    H174018   0.392   5.062   2.035 -4.2011  1.5939 -1.6030
17509TIP3    H274019   0.303   4.989   2.134 -0.2459  0.4031  1.2127
17510TIP3   OH274020   3.141   6.554   5.504 -0.7936 -0.2863  0.2366
17510TIP3    H174021   3.216   6.586   5.453 -1.6506 -0.5879 -1.2404
17510TIP3    H274022   3.181   6.509   5.579  0.5146 -0.5297 -0.5845
17511TIP3   OH274023   5.154   0.554   4.976  0.0022  0.2160 -0.1538
17511TIP3    H174024   5.135   0.462   4.993 -1.8637  0.7254  0.6171
17511TIP3    H274025   5.244   0.554   4.942 -0.0902 -1.9060 -0.4604
17512TIP3   OH274026   5.875   2.718   1.765 -0.9077  0.0240  0.3170
17512TIP3    H174027   5.917   2.749   1.845  0.8588 -1.8972  0.1952
17512TIP3    H274028   5.878   2.792   1.705  1.6733  0.1868  0.5894
17513TIP3   OH274029   0.138   1.864  14.682 -0.0639  0.0952 -0.0668
17513TIP3    H174030   0.093   1.783  14.657  0.1231  0.5889 -2.0566
17513TIP3    H274031   0.126   1.922  14.608  1.4539  1.2280  0.5445
17514TIP3   OH274032   4.664   5.245   3.266  0.0766 -0.8462  0.3478
17514TIP3    H174033   4.577   5.285   3.269  0.2360 -0.5457  1.0439
17514TIP3    H274034   4.647   5.151   3.255 -0.3257 -0.7541  0.1713
17515TIP3   OH274035   5.385   5.282   5.216  0.7189  0.4405  0.2796
17515TIP3    H174036   5.309   5.319   5.171  1.4967  0.6231 -0.9148
17515TIP3    H274037   5.378   5.187   5.201  1.0359  0.5108 -0.3369
17516TIP3   OH274038   4.976   2.166   3.933 -0.5488 -0.1911  0.4009
17516TIP3    H174039   5.067   2.195   3.932 -0.3271 -0.8481  1.3080
17516TIP3    H274040   4.929   2.237   3.977 -1.2214  2.2127 -3.8637
17517TIP3   OH274041   2.578   0.438  13.076 -0.3122  0.0643 -0.8586
17517TIP3    H174042   2.586   0.439  13.171  2.1481  0.3444 -1.0423
17517TIP3    H274043   2.510   0.372  13.059  0.9205 -1.7613  0.9869
17518TIP3   OH274044   2.332   4.447   2.105  0.4813  0.1951 -0.2552
17518TIP3    H174045   2.421   4.430   2.074  0.0271 -0.7579 -1.0795
17518TIP3    H274046   2.332   4.417   2.196  1.3350  1.3484  0.1301
17519TIP3   OH274047   2.375   5.399   1.479 -0.1427  0.0511 -0.1761
17519TIP3    H174048   2.394   5.376   1.569 -1.4293 -0.9879 -0.1464
17519TIP3    H274049   2.459   5.388   1.433 -0.2628 -3.0086  0.1987
17520TIP3   OH274050   6.792   0.046  13.476  0.4386 -0.0319  0.4148
17520TIP3    H174051   6.843   0.053  13.396  0.7497  1.3770  0.7363
17520TIP3    H274052   6.856   0.030  13.545  0.2514 -0.3509  0.5204
17521TIP3   OH274053   4.461   1.723   5.649  0.2295  0.7290  0.3117
17521TIP3    H174054   4.519   1.750   5.578 -0.0446  0.4202 -0.0283
17521TIP3    H274055   4.409   1.802   5.669 -0.7142  0.4087 -0.8222
17522TIP3   OH274056   6.020   5.583   1.245 -0.1458  0.2205  0.6143
17522TIP3    H174057   5.946   5.595   1.185  0.8762 -0.1018 -0.7187
17522TIP3    H274058   6.030   5.488   1.252 -2.0595  0.1476  3.5681
17523TIP3   OH274059   1.943   3.200   5.818 -0.4058  0.7947 -0.0451
17523TIP3    H174060   1.870   3.203   5.880  0.1095  2.5051  0.4994
17523TIP3    H274061   1.901   3.193   5.733 -1.1769  0.4335  0.3557
17524TIP3   OH274062   3.162   6.634  11.444 -0.1444  0.3267 -0.1299
17524TIP3    H174063   3.169   6.663  11.353 -1.8996 -0.2760 -0.4690
17524TIP3    H274064   3.222   6.559  11.450  0.0539  0.4317 -0.7483
17525TIP3   OH274065   6.390   3.203  16.359  0.1594 -0.3049  0.2550
17525TIP3    H174066   6.438   3.194  16.441 -0.6094 -0.5942  0.6779
17525TIP3    H274067   6.457   3.197  16.291  0.6284 -1.4601  0.8151
17526TIP3   OH274068   1.700   0.524   3.225  0.3917  0.4457  0.7507
17526TIP3    H174069   1.667   0.473   3.300 -0.8918  2.1055  1.3379
17526TIP3    H274070   1.631   0.515   3.159  1.0510 -0.1531  0.1367
17527TIP3   OH274071   4.225   2.111  16.452  0.0409  0.6588  0.6488
17527TIP3    H174072   4.274   2.036  16.485  1.9423  1.3206 -0.5440
17527TIP3    H274073   4.200   2.085  16.363  1.0429  1.5511  0.0898
17528TIP3   OH274074   3.784   4.108   3.847  0.2140 -0.3061 -0.6409
17528TIP3    H174075   3.848   4.143   3.909  1.6296 -2.0219 -1.1094
17528TIP3    H274076   3.742   4.186   3.810  1.3896  0.8174  0.3283
17529TIP3   OH274077   4.305   2.518   1.400 -0.0313 -0.4786 -0.5227
17529TIP3    H174078   4.333   2.510   1.491 -0.4807  0.8877 -0.2509
17529TIP3    H274079   4.385   2.539   1.351 -0.0745  0.5030 -0.1808
17530TIP3   OH274080   1.291   3.715   2.936 -0.0424 -0.0203  0.0105
17530TIP3    H174081   1.339   3.673   3.007 -0.1093 -0.7838 -0.3793
17530TIP3    H274082   1.208   3.742   2.975 -0.0993 -0.4828  0.2110
17531TIP3   OH274083   4.366   4.410   1.070 -0.0643  0.2691  0.4704
17531TIP3    H174084   4.274   4.426   1.053 -0.1332  1.2423  1.7097
17531TIP3    H274085   4.382   4.449   1.156  1.6981  0.8535 -0.0999
17532TIP3   OH274086   4.978   0.298   2.075  0.0939  0.2220 -0.4539
17532TIP3    H174087   4.955   0.206   2.061 -1.4244  0.4220  0.5981
17532TIP3    H274088   4.976   0.309   2.170  0.6972  1.2399 -0.5603
17533TIP3   OH274089   2.621   3.131  14.730 -0.0741  0.7080 -0.1489
17533TIP3    H174090   2.665   3.205  14.690 -0.7615 -0.0956 -2.4746
17533TIP3    H274091   2.583   3.165  14.811  0.7211  2.5498 -0.5496
17534TIP3   OH274092   4.854   5.298   6.032 -0.4749 -0.1431  0.0168
17534TIP3    H174093   4.813   5.241   6.097 -0.6785 -0.5294 -0.4536
17534TIP3    H274094   4.940   5.319   6.070 -0.3050 -0.9411  0.0810
17535TIP3   OH274095   3.004   2.767  12.430  0.2589 -0.3026 -0.1817
17535TIP3    H174096   2.919   2.792  12.395 -0.0432 -2.2295 -0.8503
17535TIP3    H274097   3.058   2.845  12.419 -0.5067 -0.0791 -2.6887
17536TIP3   OH274098   0.131   1.728   0.677 -0.7493 -0.2274  0.7237
17536TIP3    H174099   0.130   1.715   0.772 -1.1364 -0.7508  0.6509
17536TIP3    H274100   0.039   1.720   0.651 -0.7488  0.7494  0.4146
17537TIP3   OH274101   6.528   5.221  11.467 -0.0691 -0.6807  0.8796
17537TIP3    H174102   6.475   5.294  11.498 -0.4270  0.1107 -1.4775
17537TIP3    H274103   6.616   5.240  11.500  0.3092  1.9879 -1.3677
17538TIP3   OH274104   2.747   4.361   1.007  0.1148 -0.1317  0.1678
17538TIP3    H174105   2.776   4.441   1.050  2.2513 -0.3788 -0.7651
17538TIP3    H274106   2.653   4.375   0.990  0.3395  1.9164  0.5292
17539TIP3   OH274107   3.300   6.450  12.935  0.4156  0.4340 -0.2140
17539TIP3    H174108   3.248   6.370  12.946  0.4987  0.5204  0.7759
17539TIP3    H274109   3.389   6.418  12.919  0.1993  0.3039 -1.2348
17540TIP3   OH274110   5.257   3.186  14.277 -0.5472 -0.3009  0.4638
17540TIP3    H174111   5.168   3.151  14.282 -0.0389 -1.5057  1.3978
17540TIP3    H274112   5.261   3.229  14.192 -1.9701 -0.3858  0.3370
17541TIP3   OH274113   5.705   2.083  13.971  0.2232 -0.6441 -0.3918
17541TIP3    H174114   5.616   2.098  13.938 -0.1193  0.0097  0.8192
17541TIP3    H274115   5.719   2.151  14.036  1.4607 -1.0063 -0.2594
17542TIP3   OH274116   0.225   1.677  15.834  0.2224  0.4287  0.0987
17542TIP3    H174117   0.217   1.584  15.859 -0.7280  0.1551 -1.1907
17542TIP3    H274118   0.288   1.677  15.762  1.2376  0.9566  0.9689
17543TIP3   OH274119   0.166   3.157  10.632 -0.3324  0.2225 -0.4783
17543TIP3    H174120   0.087   3.117  10.595 -0.2155  0.8107 -1.3755
17543TIP3    H274121   0.164   3.247  10.601  1.2969 -0.0588 -1.4980
17544TIP3   OH274122   2.120   2.774  17.084 -0.0473  0.1677  0.3043
17544TIP3    H174123   2.178   2.812  17.149  3.7299 -1.3256 -2.0544
17544TIP3    H274124   2.073   2.849  17.046  1.5098  1.5797  1.1561
17545TIP3   OH274125   0.494   5.274   3.074  0.4842  0.1780  0.4943
17545TIP3    H174126   0.407   5.314   3.083 -0.3108 -1.6483  1.1701
17545TIP3    H274127   0.527   5.268   3.164  0.4006 -1.0769  0.4538
17546TIP3   OH274128   3.638   2.163   5.909  0.6382 -0.0392  0.0924
17546TIP3    H174129   3.619   2.084   5.859  0.9576 -1.0051  1.4563
17546TIP3    H274130   3.591   2.150   5.992  0.1702  1.4940  0.0778
17547TIP3   OH274131   0.061   1.135   2.767  0.0201  0.1775  0.6402
17547TIP3    H174132  -0.021   1.099   2.801 -2.1275  3.5480 -0.7232
17547TIP3    H274133   0.060   1.227   2.794  2.7378  0.5982 -0.5291
17548TIP3   OH274134   3.459   0.523   1.045  0.1780  0.1259  0.2544
17548TIP3    H174135   3.484   0.615   1.030 -1.1713  0.0590 -2.7390
17548TIP3    H274136   3.412   0.525   1.128 -0.2587  2.2436 -0.0018
17549TIP3   OH274137   4.627   2.733   2.434 -0.5781  0.0605  0.1264
17549TIP3    H174138   4.614   2.780   2.352  0.5587  0.3335  0.0952
17549TIP3    H274139   4.683   2.659   2.411 -1.6058 -0.8049  0.3487
17550TIP3   OH274140   6.578   3.371  15.904 -0.2573  0.5130  0.3177
17550TIP3    H174141   6.659   3.420  15.920 -0.3759  1.1887 -1.1066
17550TIP3    H274142   6.508   3.432  15.924 -0.4245  0.2377  0.5899
17551TIP3   OH274143   3.382   0.878   2.112  0.1444  0.0831 -0.5783
17551TIP3    H174144   3.446   0.917   2.172 -0.0052  0.5051 -0.6872
17551TIP3    H274145   3.301   0.875   2.162 -0.4738  2.2775 -1.3954
17552TIP3   OH274146   6.678   1.574  14.231 -0.4490  0.3600  0.1654
17552TIP3    H174147   6.613   1.612  14.171 -0.9192  0.9202  1.0194
17552TIP3    H274148   6.665   1.480  14.225 -0.1571  0.3889 -0.9914
17553TIP3   OH274149   2.889   0.508  10.656 -0.5835 -0.1694 -0.1775
17553TIP3    H174150   2.944   0.548  10.588  0.2740  0.7366  1.0497
17553TIP3    H274151   2.944   0.438  10.693 -0.5663  0.1851  0.4714
17554TIP3   OH274152   2.983   3.404   2.512  0.3006 -0.0149 -0.3440
17554TIP3    H174153   2.890   3.416   2.498 -0.2110 -0.1278  2.5970
17554TIP3    H274154   3.024   3.481   2.474 -1.0387  0.2777 -1.2040
17555TIP3   OH274155   2.865   5.672  14.656 -0.1025 -1.0347  1.1964
17555TIP3    H174156   2.792   5.614  14.678 -0.1353 -1.4346  0.0699
17555TIP3    H274157   2.877   5.660  14.561 -1.2128  2.0915  0.6259
17556TIP3   OH274158   1.267   3.126  15.071 -0.2000 -0.6459 -0.0236
17556TIP3    H174159   1.289   3.165  15.155 -1.8528 -1.5297  0.8496
17556TIP3    H274160   1.322   3.048  15.065  0.4216 -0.2089 -0.0968
17557TIP3   OH274161   1.291   5.548   5.768 -0.1816  0.1621 -0.6203
17557TIP3    H174162   1.277   5.506   5.683  0.8278  0.5371 -0.9765
17557TIP3    H274163   1.366   5.502   5.806 -1.2781 -0.7100  0.5436
17558TIP3   OH274164   0.285   0.643  12.315 -0.4475  0.1463 -0.0209
17558TIP3    H174165   0.357   0.628  12.376 -1.9464 -0.0450  1.7372
17558TIP3    H274166   0.285   0.738  12.300 -0.0790  0.1960  0.2963
17559TIP3   OH274167   1.648   1.496   3.712 -0.1154 -0.0663 -0.9309
17559TIP3    H174168   1.726   1.551   3.706 -0.2151  0.1687 -0.0594
17559TIP3    H274169   1.578   1.549   3.672  0.0511 -0.0708 -1.2342
17560TIP3   OH274170   5.268   4.041   5.556 -0.2384 -0.6914 -0.3037
17560TIP3    H174171   5.244   4.124   5.598  0.6959 -0.1840 -0.7654
17560TIP3    H274172   5.340   4.007   5.610 -0.0569 -0.7936 -0.6131
17561TIP3   OH274173   5.591   2.800  16.810 -0.3110 -0.0879  0.2965
17561TIP3    H174174   5.506   2.834  16.785 -0.7516  0.7973  2.8515
17561TIP3    H274175   5.637   2.874  16.849  0.2893 -1.3868  2.1661
17562TIP3   OH274176   1.501   0.292  15.999  0.6460  0.4548  0.0194
17562TIP3    H174177   1.587   0.334  15.991  0.2958  1.1772  0.0619
17562TIP3    H274178   1.514   0.204  15.961  2.2459 -0.6200  2.9265
17563TIP3   OH274179   0.248   1.220   1.763 -0.0478  0.0794  0.1157
17563TIP3    H174180   0.153   1.215   1.754  0.0178  0.8978 -1.0735
17563TIP3    H274181   0.261   1.244   1.855 -1.0196  0.7643  0.0881
17564TIP3   OH274182   5.328   0.023  15.108  0.6125 -0.9639  0.3728
17564TIP3    H174183   5.401   0.043  15.049  0.0335 -1.3691 -0.5007
17564TIP3    H274184   5.365   0.030  15.196  1.7437 -1.3214 -0.0642
17565TIP3   OH274185   5.888   6.535   1.993 -0.0022 -0.1686  0.8877
17565TIP3    H174186   5.924   6.489   2.070  2.2059  0.9499  0.5812
17565TIP3    H274187   5.861   6.620   2.027  1.5058  0.5460  0.3696
17566TIP3   OH274188   4.977   6.510  17.212  0.0680 -0.5283 -0.6135
17566TIP3    H174189   4.894   6.473  17.240  0.7893  0.2355  2.7024
17566TIP3    H274190   4.994   6.581  17.273  2.4407  0.2828 -2.1394
17567TIP3   OH274191   5.790   4.164   4.051 -0.3806  0.9352 -0.0715
17567TIP3    H174192   5.883   4.185   4.037  0.4764 -1.6955  1.2402
17567TIP3    H274193   5.743   4.226   3.997  2.2858  0.0954 -3.5322
17568TIP3   OH274194   6.747   1.009   4.055 -0.7169 -0.2498  0.5314
17568TIP3    H174195   6.792   1.074   4.110 -2.8480  1.8596 -0.1447
17568TIP3    H274196   6.670   0.984   4.106 -0.9897 -0.7262 -0.1150
17569TIP3   OH274197   2.330   1.107  15.956  0.1171  0.3397  0.2967
17569TIP3    H174198   2.301   1.195  15.981  0.1453  0.1457  1.0195
17569TIP3    H274199   2.424   1.115  15.945  0.3906 -0.0057  2.1617
17570TIP3   OH274200   3.261   1.803  16.278  0.0129 -0.0161  0.1289
17570TIP3    H174201   3.180   1.755  16.261 -1.6787  3.0349 -0.8428
17570TIP3    H274202   3.330   1.743  16.249 -2.1069 -0.8895 -3.5010
17571TIP3   OH274203   3.983   0.733  15.077  0.0275  0.2716 -0.1997
17571TIP3    H174204   3.970   0.639  15.064  0.3607  0.3592 -1.2025
17571TIP3    H274205   3.897   0.772  15.060 -0.2359  0.1009  0.7245
17572TIP3   OH274206   2.306   2.463   0.025  0.0968  0.4202  0.3264
17572TIP3    H174207   2.338   2.463   0.115 -0.8785 -0.2923  0.6833
17572TIP3    H274208   2.385   2.464  -0.029  0.6879  0.6212  1.1877
17573TIP3   OH274209   2.487   0.317  11.783 -0.1937  0.1119 -0.0561
17573TIP3    H174210   2.459   0.250  11.721 -0.1966  0.2734 -0.2293
17573TIP3    H274211   2.406   0.345  11.826 -0.0120 -1.0675  1.1040
17574TIP3   OH274212   4.532   1.706   4.395  0.3265  0.3712 -0.1769
17574TIP3    H174213   4.451   1.746   4.424 -0.3418 -0.8433 -0.3109
17574TIP3    H274214   4.537   1.624   4.444  2.0341  0.9367  0.6375
17575TIP3   OH274215   4.123   3.515   0.747 -0.1860  0.2545 -0.4448
17575TIP3    H174216   4.213   3.493   0.772 -0.7663 -0.4876  1.0746
17575TIP3    H274217   4.100   3.450   0.681 -0.5265 -1.3435  1.1736
17576TIP3   OH274218   3.050   5.489  13.937 -0.0438  0.3035  0.5787
17576TIP3    H174219   3.108   5.517  13.867  0.7115 -0.9430  0.6997
17576TIP3    H274220   2.964   5.480  13.895  0.0017  1.3996  0.2380
17577TIP3   OH274221   3.944   2.326  14.195 -0.5466  0.1293 -0.3565
17577TIP3    H174222   3.871   2.307  14.253 -1.5122 -0.4656 -1.7438
17577TIP3    H274223   4.018   2.277  14.232 -0.9148  0.4944  0.8738
17578TIP3   OH274224   4.820   4.794  12.062 -0.0922  0.3297  0.5364
17578TIP3    H174225   4.865   4.868  12.022 -0.5077 -0.2955 -1.1269
17578TIP3    H274226   4.727   4.816  12.055 -0.2418 -0.6126 -0.4835
17579TIP3   OH274227   6.727   6.009  13.687 -0.3359 -0.3193 -0.3455
17579TIP3    H174228   6.792   6.059  13.638  1.2930 -1.4093  0.6144
17579TIP3    H274229   6.678   5.961  13.620  1.1080 -0.9196 -0.9941
17580TIP3   OH274230   1.536   2.160  15.300 -0.4351  0.6101  0.5313
17580TIP3    H174231   1.601   2.149  15.231  1.4945  1.6349  2.1519
17580TIP3    H274232   1.581   2.133  15.380 -2.2676  0.5297  1.5585
17581TIP3   OH274233   4.214   2.739  11.981 -0.1259  0.1331  0.1084
17581TIP3    H174234   4.197   2.648  11.957  0.8835 -0.0141 -0.0526
17581TIP3    H274235   4.210   2.788  11.899  1.4402 -0.0890 -0.1125
17582TIP3   OH274236   0.704   3.002   0.418  0.1459 -0.2894 -0.5294
17582TIP3    H174237   0.678   3.084   0.375  0.1982  0.5203  0.9332
17582TIP3    H274238   0.654   2.934   0.374 -2.9407  0.9815  0.8418
17583TIP3   OH274239   6.314   3.141   3.969  0.2543  0.0145  0.2179
17583TIP3    H174240   6.347   3.073   4.028  1.0244  0.3271  0.1477
17583TIP3    H274241   6.302   3.095   3.885  0.0370 -0.2147  0.3739
17584TIP3   OH274242   1.146   5.999  11.864 -1.1765 -0.4720  0.0249
17584TIP3    H174243   1.112   5.934  11.926  1.4406 -3.4077 -1.5427
17584TIP3    H274244   1.217   6.042  11.911 -1.8588  0.2008  0.4706
17585TIP3   OH274245   3.194   1.210   0.719 -0.2127  0.3451 -0.3495
17585TIP3    H174246   3.213   1.303   0.716 -1.1111  0.4996 -1.4411
17585TIP3    H274247   3.105   1.202   0.683 -0.5755 -0.8087  0.7584
17586TIP3   OH274248   5.390   5.057  14.504 -0.6585 -0.6576 -0.1220
17586TIP3    H174249   5.362   5.098  14.586  0.7745  0.2156 -0.0562
17586TIP3    H274250   5.394   5.129  14.442 -1.1165 -1.2183 -0.8086
17587TIP3   OH274251   6.105   0.512   1.302 -0.5581 -0.3493  0.4578
17587TIP3    H174252   6.150   0.452   1.242  1.0539 -0.2751  1.5604
17587TIP3    H274253   6.068   0.455   1.369 -2.2781 -0.4226 -0.5290
17588TIP3   OH274254   4.043   3.504   3.772 -0.1401  0.2732  0.1049
17588TIP3    H174255   4.092   3.562   3.714  0.0280 -0.8645 -0.8975
17588TIP3    H274256   4.011   3.434   3.716  2.1395 -2.2110  1.7381
17589TIP3   OH274257   1.090   3.168   1.708  0.3285 -0.1498  0.1629
17589TIP3    H174258   1.175   3.151   1.669 -0.0374 -0.2003 -0.6247
17589TIP3    H274259   1.092   3.261   1.732  0.6974 -0.2159  0.3953
17590TIP3   OH274260   5.539   5.818   3.617  0.3657  0.2175  0.1626
17590TIP3    H174261   5.575   5.782   3.698  0.9838 -0.7555 -0.5227
17590TIP3    H274262   5.475   5.753   3.588  1.8229 -0.5973 -1.3248
17591TIP3   OH274263   3.877   0.596  14.783 -0.7273  0.0141 -0.5226
17591TIP3    H174264   3.937   0.573  14.713 -1.0671  1.2508 -1.2284
17591TIP3    H274265   3.795   0.617  14.739 -1.0667  0.4000  0.2786
17592TIP3   OH274266   0.672   0.897   3.252 -0.3372 -0.8683 -0.4651
17592TIP3    H174267   0.625   0.964   3.201 -1.4838 -0.4601  1.0922
17592TIP3    H274268   0.686   0.825   3.190  0.3487  0.5321 -1.9975
17593TIP3   OH274269   3.022   5.283  16.694 -0.0637 -0.2932  0.3681
17593TIP3    H174270   3.066   5.199  16.707 -1.9264 -1.2335  0.7847
17593TIP3    H274271   2.939   5.274  16.740 -1.9950  0.3406 -2.8184
17594TIP3   OH274272   4.906   4.345   0.792 -0.6040 -0.4375  0.2309
17594TIP3    H174273   4.854   4.370   0.869 -2.3288 -1.6167 -0.5154
17594TIP3    H274274   4.872   4.400   0.721 -0.9579 -1.3179 -0.2924
17595TIP3   OH274275   6.040   6.292   6.273  0.1402 -0.2354 -0.0583
17595TIP3    H174276   6.033   6.328   6.362  1.4174  3.0819 -1.2462
17595TIP3    H274277   5.953   6.303   6.236  0.3689  1.0660 -0.2044
17596TIP3   OH274278   1.870   6.451   4.041 -0.3024 -0.0438 -0.5763
17596TIP3    H174279   1.913   6.505   4.109 -2.5595  0.9386  0.1229
17596TIP3    H274280   1.895   6.493   3.959 -0.9358  1.2816 -0.1072
17597TIP3   OH274281   5.851   4.650   4.966  0.4617 -0.4792  0.0652
17597TIP3    H174282   5.871   4.720   4.904 -0.7582  0.7859  1.0802
17597TIP3    H274283   5.816   4.579   4.912  1.2681 -0.1519 -0.9100
17598TIP3   OH274284   1.929   2.324   1.727 -0.2092  0.4227  0.7005
17598TIP3    H174285   1.937   2.393   1.662 -0.2238  0.4296  0.7062
17598TIP3    H274286   1.836   2.300   1.725 -0.1393  0.1708  0.4583
17599TIP3   OH274287   6.293   3.576  12.772  1.3179  0.0871  0.2016
17599TIP3    H174288   6.316   3.668  12.764  0.7638  0.2988  1.0239
17599TIP3    H274289   6.365   3.530  12.728  1.2666  0.9305 -0.7821
17600TIP3   OH274290   1.208   3.900   4.676 -0.3972  0.4385  0.4143
17600TIP3    H174291   1.151   3.859   4.612  1.1806 -0.5390 -0.3991
17600TIP3    H274292   1.265   3.957   4.624 -0.4177  1.1715  1.1783
17601TIP3   OH274293   0.704   0.802  15.501 -0.2021  0.0262 -0.1884
17601TIP3    H174294   0.744   0.724  15.540  1.9226  1.1168 -0.1641
17601TIP3    H274295   0.653   0.767  15.427  1.0384 -1.3569 -0.4245
17602TIP3   OH274296   6.065   2.062   5.497 -0.0185  0.1968 -0.6564
17602TIP3    H174297   6.064   1.966   5.500 -0.4466  0.1855 -1.1302
17602TIP3    H274298   6.128   2.087   5.565  0.4159 -0.4295 -0.8222
17603TIP3   OH274299   1.396   1.110  15.169 -0.2194  0.2051 -0.0008
17603TIP3    H174300   1.468   1.048  15.162 -0.4528  0.0026 -0.7014
17603TIP3    H274301   1.366   1.122  15.079 -0.6223  0.8062  0.2078
17604TIP3   OH274302   0.926   0.247   5.031 -0.0022  0.5359  0.1036
17604TIP3    H174303   0.931   0.330   5.077  0.0244 -0.1692  1.3867
17604TIP3    H274304   1.016   0.231   5.000  0.2745  0.3516  0.9896
17605TIP3   OH274305   0.486   4.622  14.444  0.1337  0.5383 -0.1562
17605TIP3    H174306   0.479   4.655  14.354  2.2330  0.0871 -0.5089
17605TIP3    H274307   0.534   4.690  14.491  0.3832  0.0821  0.2510
17606TIP3   OH274308   4.521   6.280  11.758 -0.3059 -0.4911 -0.3871
17606TIP3    H174309   4.445   6.259  11.703 -2.0230  2.3411  0.8045
17606TIP3    H274310   4.496   6.249  11.845 -0.3085  0.8325  0.0965
17607TIP3   OH274311   5.718   6.448   3.605 -0.4222  0.5647  0.1351
17607TIP3    H174312   5.802   6.490   3.591  0.4515 -1.6727 -1.5982
17607TIP3    H274313   5.721   6.418   3.696  0.4773  0.8875  0.2142
17608TIP3   OH274314   4.922   3.828  17.052 -0.4422  0.2324  0.1314
17608TIP3    H174315   4.920   3.805  16.959 -1.5054  2.2144 -0.3711
17608TIP3    H274316   4.981   3.764  17.092 -1.2235 -1.6242 -1.6296
17609TIP3   OH274317   5.465   2.562   0.795 -0.3017 -0.0996 -0.6060
17609TIP3    H174318   5.373   2.584   0.809 -0.1663 -0.0630  0.2756
17609TIP3    H274319   5.464   2.472   0.763 -0.5715 -0.6158  0.8105
17610TIP3   OH274320   4.435   5.747   1.405  0.8266 -0.4302  0.6349
17610TIP3    H174321   4.408   5.719   1.317  1.2151 -0.1224  0.4204
17610TIP3    H274322   4.427   5.668   1.459  1.9357 -0.9660  0.0223
17611TIP3   OH274323   5.859   1.541  16.786 -0.4869  0.5018  0.0995
17611TIP3    H174324   5.834   1.604  16.718 -0.2577  0.9896  0.4608
17611TIP3    H274325   5.939   1.578  16.823  0.2954 -0.6001 -0.4750
17612TIP3   OH274326   1.325   3.874   0.606  0.1876  0.1626  0.0526
17612TIP3    H174327   1.331   3.779   0.592  0.0094  0.2329 -0.5053
17612TIP3    H274328   1.343   3.885   0.699 -1.2304 -0.5650  0.4317
17613TIP3   OH274329   2.732   5.859   2.599 -0.1535 -0.5742 -0.5672
17613TIP3    H174330   2.809   5.808   2.624 -0.2134  0.1496  1.1927
17613TIP3    H274331   2.687   5.876   2.682 -1.4999  0.1441 -1.4277
17614TIP3   OH274332   0.751   4.995   3.758  0.1831 -0.2882  0.3066
17614TIP3    H174333   0.666   4.985   3.800 -0.3812  1.3076 -0.4578
17614TIP3    H274334   0.801   5.050   3.818  0.5354 -0.8188  0.5126
17615TIP3   OH274335   3.565   3.216   1.396  0.2690 -0.0222  0.0853
17615TIP3    H174336   3.535   3.136   1.352  0.8656 -2.0986  3.3465
17615TIP3    H274337   3.659   3.204   1.408  0.5491  1.6405 -0.2173
17616TIP3   OH274338   0.725   3.614   4.207  0.4184 -0.0282  0.1922
17616TIP3    H174339   0.784   3.543   4.230  1.3622  0.6982  0.0459
17616TIP3    H274340   0.719   3.611   4.111 -0.6089 -0.7455  0.2675
17617TIP3   OH274341   3.907   3.456  10.480 -0.0918 -0.0298 -0.9648
17617TIP3    H174342   3.945   3.502  10.555 -0.6632  0.6997 -1.1146
17617TIP3    H274343   3.980   3.445  10.420  0.6360 -1.6765  0.1925
17618TIP3   OH274344   5.850   3.922  16.480  0.1824 -0.3129 -0.1835
17618TIP3    H174345   5.889   3.937  16.566  2.8291  1.1700 -1.5715
17618TIP3    H274346   5.912   3.864  16.436 -1.6687 -1.9146 -0.7655
17619TIP3   OH274347   2.279   5.915  16.132  0.4185  0.2117  0.0336
17619TIP3    H174348   2.353   5.866  16.170 -0.2294 -0.0229  1.0198
17619TIP3    H274349   2.215   5.848  16.110  0.7406  0.3622 -1.3969
17620TIP3   OH274350   0.820   3.664  11.322 -0.2395 -0.0595  0.6146
17620TIP3    H174351   0.778   3.638  11.240  0.5810  0.2534  0.0899
17620TIP3    H274352   0.795   3.755  11.334 -0.1004 -0.0134  0.5520
17621TIP3   OH274353   3.457   1.031   4.422  0.9158 -0.0896  0.0308
17621TIP3    H174354   3.524   1.028   4.490 -0.0268 -1.4174  0.9312
17621TIP3    H274355   3.380   1.068   4.465  0.0728 -1.6804 -0.0625
17622TIP3   OH274356   2.544   5.696  15.071 -0.3158 -0.3753 -0.2697
17622TIP3    H174357   2.601   5.717  15.146  1.3005 -0.9008 -1.3121
17622TIP3    H274358   2.462   5.740  15.090  1.2722  2.5468  0.1039
17623TIP3   OH274359   3.700   6.265   2.939  0.7667  0.0079 -0.4617
17623TIP3    H174360   3.634   6.313   2.889 -0.5434 -2.0904 -0.7800
17623TIP3    H274361   3.768   6.245   2.875 -0.5142 -1.9281 -1.2694
17624TIP3   OH274362   6.805   6.768  16.511  0.1709  0.0520 -0.2944
17624TIP3    H174363   6.719   6.773  16.553 -1.4288  0.5751 -3.4333
17624TIP3    H274364   6.786   6.736  16.422  3.3284 -0.5684 -0.8052
17625TIP3   OH274365   5.997   3.430  16.624  0.0095 -0.2381 -0.1521
17625TIP3    H174366   5.920   3.414  16.679  0.2709 -0.7780  0.0546
17625TIP3    H274367   5.988   3.369  16.552  0.3602 -0.4637 -0.0096
17626TIP3   OH274368   3.979   1.018   2.971  0.4596 -0.1433 -0.0035
17626TIP3    H174369   4.055   1.074   2.987  0.3815 -0.1242  0.3055
17626TIP3    H274370   3.907   1.079   2.953  0.5730 -0.1688 -0.5278
17627TIP3   OH274371   5.693   3.434   0.880 -0.2018 -0.1657 -0.1771
17627TIP3    H174372   5.719   3.524   0.857 -0.4389  0.0915  0.5465
17627TIP3    H274373   5.663   3.396   0.797 -1.9248  1.0548 -0.1480
17628TIP3   OH274374   0.676   5.839  12.808  0.3304 -0.4729  0.1424
17628TIP3    H174375   0.672   5.754  12.765 -2.1741  0.6949 -2.0737
17628TIP3    H274376   0.758   5.878  12.777  0.7135 -1.4147 -0.0527
17629TIP3   OH274377   4.808   4.491   3.425 -0.0803  0.4017  0.0774
17629TIP3    H174378   4.871   4.538   3.478  1.4614 -1.0951 -0.3772
17629TIP3    H274379   4.725   4.500   3.472  0.4929  2.2130  0.7840
17630TIP3   OH274380   0.746   5.709  15.017  0.1735  0.5033  0.0820
17630TIP3    H174381   0.748   5.766  15.094 -1.4515  1.9651 -0.9480
17630TIP3    H274382   0.783   5.762  14.947  3.8767 -1.6067  0.2929
17631TIP3   OH274383   3.210   2.778  15.339  0.3473 -0.3440  0.1880
17631TIP3    H174384   3.178   2.688  15.342  0.3208 -0.4449 -2.0783
17631TIP3    H274385   3.293   2.776  15.386 -0.0431 -1.3696  0.8460
17632TIP3   OH274386   3.991   3.230  13.220 -0.3590  0.1450 -0.3685
17632TIP3    H174387   3.922   3.292  13.197 -0.8113 -1.2125 -2.7629
17632TIP3    H274388   3.986   3.161  13.153  2.8690 -0.3391 -0.1976
17633TIP3   OH274389   2.407   2.695   1.002 -0.3740 -0.1072 -0.2197
17633TIP3    H174390   2.459   2.758   0.952  0.6018 -1.2570 -0.7001
17633TIP3    H274391   2.361   2.644   0.936 -1.6880  0.5467  0.1898
17634TIP3   OH274392   1.477   5.026   0.700 -0.2736 -0.0606  0.1152
17634TIP3    H174393   1.557   5.018   0.751 -1.0378 -2.5704  1.0129
17634TIP3    H274394   1.462   5.120   0.692  2.0684  0.4133  1.0055
17635TIP3   OH274395   5.324   0.178  16.769 -0.2553  0.0345  0.0453
17635TIP3    H174396   5.311   0.088  16.798 -1.1932  0.5087  1.1282
17635TIP3    H274397   5.286   0.232  16.839 -1.2280  1.2257 -1.3654
17636TIP3   OH274398   6.615   1.965  16.456  0.0862 -0.0388  0.0143
17636TIP3    H174399   6.627   1.873  16.479  0.8610  0.1532  0.4126
17636TIP3    H274400   6.681   2.011  16.507 -1.1229  0.8792  0.7755
17637TIP3   OH274401   0.628   2.082   5.933 -0.7371  0.6918 -0.1056
17637TIP3    H174402   0.679   2.149   5.979 -3.0272  0.5308  2.8558
17637TIP3    H274403   0.690   2.010   5.920  0.6516  1.7550  0.4079
17638TIP3   OH274404   1.390   4.329   0.874  0.1112 -0.3462  0.0808
17638TIP3    H174405   1.340   4.362   0.800 -0.9061 -0.3907  0.7385
17638TIP3    H274406   1.481   4.345   0.850 -0.3078  1.9762 -0.0682
17639TIP3   OH274407   1.895   1.977   3.293  0.0892  0.0090 -0.2970
17639TIP3    H174408   1.956   1.993   3.365 -1.3014 -1.7308  1.3468
17639TIP3    H274409   1.868   1.886   3.305  0.4898 -0.6002 -3.5748
17640TIP3   OH274410   3.800   5.749  11.427  0.1502  0.0659  0.1139
17640TIP3    H174411   3.841   5.713  11.348  2.5129 -1.1239  1.8120
17640TIP3    H274412   3.817   5.843  11.423  0.3049 -0.0032 -0.7957
17641TIP3   OH274413   1.207   3.279  11.126  0.4522 -0.3492 -0.1166
17641TIP3    H174414   1.182   3.214  11.060  2.0240 -1.9498  0.8265
17641TIP3    H274415   1.224   3.228  11.205 -0.6055  1.4585  1.3342
17642TIP3   OH274416   1.508   1.099  14.234 -0.1242  0.2104  0.1476
17642TIP3    H174417   1.580   1.125  14.292  0.3207 -1.2215  0.2501
17642TIP3    H274418   1.435   1.155  14.261  0.5469  0.7102  0.9818
17643TIP3   OH274419   3.448   0.640  14.280 -0.0432 -0.0824  0.1238
17643TIP3    H174420   3.483   0.551  14.284 -1.2769 -0.5464  1.0877
17643TIP3    H274421   3.364   0.634  14.326 -1.0010  1.1710 -1.4523
17644TIP3   OH274422   6.595   5.473   3.782  0.2643 -0.3065 -0.0358
17644TIP3    H174423   6.516   5.514   3.745 -0.7605 -0.0905  2.2623
17644TIP3    H274424   6.617   5.527   3.858  1.8863 -1.1081  0.0923
17645TIP3   OH274425   1.752   5.860  15.238  0.0582 -0.4840 -0.0204
17645TIP3    H174426   1.742   5.941  15.187 -0.4127  0.3835  1.4076
17645TIP3    H274427   1.803   5.802  15.182  0.6841  0.9266 -0.9286
17646TIP3   OH274428   6.410   0.707   4.707 -0.3489 -0.2986  0.3590
17646TIP3    H174429   6.498   0.736   4.729 -0.7017  2.1240 -1.1998
17646TIP3    H274430   6.389   0.640   4.772  3.0529 -1.7126  0.0787
17647TIP3   OH274431   2.004   5.243  13.965  0.8420  0.4181  0.1551
17647TIP3    H174432   1.955   5.262  13.885  1.4341  0.1688 -0.2672
17647TIP3    H274433   1.965   5.162  13.998 -0.5743  1.4630  1.0652
17648TIP3   OH274434   6.503   2.203  14.452 -0.8530 -0.4041 -0.4952
17648TIP3    H174435   6.483   2.294  14.475 -0.7319  0.1218 -2.3682
17648TIP3    H274436   6.432   2.152  14.490 -0.9522  0.4865  0.5232
17649TIP3   OH274437   6.250   6.733   1.103  0.0164  0.2444 -0.0122
17649TIP3    H174438   6.264   6.695   1.190 -0.1057  1.2722  0.4650
17649TIP3    H274439   6.155   6.725   1.089 -0.2850  2.0257  0.8803
17650TIP3   OH274440   1.789   5.292   0.235  0.5701  0.0777 -0.1842
17650TIP3    H174441   1.764   5.251   0.152  0.0721 -2.1208  1.0288
17650TIP3    H274442   1.877   5.259   0.252  0.5568  0.2982  0.3105
17651TIP3   OH274443   5.458   0.079  12.174  0.2144  0.4491 -0.0127
17651TIP3    H174444   5.411   0.162  12.174  0.1612  0.4563 -2.2930
17651TIP3    H274445   5.543   0.099  12.137 -0.3234 -0.7618 -1.9611
17652TIP3   OH274446   1.285   1.224   2.025  0.0612  0.6793 -0.0354
17652TIP3    H174447   1.303   1.232   1.931  0.7062  0.3428  0.0609
17652TIP3    H274448   1.359   1.267   2.067 -0.4035  1.1426  0.3177
17653TIP3   OH274449   2.548   0.473   4.621 -0.1464  0.4048 -0.2823
17653TIP3    H174450   2.633   0.496   4.585  1.3600 -1.7480  1.7240
17653TIP3    H274451   2.564   0.461   4.715 -2.7024  0.0596  0.1660
17654TIP3   OH274452   5.024   6.163   2.178  0.3362 -0.1101  0.3428
17654TIP3    H174453   4.941   6.192   2.140  0.7096 -0.6673 -0.9301
17654TIP3    H274454   4.999   6.115   2.257 -0.7126 -2.0592 -1.1247
17655TIP3   OH274455   1.591   3.157  13.370 -0.0432  0.4821 -0.1594
17655TIP3    H174456   1.681   3.133  13.393  0.2941  1.3743 -0.5206
17655TIP3    H274457   1.579   3.123  13.281  0.1550  0.8984 -0.3502
17656TIP3   OH274458   6.442   5.987  16.850  0.3637 -0.6715 -0.2168
17656TIP3    H174459   6.491   5.919  16.895  2.5242  1.2103  0.3763
17656TIP3    H274460   6.389   6.028  16.917  1.1014 -0.0361 -0.0059
17657TIP3   OH274461   2.732   0.018   2.373  0.8938  0.8463 -0.0307
17657TIP3    H174462   2.809   0.032   2.317 -0.2682 -1.8511 -2.4104
17657TIP3    H274463   2.661   0.065   2.329  0.2771 -0.1558 -0.1247
17658TIP3   OH274464   0.885   5.234   3.958 -0.1283  1.4061 -0.3429
17658TIP3    H174465   0.854   5.202   4.043 -2.7221  0.6445 -1.5250
17658TIP3    H274466   0.954   5.171   3.933 -1.0580  0.2004  0.0701
17659TIP3   OH274467   6.602   4.880   4.222 -0.2978  0.2920  0.3352
17659TIP3    H174468   6.667   4.870   4.291 -2.9737  0.5963  2.9815
17659TIP3    H274469   6.619   4.967   4.185  2.6556 -0.8137 -1.1125
17660TIP3   OH274470   2.058   0.526  11.868 -0.0005 -0.0531 -0.2967
17660TIP3    H174471   2.009   0.599  11.831 -0.4876 -0.4600 -0.4580
17660TIP3    H274472   2.148   0.558  11.874 -0.4117  0.9596  0.6881
17661TIP3   OH274473   6.218   5.646  11.416  0.2235  0.3255  0.2228
17661TIP3    H174474   6.156   5.684  11.354 -0.9381 -1.6872  0.0963
17661TIP3    H274475   6.193   5.681  11.501 -2.2998 -1.8866  0.4387
17662TIP3   OH274476   6.568   0.728  13.464 -0.2238  0.2633  0.8960
17662TIP3    H174477   6.539   0.663  13.528 -0.8025  0.4103  0.7880
17662TIP3    H274478   6.559   0.683  13.380 -3.1889  1.3564  0.5766
17663TIP3   OH274479   5.344   0.286  14.563  0.3113  0.0961 -0.1632
17663TIP3    H174480   5.287   0.284  14.486 -1.5192  0.4055  1.1516
17663TIP3    H274481   5.408   0.355  14.543 -2.3818  2.8155  0.0945
17664TIP3   OH274482   6.622   4.681  17.265  0.0978  0.3500  0.4504
17664TIP3    H174483   6.599   4.632  17.186  1.1254 -0.2481  0.5156
17664TIP3    H274484   6.601   4.621  17.337 -0.9406  0.9352  0.6427
17665TIP3   OH274485   3.796   0.663   4.557 -0.2707 -0.1610 -0.0718
17665TIP3    H174486   3.734   0.640   4.488  1.2866  1.9017 -2.2374
17665TIP3    H274487   3.830   0.579   4.589  0.4483 -1.0989 -3.1969
17666TIP3   OH274488   1.874   6.229  12.531 -0.0449  0.2886 -0.5296
17666TIP3    H174489   1.940   6.220  12.600  1.9836  1.1936 -2.3128
17666TIP3    H274490   1.845   6.139  12.515 -1.0927  0.1287  1.9824
17667TIP3   OH274491   1.108   1.857   3.891  0.2282 -0.0374 -0.0054
17667TIP3    H174492   1.169   1.921   3.855 -0.8913  1.6092  0.9869
17667TIP3    H274493   1.054   1.830   3.816 -1.2866  2.4572  0.1499
17668TIP3   OH274494   2.333   1.872  14.304 -0.4555  0.2584 -0.4947
17668TIP3    H174495   2.410   1.816  14.305 -0.7816 -0.1887  0.0779
17668TIP3    H274496   2.327   1.904  14.214  1.6541  2.0600 -0.0223
17669TIP3   OH274497   0.723   0.267   0.509  0.2374 -0.3974 -0.2193
17669TIP3    H174498   0.731   0.326   0.584  1.5874 -0.4184 -0.3454
17669TIP3    H274499   0.629   0.264   0.492  0.0497  0.8258  0.5020
17670TIP3   OH274500   2.190   3.296   2.013  0.0440 -0.6120 -0.1591
17670TIP3    H174501   2.193   3.232   2.085 -1.5315  0.3192  0.7596
17670TIP3    H274502   2.241   3.370   2.045  0.0067 -0.5142 -0.3284
17671TIP3   OH274503   4.897   2.418   4.025  0.5979 -0.0095  0.2254
17671TIP3    H174504   4.809   2.428   4.063  0.0200  0.2041 -1.1482
17671TIP3    H274505   4.956   2.416   4.101 -0.3747  2.1178  1.0645
17672TIP3   OH274506   5.999   0.358   1.525  0.3038  0.3550  0.4509
17672TIP3    H174507   5.942   0.298   1.574 -1.2188 -1.2112 -3.0726
17672TIP3    H274508   6.086   0.319   1.532 -0.3487 -1.2538 -0.1981
17673TIP3   OH274509   0.949   3.743   3.264  0.0066  0.2241  0.2459
17673TIP3    H174510   0.901   3.661   3.258  0.8242 -0.1552 -1.1249
17673TIP3    H274511   0.881   3.811   3.260 -0.5389 -0.3426 -0.1692
17674TIP3   OH274512   4.026   2.007   3.434 -0.1269 -0.2144 -0.1525
17674TIP3    H174513   3.982   1.925   3.461  0.1542 -0.3189 -0.0103
17674TIP3    H274514   4.011   2.066   3.508 -0.6387 -0.0216 -0.4087
17675TIP3   OH274515   1.079   6.705  11.505 -0.0064 -0.8656  0.5284
17675TIP3    H174516   1.008   6.764  11.478 -1.0716 -0.4103  4.1204
17675TIP3    H274517   1.147   6.762  11.540  0.8845 -1.5120 -0.0982
17676TIP3   OH274518   4.420   3.971   5.406  0.0192 -0.1382 -0.4607
17676TIP3    H174519   4.499   4.005   5.449 -0.6376 -0.5960  1.1750
17676TIP3    H274520   4.364   4.048   5.394  0.2845  0.0245 -0.6593
17677TIP3   OH274521   2.285   6.799  12.431 -0.4531  0.4743  0.1332
17677TIP3    H174522   2.295   6.707  12.406 -1.7642 -0.0442  1.4115
17677TIP3    H274523   2.353   6.814  12.496 -1.6488 -0.2504  1.5819
17678TIP3   OH274524   3.871   6.805   5.083  0.4685 -0.2426  0.6174
17678TIP3    H174525   3.825   6.813   5.000  1.3892  0.9581  0.2051
17678TIP3    H274526   3.803   6.789   5.148 -0.3138 -0.5704 -0.2804
17679TIP3   OH274527   3.040   6.072   4.463  0.5006  0.3241  0.4004
17679TIP3    H174528   3.031   6.096   4.371 -0.2912 -0.2327  0.3301
17679TIP3    H274529   3.019   5.979   4.467  0.4211  0.3638  1.1566
17680TIP3   OH274530   1.666   4.376  12.449 -0.1672 -0.0583  0.1787
17680TIP3    H174531   1.583   4.386  12.497 -1.0772  0.0663 -1.3877
17680TIP3    H274532   1.670   4.283  12.428  0.6123 -0.2536  1.1252
17681TIP3   OH274533   3.789   6.313  13.704  0.3831  0.5332  0.2222
17681TIP3    H174534   3.846   6.296  13.629 -1.5974 -0.0407 -1.2058
17681TIP3    H274535   3.734   6.236  13.710 -1.6487  1.9494  0.2537
17682TIP3   OH274536   1.524   1.984  13.487  0.2598  0.4604  0.3659
17682TIP3    H174537   1.569   2.008  13.406  0.1139 -0.0494  0.1319
17682TIP3    H274538   1.589   1.934  13.536 -0.7013 -2.1000 -0.8892
17683TIP3   OH274539   2.031   1.595   5.743 -0.3678  0.0896 -0.4252
17683TIP3    H174540   2.091   1.533   5.785 -0.3696  0.5209  0.2211
17683TIP3    H274541   1.986   1.638   5.816 -3.1707 -1.8809 -0.8999
17684TIP3   OH274542   0.938   2.747   6.593  0.3822  0.6762  0.3723
17684TIP3    H174543   0.934   2.806   6.668 -1.1700 -0.4330  1.1661
17684TIP3    H274544   0.850   2.749   6.555  0.1850 -1.4666  0.6660
17685TIP3   OH274545   4.354   6.032   3.694 -0.3839  0.1723  1.0048
17685TIP3    H174546   4.334   5.955   3.746  1.9432 -0.2149  1.3663
17685TIP3    H274547   4.396   5.998   3.616  0.9979  1.0915  1.3372
17686TIP3   OH274548   0.526   1.592   4.129 -0.3016 -0.2146  0.1359
17686TIP3    H174549   0.598   1.654   4.117  0.5059 -1.3797 -1.2452
17686TIP3    H274550   0.451   1.646   4.154  0.7270  1.1651  0.2502
17687TIP3   OH274551   5.248   5.154  16.363  0.2397  0.2738 -0.1434
17687TIP3    H174552   5.178   5.094  16.389 -0.1913  0.9685  0.3041
17687TIP3    H274553   5.328   5.102  16.368 -0.4109 -0.9447 -2.0668
17688TIP3   OH274554   2.202   5.381   3.120 -0.1383  0.5040  0.2384
17688TIP3    H174555   2.197   5.459   3.175 -0.3641  1.8540 -1.6429
17688TIP3    H274556   2.195   5.308   3.181 -2.1897  1.9798  1.8269
17689TIP3   OH274557   4.357   1.325   4.204  0.1050  0.4204 -0.3275
17689TIP3    H174558   4.326   1.286   4.286  1.1101  0.3782  0.0333
17689TIP3    H274559   4.341   1.418   4.215  0.5089  0.4481  0.0358
17690TIP3   OH274560   3.834   1.927  11.788 -0.0785  0.2103  0.2287
17690TIP3    H174561   3.907   1.872  11.759 -0.5105  0.2875 -1.0442
17690TIP3    H274562   3.858   2.015  11.760 -0.8808  0.1602 -0.6272
17691TIP3   OH274563   4.493   6.355  12.450 -0.7523 -0.2670 -0.3555
17691TIP3    H174564   4.400   6.345  12.468 -0.9064 -0.1223 -1.0793
17691TIP3    H274565   4.517   6.437  12.493 -1.1450  0.1405 -0.9193
17692TIP3   OH274566   3.976   0.395   5.470  0.6230  0.1640  0.4687
17692TIP3    H174567   4.037   0.468   5.459 -0.2816  0.7871 -0.6424
17692TIP3    H274568   4.014   0.341   5.538  0.5277  2.5480  2.4842
17693TIP3   OH274569   6.621   3.938  14.774 -0.1274  0.0722 -0.4161
17693TIP3    H174570   6.649   4.021  14.734  1.7903 -0.5922 -0.4834
17693TIP3    H274571   6.633   3.951  14.868  2.1234 -0.7950 -0.5466
17694TIP3   OH274572   6.671   1.435  14.874 -0.0026  0.1330 -0.9557
17694TIP3    H174573   6.588   1.386  14.873  1.5959 -2.7459  0.6067
17694TIP3    H274574   6.692   1.444  14.967  2.1890 -0.5249 -1.3616
17695TIP3   OH274575   5.429   0.217  11.715 -0.8151  0.4202  1.1577
17695TIP3    H174576   5.369   0.289  11.692  1.6915  1.7359 -1.5554
17695TIP3    H274577   5.400   0.144  11.661 -0.4458  0.8358  0.3853
17696TIP3   OH274578   4.527   5.014  11.896  0.5365 -0.2192 -0.1192
17696TIP3    H174579   4.550   4.941  11.953 -0.1502 -0.5096 -0.2090
17696TIP3    H274580   4.493   4.972  11.817 -0.9928  0.2062  0.3048
17697TIP3   OH274581   0.678   4.350   2.697 -0.4167  0.2807 -0.0853
17697TIP3    H174582   0.729   4.294   2.638  1.0286  0.7513  0.6793
17697TIP3    H274583   0.692   4.439   2.664 -0.5040  0.4401  0.3008
17698TIP3   OH274584   2.760   5.172   3.772 -0.3850 -0.3690 -0.2558
17698TIP3    H174585   2.763   5.121   3.691  0.0130 -3.0218  1.3680
17698TIP3    H274586   2.848   5.206   3.782 -0.1325 -0.9706 -0.3888
17699TIP3   OH274587   1.830   5.320   0.986 -0.4485 -0.9214 -0.3602
17699TIP3    H174588   1.803   5.307   0.895 -0.7838 -1.5604 -0.1725
17699TIP3    H274589   1.899   5.255   1.000 -0.7665 -1.1760  0.0019
17700TIP3   OH274590   3.737   4.392   2.396 -0.0316 -0.1650 -0.1702
17700TIP3    H174591   3.825   4.429   2.387 -0.0281  0.1102  0.8650
17700TIP3    H274592   3.751   4.303   2.430 -0.1735  0.1440  0.7170
17701TIP3   OH274593   6.531   4.417  12.042  0.2254 -0.1615 -0.3697
17701TIP3    H174594   6.446   4.440  12.003 -0.6472 -0.2489  1.4113
17701TIP3    H274595   6.516   4.331  12.082  0.8355  0.2851  0.8505
17702TIP3   OH274596   4.471   3.444   4.178  0.8365 -0.2127 -0.4714
17702TIP3    H174597   4.559   3.473   4.201  1.2676 -1.1564 -0.8980
17702TIP3    H274598   4.448   3.496   4.101  0.5206  0.9194  0.3828
17703TIP3   OH274599   4.365   4.872   5.832  1.0048  0.1312  0.0673
17703TIP3    H174600   4.428   4.823   5.885  1.6512  2.4726  1.5236
17703TIP3    H274601   4.417   4.939   5.789 -0.5502  2.4231  1.6807
17704TIP3   OH274602   1.149   0.481   3.160 -0.5934 -0.1545  0.6240
17704TIP3    H174603   1.228   0.534   3.168 -1.9020  1.6000  2.5505
17704TIP3    H274604   1.125   0.460   3.251 -0.9464 -2.8237 -0.0322
17705TIP3   OH274605   3.532   6.356   4.146 -0.4790 -0.3646  0.5192
17705TIP3    H174606   3.523   6.264   4.123  0.7828 -0.6869  1.2582
17705TIP3    H274607   3.615   6.361   4.195 -0.6745  1.1029  0.7382
17706TIP3   OH274608   4.057   2.935  11.787 -0.5314 -0.2083  0.0876
17706TIP3    H174609   4.099   3.006  11.836 -0.2257 -0.2282 -0.1411
17706TIP3    H274610   3.968   2.930  11.823 -0.5436  0.2685  0.1277
17707TIP3   OH274611   6.125   3.785  17.285  0.0221 -0.0200 -0.1510
17707TIP3    H174612   6.091   3.815  17.201  0.6171 -0.5114 -0.5726
17707TIP3    H274613   6.162   3.864  17.326 -0.7029  0.3098 -0.1360
17708TIP3   OH274614   3.812   4.567   0.240  0.4309 -0.1984  0.7772
17708TIP3    H174615   3.747   4.565   0.310 -0.8010 -2.3233 -0.3725
17708TIP3    H274616   3.813   4.658   0.210 -1.1854  0.0939  1.5664
17709TIP3   OH274617   5.192   4.097  13.796  0.1772  0.5026  0.1717
17709TIP3    H174618   5.211   4.189  13.781  0.0452  0.2610 -1.5797
17709TIP3    H274619   5.168   4.092  13.888 -0.8407  2.3890  0.0252
17710TIP3   OH274620   1.788   6.026  10.802 -0.5391 -0.0389 -0.1901
17710TIP3    H174621   1.873   6.043  10.762 -0.5817 -0.8955 -0.6527
17710TIP3    H274622   1.778   5.931  10.798 -2.1968  0.1751 -1.5172
17711TIP3   OH274623   5.727   4.150  13.141 -0.5107  0.0872  0.5256
17711TIP3    H174624   5.813   4.109  13.147  0.3704  1.7163 -0.6476
17711TIP3    H274625   5.689   4.112  13.062 -1.0149 -0.8562  1.2053
17712TIP3   OH274626   2.744   0.276  11.857 -0.0238  0.0033  0.4710
17712TIP3    H174627   2.748   0.184  11.885  0.8019 -0.0741  0.1386
17712TIP3    H274628   2.666   0.282  11.803  1.2485 -1.1193 -1.5723
17713TIP3   OH274629   0.666   3.633   0.111  0.1324 -0.3239  0.1636
17713TIP3    H174630   0.751   3.620   0.154  0.2216  0.5847  0.2735
17713TIP3    H274631   0.640   3.722   0.136 -1.1496 -0.8252  0.6475
17714TIP3   OH274632   0.453   3.807   6.322 -0.1366 -0.0632  0.2297
17714TIP3    H174633   0.454   3.842   6.233 -2.0615 -0.2252  0.1307
17714TIP3    H274634   0.387   3.738   6.320  1.0305 -1.2535  1.3575
17715TIP3   OH274635   2.397   2.637  11.989  0.0249 -0.5930  0.6390
17715TIP3    H174636   2.435   2.715  12.030  0.7360 -0.6423  0.0786
17715TIP3    H274637   2.411   2.567  12.052  2.8335 -1.0902 -0.4230
17716TIP3   OH274638   3.144   5.397  12.826  0.1201  0.5492  0.3442
17716TIP3    H174639   3.052   5.378  12.842  0.0448 -0.3274 -1.1369
17716TIP3    H274640   3.191   5.333  12.879 -0.1285 -0.1952 -0.3326
17717TIP3   OH274641   1.195   0.233  13.007  0.5229 -0.9119  0.0801
17717TIP3    H174642   1.274   0.192  12.972  1.8400 -0.8649  2.8349
17717TIP3    H274643   1.155   0.165  13.061 -0.1798 -0.2585  0.3934
17718TIP3   OH274644   0.200   1.113   5.495 -0.1154  0.2410 -0.2141
17718TIP3    H174645   0.242   1.159   5.568 -2.1938  1.9419 -0.0376
17718TIP3    H274646   0.271   1.068   5.451  1.6510  1.7794  0.9977
17719TIP3   OH274647   1.589   2.998   3.911 -0.4261  0.4348 -0.5827
17719TIP3    H174648   1.664   2.986   3.853 -0.7563  0.1791 -0.9620
17719TIP3    H274649   1.627   3.020   3.996  0.0727  0.4067 -0.7987
17720TIP3   OH274650   2.147   5.246   3.370  0.5718 -0.7803  0.1569
17720TIP3    H174651   2.063   5.282   3.398  0.3165 -0.5420 -0.9057
17720TIP3    H274652   2.205   5.258   3.446  0.5853  2.2066 -0.2845
17721TIP3   OH274653   2.473   6.078  15.258 -0.0152  0.1312  0.4896
17721TIP3    H174654   2.470   6.001  15.314  2.9890  0.4251  1.1472
17721TIP3    H274655   2.389   6.077  15.211 -1.3224 -1.7751  2.7448
17722TIP3   OH274656   3.440   5.949  14.503  0.1434  0.1646 -0.2906
17722TIP3    H174657   3.354   5.912  14.526  0.3347 -0.9630 -1.3410
17722TIP3    H274658   3.441   6.035  14.545 -1.0197 -0.3063  0.7341
17723TIP3   OH274659   0.264   4.159   4.839 -0.1336 -0.6233  0.4754
17723TIP3    H174660   0.218   4.191   4.761  0.2998  1.4434  1.0605
17723TIP3    H274661   0.356   4.156   4.813 -0.2228 -2.0302  0.2366
17724TIP3   OH274662   5.571   2.202  13.742 -0.4005 -0.5315  0.1743
17724TIP3    H174663   5.533   2.124  13.701  0.3161 -0.7907 -0.0095
17724TIP3    H274664   5.664   2.195  13.724 -0.4000  0.6688 -0.3186
17725TIP3   OH274665   5.635   3.086   0.081  0.0290  0.0396  0.3246
17725TIP3    H174666   5.587   3.033   0.145  0.8158  0.1981  1.0598
17725TIP3    H274667   5.703   3.027   0.048  0.2113  0.2556  0.3221
17726TIP3   OH274668   1.812   3.201  12.066 -0.8467 -0.4282  0.5606
17726TIP3    H174669   1.841   3.115  12.035 -1.6292  0.4148 -2.7516
17726TIP3    H274670   1.883   3.232  12.122  0.9826 -1.8308 -0.9124
17727TIP3   OH274671   1.266   3.429  11.533 -0.0501 -0.5421  0.5105
17727TIP3    H174672   1.293   3.367  11.465 -0.0683  0.9444 -0.8605
17727TIP3    H274673   1.189   3.388  11.572  1.0466 -2.2978  0.9222
17728TIP3   OH274674   5.941   6.121  16.125  0.2325  0.1263  0.4389
17728TIP3    H174675   5.853   6.142  16.093  1.8213  2.5672 -2.6252
17728TIP3    H274676   5.961   6.190  16.188  0.6282  0.6421 -0.2440
17729TIP3   OH274677   2.291   1.644   0.110 -0.1055 -0.3720  0.3520
17729TIP3    H174678   2.366   1.656   0.052  0.1207  0.1112  0.7483
17729TIP3    H274679   2.329   1.633   0.197 -0.4535 -0.9115  0.4407
17730TIP3   OH274680   1.049   6.629   5.153 -0.2710 -0.3619  0.4866
17730TIP3    H174681   1.032   6.550   5.102 -1.5178 -0.2724  0.7491
17730TIP3    H274682   0.963   6.670   5.163  0.4258  1.2703 -0.0307
17731TIP3   OH274683   5.261   2.724  14.685 -0.6458 -0.0023  1.0020
17731TIP3    H174684   5.332   2.777  14.721  1.0706 -0.6602 -1.2712
17731TIP3    H274685   5.261   2.744  14.591 -0.7484 -3.0763  0.2889
17732TIP3   OH274686   0.945   4.976  12.400  0.2230  0.1692 -0.0403
17732TIP3    H174687   0.924   4.888  12.369 -0.6096  0.7219 -1.0367
17732TIP3    H274688   0.875   4.997  12.461  0.5025  0.0901  0.3117
17733TIP3   OH274689   5.842   3.320   4.177  0.3178 -0.8692  0.2785
17733TIP3    H174690   5.934   3.295   4.169  0.6429  0.6927 -0.8579
17733TIP3    H274691   5.844   3.408   4.214 -0.7347 -0.9104  0.4468
17734TIP3   OH274692   3.180   4.601  17.245  0.0384  0.0070  0.6098
17734TIP3    H174693   3.265   4.557  17.252  0.1187 -0.5657 -3.0638
17734TIP3    H274694   3.116   4.530  17.243 -0.2549  0.2830  0.0907
17735TIP3   OH274695   3.187   5.046  12.272 -0.3276  0.3275 -0.3136
17735TIP3    H174696   3.197   5.141  12.269 -0.5008  0.4112  1.2731
17735TIP3    H274697   3.165   5.027  12.364 -1.7465 -1.0999 -0.9293
17736TIP3   OH274698   3.286   4.868  17.139 -0.2933  0.0089 -0.4275
17736TIP3    H174699   3.213   4.917  17.178  0.5559  0.7535  0.2383
17736TIP3    H274700   3.248   4.783  17.116 -1.1420  0.0516  0.7688
17737TIP3   OH274701   6.078   0.623   2.086 -0.1657 -0.3657  0.0163
17737TIP3    H174702   6.062   0.531   2.109 -0.5276 -0.7266 -1.6145
17737TIP3    H274703   6.000   0.650   2.038  0.0323  0.7299  0.3100
17738TIP3   OH274704   6.137   1.313   5.031 -0.5250 -0.2526 -0.2717
17738TIP3    H174705   6.151   1.277   4.943  1.7784  0.3847 -0.2053
17738TIP3    H274706   6.043   1.331   5.035 -0.6303 -0.0637 -2.6896
17739TIP3   OH274707   5.267   6.204  13.753  0.0570 -0.2222  0.1708
17739TIP3    H174708   5.310   6.123  13.781 -0.6695 -0.1287  1.6079
17739TIP3    H274709   5.221   6.179  13.672  1.0815 -0.8505 -0.2255
17740TIP3   OH274710   0.223   4.091  13.905 -0.2042  0.4151  0.0959
17740TIP3    H174711   0.130   4.113  13.901 -0.2096  0.4346  0.3217
17740TIP3    H274712   0.228   4.016  13.964 -0.0653  0.4821  0.1709
17741TIP3   OH274713   6.457   6.245   3.297 -0.3383 -0.0258  0.6096
17741TIP3    H174714   6.384   6.265   3.356 -1.2387 -1.5784  0.0314
17741TIP3    H274715   6.483   6.156   3.320  1.9595  0.7857  1.3874
17742TIP3   OH274716   0.808   4.225   5.147 -0.2621 -0.3018  1.0190
17742TIP3    H174717   0.784   4.298   5.205  0.4924  0.8479 -0.0787
17742TIP3    H274718   0.881   4.182   5.192  0.7002  0.9367  0.6882
17743TIP3   OH274719   4.533   5.137   4.925  0.6611 -0.0484  0.1276
17743TIP3    H174720   4.543   5.232   4.918  0.3869 -0.0668 -0.6394
17743TIP3    H274721   4.609   5.102   4.877  0.2057 -0.2049 -0.4916
17744TIP3   OH274722   2.938   1.734  14.781  0.1833 -0.1387  0.2068
17744TIP3    H174723   2.895   1.665  14.831 -1.3977  0.8329  0.2375
17744TIP3    H274724   2.887   1.741  14.701  3.0976 -2.1303 -1.9103
17745TIP3   OH274725   3.568   3.660   5.897  0.2574 -1.1451 -0.7864
17745TIP3    H174726   3.525   3.649   5.982 -0.1566  2.1580 -0.4685
17745TIP3    H274727   3.661   3.663   5.918  0.0755  1.3885 -0.1573
17746TIP3   OH274728   0.489   2.223  11.082 -0.2791  0.3191 -0.2336
17746TIP3    H174729   0.405   2.258  11.054  0.0717  1.7941  0.5307
17746TIP3    H274730   0.553   2.289  11.055  0.4717 -0.0797  0.5393
17747TIP3   OH274731   6.552   3.241  10.585  0.3141 -0.3285 -0.0368
17747TIP3    H174732   6.601   3.301  10.528  0.7875 -0.3104  0.3839
17747TIP3    H274733   6.477   3.292  10.615 -0.3100 -0.5598 -1.1971
17748TIP3   OH274734   5.345   4.492   4.824 -0.2342  0.5642 -0.1960
17748TIP3    H174735   5.257   4.505   4.787 -1.4109 -1.6705  1.6945
17748TIP3    H274736   5.330   4.447   4.907  2.6831  0.7186  0.4763
17749TIP3   OH274737   5.539   1.459   0.117 -0.5843 -0.1864  0.5246
17749TIP3    H174738   5.577   1.537   0.075  1.1416  0.5081  3.2701
17749TIP3    H274739   5.573   1.386   0.066 -1.2730  0.7472 -1.3564
17750TIP3   OH274740   1.996   5.856   4.433 -0.3068 -0.0582 -0.0462
17750TIP3    H174741   1.926   5.809   4.387  1.3782 -0.6710 -2.0360
17750TIP3    H274742   1.975   5.843   4.526 -3.0115  0.0622 -0.5917
17751TIP3   OH274743   1.033   1.592   3.106 -0.0308 -0.4229 -0.1966
17751TIP3    H174744   1.030   1.536   3.028 -0.8034  0.2576 -0.6740
17751TIP3    H274745   1.028   1.532   3.180 -0.6541 -1.0024 -0.6982
17752TIP3   OH274746   4.926   1.715   3.192 -0.1340 -0.0867  0.1510
17752TIP3    H174747   4.848   1.706   3.137 -2.4100 -0.8523  3.2755
17752TIP3    H274748   4.927   1.807   3.218  0.0854 -0.0394 -0.0281
17753TIP3   OH274749   1.903   4.528  12.528 -0.8463  0.0615  0.4549
17753TIP3    H174750   1.958   4.516  12.605  0.4290  2.6524 -0.0071
17753TIP3    H274751   1.829   4.468  12.542  0.9617 -1.8640  2.1104
17754TIP3   OH274752   4.844   2.627   4.253  0.6995 -0.3276  0.0045
17754TIP3    H174753   4.824   2.711   4.211 -0.4505  0.0949  1.3691
17754TIP3    H274754   4.782   2.620   4.325  1.4212 -1.9146  0.5087
17755TIP3   OH274755   0.010   0.553  12.456 -0.3603  0.3257 -0.4191
17755TIP3    H174756   0.096   0.580  12.422 -0.1974 -0.2268 -0.4544
17755TIP3    H274757  -0.039   0.526  12.378  0.2814 -1.6847 -0.1635
17756TIP3   OH274758   6.546   6.403  16.197  0.8158 -0.7137 -0.3483
17756TIP3    H174759   6.593   6.321  16.180  0.1439 -1.5572  1.7229
17756TIP3    H274760   6.469   6.398  16.140  0.7720 -1.5328 -0.2307
17757TIP3   OH274761   4.846   0.348  12.835 -0.3416  0.3059 -0.5226
17757TIP3    H174762   4.919   0.383  12.786 -0.3362  0.0293 -0.7112
17757TIP3    H274763   4.800   0.425  12.869  0.1530  0.4708 -0.2317
17758TIP3   OH274764   2.999   1.725   0.556 -0.3916  0.5852  1.1333
17758TIP3    H174765   3.029   1.810   0.524 -0.2685 -0.5234 -1.8561
17758TIP3    H274766   3.074   1.690   0.605  0.9282  0.6643 -0.7462
17759TIP3   OH274767   0.203   0.027  11.079 -0.0647  0.0590  0.6335
17759TIP3    H174768   0.248   0.080  11.013 -0.2064  1.7869  1.8743
17759TIP3    H274769   0.208  -0.063  11.046 -0.1370  0.8807 -1.7040
17760TIP3   OH274770   0.538   4.110   0.420 -0.5139 -0.2466 -0.2710
17760TIP3    H174771   0.574   4.188   0.379  1.5441 -0.0699  1.7432
17760TIP3    H274772   0.613   4.070   0.465 -1.8286 -2.6099 -0.1172
17761TIP3   OH274773   6.230   0.163   2.801 -0.0041  0.6311 -0.2044
17761TIP3    H174774   6.192   0.186   2.886 -1.0407 -0.3661 -0.3731
17761TIP3    H274775   6.188   0.080   2.779  2.0118 -0.3127 -0.6006
17762TIP3   OH274776   2.509   5.818  13.218  0.2837  0.0519  0.1486
17762TIP3    H174777   2.479   5.833  13.129 -1.8561 -0.1743  0.8082
17762TIP3    H274778   2.470   5.735  13.244  1.7382 -0.4095  0.9481
17763TIP3   OH274779   2.716   6.244   0.124  0.7882 -0.4085  0.0478
17763TIP3    H174780   2.740   6.305   0.055  2.9759  1.4600  2.3529
17763TIP3    H274781   2.662   6.295   0.184  1.5958 -1.0877  1.3755
17764TIP3   OH274782   4.424   4.197   3.803 -0.6207 -0.1541 -0.2676
17764TIP3    H174783   4.440   4.115   3.851  0.3426 -0.4434 -1.0669
17764TIP3    H274784   4.353   4.240   3.851 -0.5928 -1.0891  0.6153
17765TIP3   OH274785   6.572   5.673   4.579  0.1124 -0.0643  0.5045
17765TIP3    H174786   6.618   5.612   4.637  0.0982  1.1822  1.8514
17765TIP3    H274787   6.479   5.655   4.593  0.1152 -0.0017  0.5980
17766TIP3   OH274788   5.747   4.300  16.216 -0.5375  0.3457  0.2634
17766TIP3    H174789   5.678   4.333  16.272 -1.4599  0.3621 -0.8680
17766TIP3    H274790   5.784   4.378  16.174  1.1335  0.4874  1.9250
17767TIP3   OH274791   5.464   1.479   6.254 -0.0987 -0.2853 -0.4326
17767TIP3    H174792   5.498   1.435   6.177 -0.3319  1.1680 -1.4009
17767TIP3    H274793   5.448   1.569   6.224 -1.5705 -0.0856  0.9086
17768TIP3   OH274794   3.621   4.195  11.328  0.1699 -0.5580  0.2292
17768TIP3    H174795   3.558   4.138  11.372  0.4946 -2.4617 -1.7034
17768TIP3    H274796   3.598   4.283  11.358 -0.9390 -1.5874  2.5338
17769TIP3   OH274797   1.109   0.083  13.516 -0.6429 -0.0042  0.0617
17769TIP3    H174798   1.130   0.003  13.469 -1.5932 -2.0476  2.9476
17769TIP3    H274799   1.183   0.094  13.577 -0.1373  1.7660 -0.8541
17770TIP3   OH274800   3.197   4.792  14.631  0.2217 -0.2137 -0.1299
17770TIP3    H174801   3.164   4.718  14.681  0.9473 -0.9884 -0.7886
17770TIP3    H274802   3.142   4.794  14.552  1.2971 -1.0985 -0.9124
17771TIP3   OH274803   3.146   1.368  16.497  0.0261  0.7077  0.0840
17771TIP3    H174804   3.230   1.328  16.478 -0.3727 -0.9661  1.6913
17771TIP3    H274805   3.085   1.327  16.434 -0.2477 -0.7214  1.2626
17772TIP3   OH274806   3.267   6.448  11.951  0.1619  0.1399  0.6319
17772TIP3    H174807   3.237   6.358  11.958 -0.4386  0.3706  1.1168
17772TIP3    H274808   3.189   6.501  11.970  0.3318  0.7616 -0.3759
17773TIP3   OH274809   2.610   3.834   1.424 -0.6604  0.3379 -0.2785
17773TIP3    H174810   2.586   3.743   1.408  0.4010  0.3246 -1.8948
17773TIP3    H274811   2.534   3.872   1.468 -1.6448 -0.9611 -0.8570
17774TIP3   OH274812   5.125   3.773   2.979 -0.4555  0.0041 -0.2232
17774TIP3    H174813   5.158   3.863   2.976 -1.6457  0.4651  0.2012
17774TIP3    H274814   5.198   3.722   3.014 -0.1474  0.9762  0.5854
17775TIP3   OH274815   1.891   6.396  16.070  0.8545  0.0422 -0.1275
17775TIP3    H174816   1.970   6.450  16.068  1.0146 -0.2342 -1.6982
17775TIP3    H274817   1.924   6.306  16.072  0.5717 -0.0555  0.6456
17776TIP3   OH274818   0.353   1.976  14.326 -0.1402 -0.1934  0.1781
17776TIP3    H174819   0.405   1.897  14.340 -2.2001 -1.9303 -1.5976
17776TIP3    H274820   0.283   1.971  14.392 -0.3816  0.0675 -0.0571
17777TIP3   OH274821   3.880   4.239   1.229 -0.2118 -0.0706  0.7964
17777TIP3    H174822   3.911   4.317   1.276  0.0294  1.0079 -1.1364
17777TIP3    H274823   3.818   4.272   1.164  0.7609 -1.3755 -0.8284
17778TIP3   OH274824   0.071   0.637   0.398  0.1745 -0.4928  0.5821
17778TIP3    H174825   0.056   0.571   0.330 -0.7714  2.3172 -2.0299
17778TIP3    H274826   0.044   0.593   0.479 -0.4316 -3.3067 -1.0513
17779TIP3   OH274827   3.792   2.190   5.564 -0.4887  0.3357  0.2974
17779TIP3    H174828   3.737   2.267   5.578 -0.6423  0.0749  1.2108
17779TIP3    H274829   3.746   2.119   5.610 -0.2938 -0.2779 -0.4361
17780TIP3   OH274830   5.836   2.346   5.643 -0.1710 -0.0308  0.1904
17780TIP3    H174831   5.837   2.317   5.734  1.0243  0.1051  0.2280
17780TIP3    H274832   5.749   2.322   5.611 -0.2763 -0.9048  1.0998
17781TIP3   OH274833   6.473   0.224   3.967  0.0588 -0.1665  0.6025
17781TIP3    H174834   6.418   0.280   3.912 -0.0100  0.3610  1.1969
17781TIP3    H274835   6.562   0.258   3.955  0.0317  0.0048  0.8810
17782TIP3   OH274836   2.672   0.680  16.321  0.6073  0.2467 -0.6498
17782TIP3    H174837   2.583   0.702  16.347  0.5821 -1.0131  0.3859
17782TIP3    H274838   2.694   0.602  16.373  2.9709  1.5990  0.5032
17783TIP3   OH274839   2.559   1.385   5.527  0.5386  0.1145 -0.6103
17783TIP3    H174840   2.528   1.303   5.565  0.4608  0.3537 -0.1520
17783TIP3    H274841   2.654   1.379   5.533  0.4944  1.1321  1.7564
17784TIP3   OH274842   4.499   5.585   3.197 -0.0242  0.5954 -0.3246
17784TIP3    H174843   4.449   5.637   3.134  0.8587  1.9966  0.1162
17784TIP3    H274844   4.559   5.647   3.238  1.7656 -0.9643 -0.5015
17785TIP3   OH274845   2.923   5.455  14.302 -0.0322 -0.2177  0.0145
17785TIP3    H174846   3.009   5.495  14.296  0.2657 -1.0505 -1.6341
17785TIP3    H274847   2.940   5.365  14.332 -0.4150 -0.1028  0.5975
17786TIP3   OH274848   0.117   0.765  13.553 -0.0770  0.2775 -0.1735
17786TIP3    H174849   0.029   0.740  13.582 -0.1527  1.5655  0.7972
17786TIP3    H274850   0.171   0.755  13.632  0.9667 -1.9295 -1.1409
17787TIP3   OH274851   3.440   1.245   2.199  0.0417 -0.6037  0.0088
17787TIP3    H174852   3.359   1.289   2.222 -0.5020 -0.3822 -2.2783
17787TIP3    H274853   3.444   1.171   2.259 -0.8768  0.4640  1.4172
17788TIP3   OH274854   1.223   4.290  11.792  0.4281 -0.0124  0.1380
17788TIP3    H174855   1.156   4.246  11.740  0.0801 -0.7341  1.1910
17788TIP3    H274856   1.301   4.234  11.782 -0.0023 -0.8583  1.4419
17789TIP3   OH274857   5.038   1.787   2.916 -0.0797 -0.5529 -0.0329
17789TIP3    H174858   4.962   1.806   2.970 -1.0193 -1.1045 -1.1332
17789TIP3    H274859   5.047   1.863   2.859  0.4007 -0.3370  0.3305
17790TIP3   OH274860   2.176   6.056  13.123  0.2935  0.3121 -0.2052
17790TIP3    H174861   2.170   6.132  13.181  2.5800  0.5556 -0.2528
17790TIP3    H274862   2.254   6.073  13.070 -0.4439 -1.0226 -1.7491
17791TIP3   OH274863   4.409   0.881   3.706 -0.3269 -0.7242 -0.3838
17791TIP3    H174864   4.475   0.922   3.761 -0.0174  0.4729 -1.6084
17791TIP3    H274865   4.383   0.950   3.645 -2.0911 -1.4403 -0.4557
17792TIP3   OH274866   5.947   4.536   2.536  0.2059  0.4355  0.1605
17792TIP3    H174867   5.902   4.519   2.454  1.2173  2.9171 -0.9700
17792TIP3    H274868   5.914   4.469   2.596 -0.2491 -1.6606 -2.3470
17793TIP3   OH274869   4.830   3.908   5.762  0.0200  0.2295  0.1422
17793TIP3    H174870   4.810   3.992   5.804 -0.6010  1.0848 -1.7832
17793TIP3    H274871   4.925   3.908   5.751 -0.0240  0.8958 -0.2687
17794TIP3   OH274872   0.010   0.267   3.771  0.2455  0.1139 -0.3387
17794TIP3    H174873  -0.001   0.189   3.826  3.9727 -0.4677 -0.2876
17794TIP3    H274874  -0.029   0.338   3.823  0.6020 -1.0047  1.5147
17795TIP3   OH274875   0.037   1.329   1.154 -0.8567  0.0644 -0.2221
17795TIP3    H174876   0.041   1.236   1.173 -0.3773  0.1258 -0.0160
17795TIP3    H274877   0.057   1.335   1.060 -1.1963 -0.0600 -0.3070
17796TIP3   OH274878   4.068   6.543   5.411 -0.5021  0.1817 -0.7430
17796TIP3    H174879   4.103   6.619   5.364 -0.3409 -0.0073 -0.9276
17796TIP3    H274880   4.145   6.495   5.441 -0.5481  1.9496  2.4667
17797TIP3   OH274881   0.974   0.007   1.963 -0.0654  0.6140 -0.0798
17797TIP3    H174882   1.057  -0.039   1.968 -0.9588 -0.9528  0.9932
17797TIP3    H274883   0.990   0.091   2.008  1.1302  0.6469 -0.5718
17798TIP3   OH274884   5.910   4.265   5.679  0.3641  0.1796  0.1014
17798TIP3    H174885   5.917   4.327   5.607 -0.7948  0.4568  0.2208
17798TIP3    H274886   5.836   4.296   5.731  1.8068  0.5755  1.9987
17799TIP3   OH274887   3.750   4.611   2.904 -0.4020 -0.4622 -0.7449
17799TIP3    H174888   3.740   4.707   2.904 -2.8161 -0.6697 -1.1297
17799TIP3    H274889   3.748   4.587   2.811 -1.6387 -1.0278 -0.5801
17800TIP3   OH274890   3.477   6.156   4.452  0.1098 -0.1545  0.0806
17800TIP3    H174891   3.491   6.134   4.360  0.5162  1.1116 -0.1710
17800TIP3    H274892   3.448   6.247   4.451  0.3872 -0.0375  1.2251
17801TIP3   OH274893   2.803   2.365   2.093 -1.3620  0.5661 -0.0177
17801TIP3    H174894   2.744   2.296   2.123  0.6814 -0.5504  1.5263
17801TIP3    H274895   2.829   2.411   2.172  0.4560  0.5530 -0.5847
17802TIP3   OH274896   6.138   0.128  15.210  0.0731 -0.5494  0.7173
17802TIP3    H174897   6.142   0.210  15.258  0.2039  1.1539 -2.0901
17802TIP3    H274898   6.229   0.099  15.204  0.1716 -0.2015  0.5491
17803TIP3   OH274899   0.022   2.783  11.460 -0.2763 -0.3282 -0.0410
17803TIP3    H174900   0.111   2.786  11.427 -0.4433 -0.8449 -0.5355
17803TIP3    H274901  -0.031   2.821  11.390 -0.5693 -0.9742 -0.1664
17804TIP3   OH274902   0.246   5.632  11.854  0.0684 -0.2392  0.0860
17804TIP3    H174903   0.174   5.655  11.795  0.6224  0.8805 -0.1731
17804TIP3    H274904   0.325   5.640  11.800  0.4041 -1.3460  0.3976
17805TIP3   OH274905   5.607   3.189   3.674 -0.5910 -0.2624  0.0333
17805TIP3    H174906   5.593   3.121   3.608 -0.4528  0.8326 -1.1452
17805TIP3    H274907   5.651   3.260   3.627  0.6529  0.0373  1.5892
17806TIP3   OH274908   6.046   2.619  17.213  0.0920  0.6429  0.7505
17806TIP3    H174909   6.129   2.573  17.207  0.8720  1.9406  1.2482
17806TIP3    H274910   6.070   2.711  17.228 -1.4263  0.9697  1.3883
17807TIP3   OH274911   0.406   3.330   1.474  0.1812 -0.5748  0.8327
17807TIP3    H174912   0.335   3.272   1.445  0.6623 -1.3305  1.1443
17807TIP3    H274913   0.414   3.395   1.404  0.1150 -1.3015  0.1376
17808TIP3   OH274914   0.358   4.304   1.616  0.3002 -0.2261 -0.2177
17808TIP3    H174915   0.360   4.338   1.526  2.0718 -1.1523 -0.5580
17808TIP3    H274916   0.344   4.382   1.670  0.1769  0.4731 -1.2422
17809TIP3   OH274917   5.002   1.548  15.369 -0.0474  0.1955  0.3886
17809TIP3    H174918   4.967   1.465  15.335  1.8253 -1.0415  1.4101
17809TIP3    H274919   5.064   1.576  15.302 -1.0071  1.0224 -0.1671
17810TIP3   OH274920   6.696   6.195  13.911 -0.3206  0.0778  0.1602
17810TIP3    H174921   6.788   6.217  13.893 -0.0134 -0.9330  0.4596
17810TIP3    H274922   6.686   6.106  13.877 -0.9066 -0.1964  1.0392
17811TIP3   OH274923   5.328   1.702   5.505 -0.4717 -0.4729 -0.0383
17811TIP3    H174924   5.298   1.625   5.552 -1.6096 -0.1802 -0.2741
17811TIP3    H274925   5.248   1.749   5.481  0.0310 -0.9491 -2.8265
17812TIP3   OH274926   3.506   2.949   3.154  0.0671  0.3404 -0.0847
17812TIP3    H174927   3.494   2.909   3.068  0.9345 -0.7909  0.3074
17812TIP3    H274928   3.461   3.033   3.147  0.0888  0.2523 -1.6294
17813TIP3   OH274929   5.322   5.038   2.519  0.0509  0.1699  0.2755
17813TIP3    H174930   5.318   5.030   2.423  0.0229  2.2616  0.0920
17813TIP3    H274931   5.231   5.046   2.546  0.1628  1.2206  0.3325
17814TIP3   OH274932   4.496   3.921   4.487 -0.3189  0.0943 -0.1487
17814TIP3    H174933   4.427   3.856   4.474 -0.5117  0.5314 -1.3509
17814TIP3    H274934   4.577   3.871   4.487 -0.5300 -0.2472 -0.2491
17815TIP3   OH274935   1.631   4.883   2.325  0.0525  0.4848 -0.1439
17815TIP3    H174936   1.596   4.794   2.320 -1.3664  1.0189  0.1597
17815TIP3    H274937   1.703   4.876   2.388  0.1086 -0.4971 -0.3049
17816TIP3   OH274938   5.749   2.967   2.318 -0.1670  0.9239 -0.0898
17816TIP3    H174939   5.680   3.009   2.267 -0.2612  1.0862  0.1708
17816TIP3    H274940   5.724   2.874   2.320 -1.0172  1.1621  1.0076
17817TIP3   OH274941   4.217   2.352  14.667  0.8825 -0.3954  0.5839
17817TIP3    H174942   4.239   2.268  14.625 -1.4540 -0.6146 -0.3138
17817TIP3    H274943   4.144   2.386  14.615 -1.1547  0.0433  3.5762
17818TIP3   OH274944   2.911   2.774   5.622 -0.0436  0.2126  0.0078
17818TIP3    H174945   2.865   2.777   5.537 -1.5497 -1.6950  0.6971
17818TIP3    H274946   2.850   2.816   5.683  0.0874 -0.3310  0.5180
17819TIP3   OH274947   2.368   3.448   4.671 -0.5650 -0.0663 -0.2023
17819TIP3    H174948   2.360   3.535   4.709  0.2234 -0.4051  0.7838
17819TIP3    H274949   2.355   3.388   4.745  1.8911 -0.7327 -0.2541
17820TIP3   OH274950   4.770   6.161  12.967 -0.0107  0.3867 -0.1455
17820TIP3    H174951   4.731   6.143  12.882  1.0582 -1.0751 -0.3361
17820TIP3    H274952   4.765   6.078  13.015  1.1321  0.6899  0.5167
17821TIP3   OH274953   4.229   1.500   2.196  0.5629 -0.0069 -0.2500
17821TIP3    H174954   4.256   1.590   2.218  0.0608 -0.1146  0.8495
17821TIP3    H274955   4.311   1.455   2.176  0.9159  0.4446  0.1505
17822TIP3   OH274956   1.106   5.821   2.530  0.6890  0.3852 -0.4702
17822TIP3    H174957   1.093   5.916   2.532  0.5639  0.3617  1.3515
17822TIP3    H274958   1.027   5.786   2.491 -0.1062  0.9241  0.6226
17823TIP3   OH274959   5.483   4.722   4.747  0.1095  0.1082  0.0681
17823TIP3    H174960   5.433   4.650   4.786 -0.2380  0.1791 -0.2415
17823TIP3    H274961   5.468   4.712   4.653 -0.3066  0.8536  0.0536
17824TIP3   OH274962   5.768   1.917   0.479 -0.5168  0.3104 -0.3851
17824TIP3    H174963   5.795   2.008   0.482 -0.0463  0.1438  0.7234
17824TIP3    H274964   5.760   1.897   0.386 -1.9072  1.8541 -0.6009
17825TIP3   OH274965   3.608   3.182  14.266  0.4947  0.1971  0.1891
17825TIP3    H174966   3.701   3.200  14.274  0.7724 -1.1263  0.0713
17825TIP3    H274967   3.600   3.132  14.184 -0.1892 -0.5024  0.6713
17826TIP3   OH274968   1.586   4.517   6.230  0.0627  0.3392  0.1775
17826TIP3    H174969   1.587   4.423   6.248  1.0190  0.5167  1.0849
17826TIP3    H274970   1.670   4.535   6.188  0.4783  1.0072  1.2468
17827TIP3   OH274971   0.569   1.668  14.718  0.0153 -0.4764 -0.0633
17827TIP3    H174972   0.494   1.615  14.692 -0.3633 -0.0782  0.2032
17827TIP3    H274973   0.639   1.605  14.735  0.0988 -0.7741 -1.4716
17828TIP3   OH274974   2.968   2.065  13.945 -0.3486  0.0075 -0.1327
17828TIP3    H174975   2.885   2.070  13.993  0.5193 -1.3557  1.5603
17828TIP3    H274976   2.948   2.102  13.859 -2.8227 -0.6884  0.1055
17829TIP3   OH274977   1.906   5.518   5.422  0.1490  0.3919  0.4910
17829TIP3    H174978   1.817   5.542   5.448 -0.0300  0.3250 -0.0443
17829TIP3    H274979   1.961   5.544   5.495 -0.4771 -0.7387  1.3706
17830TIP3   OH274980   2.636   0.135  13.566  0.6594  0.1062 -0.1921
17830TIP3    H174981   2.661   0.106  13.478  1.0666  0.7519 -0.2913
17830TIP3    H274982   2.578   0.066  13.598 -0.1645  0.2776 -1.2904
17831TIP3   OH274983   6.449   0.361   1.295  0.5218 -0.3081 -0.1269
17831TIP3    H174984   6.522   0.300   1.281  0.0009 -0.4544 -2.4248
17831TIP3    H274985   6.374   0.305   1.315  0.5769 -0.2731  0.1808
17832TIP3   OH274986   0.976   5.686  14.750 -0.0564  0.3191 -0.2973
17832TIP3    H174987   1.056   5.665  14.701  0.4273 -1.2435  1.0899
17832TIP3    H274988   0.907   5.639  14.703 -0.1816  1.6814 -1.5073
17833TIP3   OH274989   4.526   5.412   2.836  0.3699  0.0211 -0.3167
17833TIP3    H174990   4.580   5.491   2.839  0.9682 -0.2979 -2.2286
17833TIP3    H274991   4.576   5.346   2.884  0.3187  0.5154  0.4257
17834TIP3   OH274992   3.184   2.341  15.745  0.4281 -0.9009 -0.3989
17834TIP3    H174993   3.169   2.250  15.722  0.1677 -0.4624 -2.0392
17834TIP3    H274994   3.161   2.347  15.837 -0.5100 -2.2857 -0.5325
17835TIP3   OH274995   0.263   1.228   4.368  0.5236  0.8187  0.2967
17835TIP3    H174996   0.315   1.305   4.348  0.1847  0.8377 -0.5382
17835TIP3    H274997   0.280   1.210   4.461  0.9352  1.6331  0.3776
17836TIP3   OH274998   4.491   2.940  11.600  0.1205 -0.3622 -0.6604
17836TIP3    H174999   4.438   2.930  11.521  0.5886 -0.2054 -0.9974
17836TIP3    H275000   4.458   3.020  11.641 -2.3136 -2.1898  1.0198
17837TIP3   OH275001   2.025   1.453  11.329 -0.0881 -0.1380 -0.4252
17837TIP3    H175002   1.994   1.434  11.241 -0.1534 -0.0031 -0.4323
17837TIP3    H275003   2.039   1.368  11.369 -0.1827 -0.1997 -0.5220
17838TIP3   OH275004   4.005   0.301   5.966 -0.1259 -0.1831 -0.7677
17838TIP3    H175005   3.924   0.351   5.962 -0.5741 -1.0345 -2.5878
17838TIP3    H275006   4.002   0.257   6.051 -0.4305  1.6442  0.2052
17839TIP3   OH275007   1.886   6.439   5.610  0.2853  0.0902 -0.4016
17839TIP3    H175008   1.952   6.399   5.667 -0.1916  0.1644  0.2116
17839TIP3    H275009   1.935   6.501   5.557  0.8055 -0.2825 -0.3651
17840TIP3   OH275010   3.921   4.734  15.971  0.1006 -0.4885  0.3714
17840TIP3    H175011   3.971   4.797  16.023  0.5053 -0.1020 -0.4635
17840TIP3    H275012   3.987   4.685  15.922 -0.3334  0.2317 -0.9684
17841TIP3   OH275013   3.182   5.827  11.769  0.9881 -0.4785 -0.3261
17841TIP3    H175014   3.257   5.887  11.767  2.4969 -2.3534 -0.2939
17841TIP3    H275015   3.155   5.820  11.677  1.2986 -0.3847 -0.4267
17842TIP3   OH275016   1.001   6.608  10.786 -0.1115  0.8918  0.2114
17842TIP3    H175017   1.017   6.674  10.719 -0.4295  0.4882 -0.2627
17842TIP3    H275018   1.035   6.647  10.867  1.8580  0.6762 -0.4837
17843TIP3   OH275019   1.351   4.377  17.023 -0.6742 -0.0554  0.1356
17843TIP3    H175020   1.329   4.300  17.075 -1.1748 -0.2184 -0.3148
17843TIP3    H275021   1.347   4.450  17.084 -0.3168 -0.3680  0.5357
17844TIP3   OH275022   0.851   4.717  13.374  0.0567 -0.0621 -0.4300
17844TIP3    H175023   0.920   4.726  13.309  0.4162 -2.4684 -0.4104
17844TIP3    H275024   0.873   4.637  13.423 -1.9630 -0.0899  0.4995
17845TIP3   OH275025   6.415   0.782   1.671 -0.4933  0.2835  0.0622
17845TIP3    H175026   6.393   0.862   1.718 -2.6572 -0.2173 -0.0611
17845TIP3    H275027   6.355   0.779   1.598  0.3368 -0.8822 -0.5925
17846TIP3   OH275028   2.562   2.693   5.480  0.0258 -0.1140  0.0185
17846TIP3    H175029   2.536   2.601   5.492 -4.0370  0.8073 -1.0662
17846TIP3    H275030   2.553   2.732   5.567  0.5666 -0.4252  0.2218
17847TIP3   OH275031   4.198   5.369   1.302 -0.0826 -0.5101 -0.1733
17847TIP3    H175032   4.285   5.387   1.268 -0.5317  1.0537 -0.5577
17847TIP3    H275033   4.152   5.453   1.296 -1.0531 -0.8764  1.6665
17848TIP3   OH275034   4.075   2.808  11.227  0.0516  0.4170 -0.1376
17848TIP3    H175035   4.145   2.780  11.285  0.0414  0.8502  0.0837
17848TIP3    H275036   4.118   2.859  11.158 -0.0108  0.4137 -0.1787
17849TIP3   OH275037   5.584   4.835  17.074  0.2730  0.0314  0.2897
17849TIP3    H175038   5.522   4.855  17.145  1.3838  0.6793  1.0806
17849TIP3    H275039   5.559   4.894  17.003  0.2186  0.5418  0.7330
17850TIP3   OH275040   1.105   3.483  10.651  0.3941 -0.1745  0.2101
17850TIP3    H175041   1.137   3.448  10.568 -0.7477 -0.2887 -0.1948
17850TIP3    H275042   1.163   3.445  10.717  0.3682 -1.2964 -0.3943
17851TIP3   OH275043   5.852   0.255   2.795  0.4171 -0.4149  0.8723
17851TIP3    H175044   5.764   0.276   2.827  0.3329  0.9178 -0.2172
17851TIP3    H275045   5.884   0.189   2.857 -1.0044 -0.2719  1.7931
17852TIP3   OH275046   3.717   2.799  15.163  0.0741  0.5314 -0.9095
17852TIP3    H175047   3.727   2.820  15.070 -0.4324 -1.4424 -1.4218
17852TIP3    H275048   3.729   2.704  15.168 -1.5202  0.4025  0.8225
17853TIP3   OH275049   2.564   1.152  15.249  0.0637  0.2644  0.2249
17853TIP3    H175050   2.545   1.132  15.158  1.7502  0.9447 -0.2864
17853TIP3    H275051   2.484   1.127  15.296 -0.5663 -0.7200 -1.3335
17854TIP3   OH275052   3.428   2.522   1.572  0.0332  0.2480 -0.0563
17854TIP3    H175053   3.494   2.539   1.640  0.4934  0.3808 -0.5304
17854TIP3    H275054   3.479   2.491   1.497 -0.5327 -0.5331 -0.1219
17855TIP3   OH275055   0.879   5.596  12.014  0.3858 -0.3618 -0.3398
17855TIP3    H175056   0.797   5.634  11.984  0.8514  0.4687 -0.5763
17855TIP3    H275057   0.877   5.604  12.109  0.7047  0.7180 -0.4209
17856TIP3   OH275058   6.710   4.607  16.535  0.4009  0.3558  0.1991
17856TIP3    H175059   6.683   4.683  16.586  0.5877 -0.5705  1.7155
17856TIP3    H275060   6.633   4.586  16.481 -0.4407  0.2488  1.4399
17857TIP3   OH275061   5.880   5.939  17.127 -0.4103 -0.0840  0.2837
17857TIP3    H175062   5.850   5.904  17.211 -0.5090 -1.0575 -0.1447
17857TIP3    H275063   5.924   5.865  17.085 -2.4450 -0.3406 -1.5284
17858TIP3   OH275064   1.793   5.512   3.214 -0.0786  0.3124  0.6487
17858TIP3    H175065   1.710   5.559   3.205 -0.0523  0.2242 -0.0199
17858TIP3    H275066   1.835   5.553   3.290 -0.0689  1.3578  0.0952
17859TIP3   OH275067   4.758   4.167  13.744 -0.4279 -0.4501  0.3808
17859TIP3    H175068   4.851   4.161  13.722  0.0680  2.4270  1.5585
17859TIP3    H275069   4.713   4.166  13.660  0.9001  1.7256 -0.3705
17860TIP3   OH275070   1.824   4.368  12.220  0.1770  0.5676  0.1052
17860TIP3    H175071   1.758   4.386  12.288 -0.9249  2.0151 -1.3188
17860TIP3    H275072   1.787   4.295  12.170 -0.8927  2.0713 -1.3538
17861TIP3   OH275073   0.680   6.057  12.549  0.1060 -0.1875 -0.3331
17861TIP3    H175074   0.722   6.132  12.506 -0.9701  0.7411  0.1886
17861TIP3    H275075   0.752   6.009  12.589  0.7945  0.7424 -0.4292
17862TIP3   OH275076   3.037   1.148   2.121  0.2139 -0.1880  0.6114
17862TIP3    H175077   3.066   1.057   2.118 -1.0819 -0.5749 -1.6058
17862TIP3    H275078   3.106   1.197   2.076  0.0478 -0.3386  0.1908
17863TIP3   OH275079   1.932   2.705   5.514  0.3638 -0.1319  0.4268
17863TIP3    H175080   1.837   2.697   5.503  0.5662  2.2130 -3.8973
17863TIP3    H275081   1.967   2.621   5.482 -0.1054  0.1688 -0.9082
17864TIP3   OH275082   5.690   3.507   1.896  0.1389 -0.1517 -0.3863
17864TIP3    H175083   5.768   3.560   1.881 -0.4150  0.8152  0.1184
17864TIP3    H275084   5.677   3.510   1.990 -0.1174 -0.8899 -0.3939
17865TIP3   OH275085   2.620   1.400  15.071  0.4181 -0.2466  0.2324
17865TIP3    H175086   2.703   1.442  15.094  0.8128 -1.3930  0.8912
17865TIP3    H275087   2.638   1.354  14.989  0.1270  0.4163 -0.2095
17866TIP3   OH275088   3.177   5.775   3.946 -0.0126  0.8385 -0.4992
17866TIP3    H175089   3.216   5.688   3.938 -0.5698  0.2346  2.6403
17866TIP3    H275090   3.085   5.763   3.923 -0.6897 -0.0066  2.4636
17867TIP3   OH275091   0.559   5.518   0.093  0.1266  0.1833 -0.2379
17867TIP3    H175092   0.569   5.590   0.032  0.0563  1.5130  1.2978
17867TIP3    H275093   0.635   5.462   0.077  1.6246  2.0066  0.4274
17868TIP3   OH275094   6.621   3.589  11.328 -0.1404  0.0570 -0.1113
17868TIP3    H175095   6.619   3.614  11.236  1.2682  1.4698  0.2017
17868TIP3    H275096   6.638   3.671  11.374  0.9368 -0.9087  1.2598
17869TIP3   OH275097   0.495   2.396   5.392  0.1685 -0.0449 -0.0111
17869TIP3    H175098   0.552   2.471   5.407  0.2406 -0.2852  0.9709
17869TIP3    H275099   0.504   2.377   5.299  0.8909  0.5626 -0.0703
17870TIP3   OH275100   0.178   5.032   4.262 -0.2879  0.5332  0.2278
17870TIP3    H175101   0.178   5.120   4.300  1.6059 -0.4575  2.5798
17870TIP3    H275102   0.123   4.980   4.321  0.9703 -0.5332  0.4778
17871TIP3   OH275103   3.525   4.977  11.236  0.4658 -0.2841  0.7677
17871TIP3    H175104   3.571   5.025  11.305  1.4727 -0.0795 -0.0340
17871TIP3    H275105   3.564   5.010  11.154  1.6050 -2.9120  0.2173
17872TIP3   OH275106   5.331   5.102   1.266 -0.0699 -0.5034 -0.1490
17872TIP3    H175107   5.258   5.051   1.233  0.1887 -1.3262  0.5223
17872TIP3    H275108   5.310   5.192   1.243 -0.0054 -1.0157 -2.3181
17873TIP3   OH275109   2.394   4.362  15.729  0.7543 -0.2847  0.3780
17873TIP3    H175110   2.420   4.453  15.715 -0.7014  0.3427  1.7168
17873TIP3    H275111   2.343   4.339  15.652  0.2270  0.3753  0.5281
17874TIP3   OH275112   3.350   4.903   3.219  0.3084 -0.6035  0.3733
17874TIP3    H175113   3.265   4.863   3.200  0.5395 -0.2328 -1.5262
17874TIP3    H275114   3.330   4.991   3.250  0.0797  0.6025 -3.0421
17875TIP3   OH275115   2.896   5.560   0.631  1.1436  0.2583 -0.5922
17875TIP3    H175116   2.977   5.605   0.605  0.9288  1.1628  0.2550
17875TIP3    H275117   2.826   5.620   0.604  0.7356 -0.5950 -1.4716
17876TIP3   OH275118   5.742   2.051   3.779  0.1704  0.0133  0.4230
17876TIP3    H175119   5.732   2.101   3.698 -0.4649  2.0583  1.7255
17876TIP3    H275120   5.818   2.091   3.822 -0.2201 -0.2854  1.3844
17877TIP3   OH275121   5.308   4.903  15.500 -0.1592  0.0788 -0.2875
17877TIP3    H175122   5.297   4.926  15.408 -1.0542  0.2103 -0.1598
17877TIP3    H275123   5.254   4.824  15.511  0.6712 -0.4644 -0.0873
17878TIP3   OH275124   4.662   4.165   5.801 -0.5675 -0.1703 -0.5121
17878TIP3    H175125   4.584   4.124   5.837 -0.9638  0.7167 -0.3645
17878TIP3    H275126   4.674   4.244   5.853  1.1922 -0.9730  0.3586
17879TIP3   OH275127   0.980   2.032  13.377 -0.4989  0.9205 -0.1332
17879TIP3    H175128   1.049   1.974  13.409 -1.3951 -0.6704 -1.0521
17879TIP3    H275129   1.026   2.113  13.355  0.6929  0.7326  1.5904
17880TIP3   OH275130   5.423   2.833  13.017 -0.1825  0.1100 -0.0103
17880TIP3    H175131   5.395   2.873  12.934  0.2833 -1.6030 -1.0317
17880TIP3    H275132   5.343   2.794  13.053 -0.1230 -0.3246 -0.3440
17881TIP3   OH275133   0.552   6.337   1.413  0.0474  0.2051  0.3583
17881TIP3    H175134   0.582   6.406   1.354  0.0639 -0.3344 -0.2674
17881TIP3    H275135   0.462   6.319   1.386  0.1050 -0.1454  0.3883
17882TIP3   OH275136   3.059   1.694  10.698  0.0726 -0.0536 -0.1541
17882TIP3    H175137   3.125   1.758  10.675  1.5155 -1.7959 -1.0011
17882TIP3    H275138   3.073   1.622  10.636  0.3477 -2.4275  2.5647
17883TIP3   OH275139   4.866   1.511   4.650 -0.1151  0.3829  0.9915
17883TIP3    H175140   4.891   1.454   4.723 -0.9541 -0.7135  0.4346
17883TIP3    H275141   4.837   1.451   4.582 -0.1704  1.4461  0.0679
17884TIP3   OH275142   6.673   3.414  11.566 -0.1476 -0.3349  0.0866
17884TIP3    H175143   6.679   3.437  11.473  1.7690 -2.4639 -0.3713
17884TIP3    H275144   6.587   3.373  11.574 -0.3486 -0.0972 -0.7555
17885TIP3   OH275145   4.076   6.151  11.421 -0.6789 -0.2464  0.2001
17885TIP3    H175146   4.022   6.228  11.437 -1.3489 -0.5699 -0.4785
17885TIP3    H275147   4.103   6.159  11.329  0.6413  0.0468  0.6015
17886TIP3   OH275148   0.400   5.051   4.074  0.0264 -0.2470 -0.0546
17886TIP3    H175149   0.385   5.141   4.047 -0.3021 -1.0054 -2.5152
17886TIP3    H275150   0.335   5.034   4.142 -0.4550  1.1058 -0.1785
17887TIP3   OH275151   1.291   4.613  14.705 -0.1290 -0.3662 -0.0685
17887TIP3    H175152   1.235   4.555  14.653 -1.6104  1.3151 -0.4032
17887TIP3    H275153   1.237   4.635  14.781  0.5227  0.3325  0.1970
17888TIP3   OH275154   5.659   5.523  13.253 -0.3169  0.3171  0.2274
17888TIP3    H175155   5.736   5.555  13.205 -0.4731 -0.8005 -0.7972
17888TIP3    H275156   5.622   5.455  13.196 -0.1472 -1.4899  2.2174
17889TIP3   OH275157   3.356   2.433   1.195 -0.4974 -0.7404  0.0580
17889TIP3    H175158   3.332   2.458   1.106  0.4900  1.3351  0.3239
17889TIP3    H275159   3.291   2.477   1.250  1.5700  1.7788  0.5690
17890TIP3   OH275160   4.768   6.197   1.288 -0.7797 -0.4082 -0.5034
17890TIP3    H175161   4.786   6.161   1.374  0.6401  1.4708  0.0216
17890TIP3    H275162   4.713   6.132   1.245 -1.1183 -1.5698  1.6512
17891TIP3   OH275163   1.798   1.199  12.994  0.3315 -0.2018  0.0029
17891TIP3    H175164   1.729   1.240  12.942  2.1907  0.6457 -1.8758
17891TIP3    H275165   1.767   1.110  13.010 -1.0418  0.0774 -1.0614
17892TIP3   OH275166   6.198   0.283  13.149 -0.1839 -0.4412 -0.3570
17892TIP3    H175167   6.213   0.229  13.071 -1.4129 -1.4767  0.1174
17892TIP3    H275168   6.109   0.263  13.176 -0.6323  1.7444 -0.0833
17893TIP3   OH275169   4.180   0.861  12.285  0.0025 -0.2653 -0.7812
17893TIP3    H175170   4.164   0.816  12.368  0.8862  1.0539  0.1194
17893TIP3    H275171   4.107   0.834  12.229  0.9674 -3.5203 -0.5715
17894TIP3   OH275172   3.653   4.153   5.615  0.1816  0.5029 -0.0230
17894TIP3    H175173   3.674   4.072   5.662 -1.8242 -1.3320 -2.1722
17894TIP3    H275174   3.610   4.208   5.680 -0.3622 -1.0157  0.9214
17895TIP3   OH275175   4.759   6.792  12.693 -0.3284  0.0199 -0.7366
17895TIP3    H175176   4.695   6.741  12.643 -0.9826  0.7754 -0.6693
17895TIP3    H275177   4.808   6.840  12.627 -2.0266  1.9989 -0.6137
17896TIP3   OH275178   5.004   5.133   0.689  0.0014  0.2834 -0.0499
17896TIP3    H175179   5.038   5.218   0.662 -0.6383  0.4227 -0.4245
17896TIP3    H275180   4.943   5.108   0.619  0.9316 -0.9442 -0.4499
17897TIP3   OH275181   4.882   3.354  14.679 -0.0810  0.3118  0.2934
17897TIP3    H175182   4.874   3.439  14.634 -2.0796 -0.5062 -0.9404
17897TIP3    H275183   4.884   3.290  14.608  1.3252 -0.7225  1.2287
17898TIP3   OH275184   0.236   4.587   1.617  0.2250 -0.4714  0.0728
17898TIP3    H175185   0.231   4.590   1.521  1.3855  0.4282  0.0224
17898TIP3    H275186   0.145   4.586   1.646 -0.1441  0.6641 -1.0120
17899TIP3   OH275187   4.888   6.316  15.317 -0.5266  0.2750  0.0520
17899TIP3    H175188   4.802   6.334  15.280 -0.5183 -0.1832 -0.1900
17899TIP3    H275189   4.898   6.381  15.387 -0.4660  1.2834 -0.8673
17900TIP3   OH275190   1.845   3.586  15.306  0.2932 -0.1631  0.0655
17900TIP3    H175191   1.825   3.645  15.379 -0.4948  0.2369 -0.4635
17900TIP3    H275192   1.856   3.644  15.230  2.3325 -0.4705  0.0959
17901TIP3   OH275193   5.534   3.158  16.323  0.1095  0.1828 -0.6816
17901TIP3    H175194   5.503   3.239  16.282  0.3800  0.7604  0.2270
17901TIP3    H275195   5.607   3.130  16.268  0.3093  0.8164 -0.7446
17902TIP3   OH275196   5.524   1.259  15.433  0.0632 -0.0978 -0.0681
17902TIP3    H175197   5.488   1.346  15.423 -0.1077 -0.1972 -0.3057
17902TIP3    H275198   5.585   1.249  15.360 -0.6123 -0.5299 -0.5725
17903TIP3   OH275199   5.802   2.595   6.288  0.3574 -0.0379  0.3799
17903TIP3    H175200   5.750   2.515   6.297 -0.0388  0.4036  2.3660
17903TIP3    H275201   5.830   2.614   6.378  0.5374  1.9725 -0.0970
17904TIP3   OH275202   2.894   3.066   3.915  0.2676  0.2652  0.4005
17904TIP3    H175203   2.855   3.125   3.979 -2.0634  0.3225 -1.0154
17904TIP3    H275204   2.977   3.108   3.890  0.7348  0.7193  2.6123
17905TIP3   OH275205   5.841   5.186  11.627  0.2126 -0.0545 -0.1263
17905TIP3    H175206   5.784   5.226  11.693 -0.1421  0.8050 -0.9534
17905TIP3    H275207   5.796   5.105  11.602 -1.6237  1.5559 -2.1735
17906TIP3   OH275208   0.676   1.217  12.009 -0.1002 -0.0408 -0.1936
17906TIP3    H175209   0.606   1.156  11.984 -2.1870  1.7451  1.1456
17906TIP3    H275210   0.680   1.280  11.937  0.0062 -0.0207 -0.1713
17907TIP3   OH275211   4.101   3.216   1.777  0.3411  0.3650  0.1245
17907TIP3    H175212   4.135   3.295   1.820 -0.9005  0.7359  0.4522
17907TIP3    H275213   4.179   3.168   1.750  1.1254  2.1380 -0.8708
17908TIP3   OH275214   0.571   4.998  14.429  0.0148 -0.3667 -0.1788
17908TIP3    H175215   0.657   5.018  14.466 -0.5147 -1.0821  1.5221
17908TIP3    H275216   0.589   4.958  14.344  1.3678 -0.4615  0.1427
17909TIP3   OH275217   1.715   5.630  17.116  0.1289  0.5937 -0.0816
17909TIP3    H175218   1.673   5.568  17.057 -0.3327 -0.3670  1.2424
17909TIP3    H275219   1.761   5.691  17.058 -0.4713 -0.2193 -1.4272
17910TIP3   OH275220   6.347   2.297  10.874  0.0957 -0.4266  0.0065
17910TIP3    H175221   6.346   2.391  10.853 -1.8886 -0.3464  0.3378
17910TIP3    H275222   6.351   2.253  10.789 -0.7751 -0.0486 -0.2362
17911TIP3   OH275223   6.813   4.121   2.405  0.7553 -0.1747  0.1322
17911TIP3    H175224   6.876   4.119   2.477  1.1201  0.9327 -0.1444
17911TIP3    H275225   6.831   4.041   2.356  0.5940 -0.8720  1.1902
17912TIP3   OH275226   2.011   3.720   1.583 -0.1358 -0.0523 -0.3841
17912TIP3    H175227   1.957   3.723   1.503 -2.0559 -0.1689  0.8824
17912TIP3    H275228   2.075   3.651   1.565  0.2969  0.7936 -2.3239
17913TIP3   OH275229   2.341   6.103  11.538 -0.2650 -0.0145  0.2172
17913TIP3    H175230   2.404   6.050  11.489 -0.7624 -1.1970  0.8073
17913TIP3    H275231   2.347   6.190  11.500 -0.9563 -0.9928 -2.2493
17914TIP3   OH275232   3.275   1.954  12.972  0.2018  0.7324 -0.1831
17914TIP3    H175233   3.258   1.867  13.007  1.9433 -0.0377 -1.2180
17914TIP3    H275234   3.189   1.996  12.969 -0.2298  0.2723  3.4877
17915TIP3   OH275235   2.686   4.191  16.078  0.2606  0.3261  0.1898
17915TIP3    H175236   2.681   4.212  16.171 -0.2461  0.0462  0.2291
17915TIP3    H275237   2.604   4.225  16.041  1.2787  2.1347 -0.5032
17916TIP3   OH275238   3.100   1.980   0.528 -0.8987 -0.5356 -0.5647
17916TIP3    H175239   3.194   1.981   0.508 -0.1969  0.1638  2.5093
17916TIP3    H275240   3.072   2.071   0.515 -0.7615 -0.3871  0.1536
17917TIP3   OH275241   0.059   3.486  16.765  0.1065 -0.5095  0.1526
17917TIP3    H175242   0.134   3.533  16.801  0.9981 -1.8081  0.0197
17917TIP3    H275243   0.068   3.495  16.670  1.0344 -2.0376  0.0664
17918TIP3   OH275244   0.596   1.461   3.310  0.2338  0.2794  0.2377
17918TIP3    H175245   0.506   1.430   3.316  0.8204 -1.5847 -0.2253
17918TIP3    H275246   0.638   1.426   3.389  0.5832  1.0370  0.3903
17919TIP3   OH275247   0.062   0.126   1.851 -0.2877 -0.0343 -0.6416
17919TIP3    H175248   0.132   0.176   1.810  0.4526 -1.0719 -0.6453
17919TIP3    H275249  -0.011   0.188   1.859  1.6171  1.9462  2.1707
17920TIP3   OH275250   5.293   2.252  10.311  0.2365  0.6560  0.0678
17920TIP3    H175251   5.375   2.238  10.263  0.2785  1.8766 -0.2347
17920TIP3    H275252   5.285   2.347  10.319 -1.4596  0.5852 -0.4537
17921TIP3   OH275253   3.775   6.773  13.904 -0.4362 -0.2254 -0.7718
17921TIP3    H175254   3.689   6.744  13.934  0.1477 -0.3205  0.8897
17921TIP3    H275255   3.827   6.693  13.900  0.6885  0.3066  2.1447
17922TIP3   OH275256   6.463   1.644   1.604 -0.1539 -0.0148 -0.3765
17922TIP3    H175257   6.486   1.675   1.517  0.1353 -0.2571 -0.3883
17922TIP3    H275258   6.427   1.557   1.590 -1.4343  0.5056 -0.3936
17923TIP3   OH275259   0.799   2.301  15.057 -0.6757 -0.1685  0.3228
17923TIP3    H175260   0.755   2.311  15.142 -0.5255  1.5680  0.2098
17923TIP3    H275261   0.751   2.358  14.998  1.2564  1.1771  0.0237
17924TIP3   OH275262   0.355   1.830  12.071 -0.3447  0.6002 -0.0447
17924TIP3    H175263   0.353   1.917  12.032 -1.6595  0.3782 -0.4806
17924TIP3    H275264   0.288   1.780  12.024 -0.4481 -0.2952  1.0206
17925TIP3   OH275265   1.757   2.084  11.201 -0.4503  0.0993  0.4957
17925TIP3    H175266   1.756   2.011  11.262 -0.0817  0.3239  0.7703
17925TIP3    H275267   1.687   2.065  11.139  0.7764 -1.3881 -0.4837
17926TIP3   OH275268   3.666   5.407   4.232 -0.5055 -0.1112  0.1953
17926TIP3    H175269   3.640   5.482   4.285  0.0082 -1.3417  2.2344
17926TIP3    H275270   3.762   5.408   4.234 -0.4981 -2.3615  2.5121
17927TIP3   OH275271   1.129   3.074  10.962 -0.0831  0.0136 -0.1684
17927TIP3    H175272   1.133   3.001  10.900  0.9560 -0.7675  0.7930
17927TIP3    H275273   1.036   3.097  10.966 -0.1062  0.4014 -2.3642
17928TIP3   OH275274   3.301   1.977  12.498 -0.2527 -0.2841 -0.5917
17928TIP3    H175275   3.349   1.896  12.482 -0.1131 -0.3358  0.0438
17928TIP3    H275276   3.282   1.975  12.592 -3.2187 -1.1802 -1.1649
17929TIP3   OH275277   2.139   4.970   0.102 -0.1480 -0.3976  0.2849
17929TIP3    H175278   2.233   4.980   0.117 -0.2056 -0.0389  0.4266
17929TIP3    H275279   2.120   4.880   0.126 -0.0041 -0.2019  1.1514
17930TIP3   OH275280   5.748   2.734  15.609 -0.1295 -0.3166 -0.0338
17930TIP3    H175281   5.678   2.721  15.673 -1.7969  0.7817 -1.5847
17930TIP3    H275282   5.783   2.821  15.630  0.0319 -0.4071  0.0681
17931TIP3   OH275283   1.208   4.730  11.917 -0.2629 -0.6570  0.1751
17931TIP3    H175284   1.281   4.704  11.972  0.3437 -1.0366 -0.7921
17931TIP3    H275285   1.225   4.688  11.833 -1.3674 -0.3918 -0.1940
17932TIP3   OH275286   4.037   3.728  16.780 -0.6235 -0.2792 -0.2147
17932TIP3    H175287   4.128   3.706  16.763 -0.7066 -0.3354 -0.5876
17932TIP3    H275288   4.006   3.769  16.699 -0.5759  0.8758  0.3338
17933TIP3   OH275289   0.125   6.252   3.248  0.0021 -0.3642 -0.4723
17933TIP3    H175290   0.102   6.343   3.233 -0.1673 -0.2093  0.6694
17933TIP3    H275291   0.101   6.236   3.339  0.5936 -1.3773 -0.4858
17934TIP3   OH275292   4.303   5.596  13.887 -0.0058  0.6059 -0.1789
17934TIP3    H175293   4.357   5.519  13.903 -1.0230  0.0623  0.6894
17934TIP3    H275294   4.323   5.656  13.959 -1.0531  0.1169  0.5363
17935TIP3   OH275295   1.556   2.458  16.353  0.1891 -0.4281  0.2547
17935TIP3    H175296   1.469   2.491  16.375  0.3813 -0.3076  0.8480
17935TIP3    H275297   1.609   2.536  16.341  0.1868 -0.5009 -0.2298
17936TIP3   OH275298   1.530   1.368  11.741 -0.3435  0.0976  0.4759
17936TIP3    H175299   1.478   1.288  11.743  0.3896 -0.3624  1.7444
17936TIP3    H275300   1.466   1.439  11.735 -1.0646 -0.5269  0.7750
17937TIP3   OH275301   1.413   0.828  11.694  0.1510  0.1012 -0.1064
17937TIP3    H175302   1.506   0.810  11.679 -0.0589 -0.0793 -1.3130
17937TIP3    H275303   1.377   0.745  11.726  0.6853  0.5877  1.7821
17938TIP3   OH275304   6.480   4.060  14.445 -0.0628 -0.7161  0.3724
17938TIP3    H175305   6.521   4.088  14.527 -0.8857 -1.6912  1.1468
17938TIP3    H275306   6.527   3.980  14.421 -1.0903 -1.5257  0.9671
17939TIP3   OH275307   1.218   2.302  15.260  0.2212  0.0133  0.0354
17939TIP3    H175308   1.160   2.227  15.246  2.2635 -1.7379  0.6848
17939TIP3    H275309   1.193   2.364  15.192 -1.4010 -1.3078 -0.6258
17940TIP3   OH275310   0.568   6.404   6.192 -0.0807  0.2330 -0.0566
17940TIP3    H175311   0.528   6.466   6.252 -0.0003  0.3298 -0.1026
17940TIP3    H275312   0.605   6.336   6.249  1.4683  1.1812  0.1071
17941TIP3   OH275313   6.590   6.024   5.834  0.0101  0.3375  0.3087
17941TIP3    H175314   6.621   6.025   5.925  0.8870  1.6835  0.0136
17941TIP3    H275315   6.513   6.080   5.834  0.0755  0.4289  0.2094
17942TIP3   OH275316   2.558   0.021  11.876 -0.0164  0.5209 -0.0479
17942TIP3    H175317   2.482   0.059  11.832 -1.2481 -0.2021  1.3836
17942TIP3    H275318   2.604  -0.026  11.807 -1.8462 -0.4961 -0.6332
17943TIP3   OH275319   0.237   2.752   0.137 -0.0577 -0.1446 -0.3869
17943TIP3    H175320   0.255   2.779   0.227  0.2067  1.6299 -0.9660
17943TIP3    H275321   0.201   2.664   0.146 -1.7237  0.7061  1.5812
17944TIP3   OH275322   2.691   4.913  16.631 -0.3211 -0.5866  0.0316
17944TIP3    H175323   2.737   4.871  16.559 -0.3697  2.2903 -1.7654
17944TIP3    H275324   2.760   4.937  16.693  0.0289 -0.6320 -0.3439
17945TIP3   OH275325   3.834   0.826  10.997  0.0723 -0.1304 -0.4207
17945TIP3    H175326   3.814   0.878  10.919  1.2122  2.5700  1.0060
17945TIP3    H275327   3.929   0.825  11.002  0.0283 -0.9873  0.4803
17946TIP3   OH275328   1.349   5.451   0.214 -0.4163 -0.0635  0.1756
17946TIP3    H175329   1.392   5.500   0.144 -0.6569  2.2836  1.6306
17946TIP3    H275330   1.358   5.506   0.291 -1.8795 -1.7208  1.5699
17947TIP3   OH275331   0.242   2.029  15.372  0.2678  0.1919 -0.4867
17947TIP3    H175332   0.325   1.988  15.396 -0.3400 -0.8616 -0.1421
17947TIP3    H275333   0.225   1.996  15.283  0.3532  0.6393 -0.6730
17948TIP3   OH275334   5.149   0.975   4.386 -0.9054  0.0650 -0.4284
17948TIP3    H175335   5.060   0.973   4.420 -1.8672 -1.7537 -2.8911
17948TIP3    H275336   5.191   1.048   4.432 -3.5652  0.7848  0.9508
17949TIP3   OH275337   2.630   3.236  10.057 -0.2023  0.0649 -0.0306
17949TIP3    H175338   2.704   3.184  10.024  1.0160  1.5016  0.3662
17949TIP3    H275339   2.629   3.315  10.002 -1.2014  0.2345  0.2206
17950TIP3   OH275340   0.489   4.720  12.035 -0.1141  0.0561 -0.1675
17950TIP3    H175341   0.424   4.668  11.986  0.8406 -1.9398  0.6096
17950TIP3    H275342   0.570   4.670  12.027  0.9126  1.5899  0.4070
17951TIP3   OH275343   1.454   4.875  14.697 -0.0091  0.3006  0.1201
17951TIP3    H175344   1.488   4.960  14.668 -1.0731  0.6468 -0.1531
17951TIP3    H275345   1.435   4.828  14.615  1.3441 -0.5187  0.2725
17952TIP3   OH275346   4.989   2.074  16.102  0.2668 -0.7441 -0.0723
17952TIP3    H175347   4.984   2.087  16.007  1.0183 -0.9821 -0.1475
17952TIP3    H275348   5.078   2.042  16.117  0.7212  0.9221  0.9076
17953TIP3   OH275349   2.559   1.904   5.880 -0.3260  0.5485  0.0779
17953TIP3    H175350   2.497   1.917   5.953 -0.5763 -2.2568  0.4069
17953TIP3    H275351   2.557   1.810   5.863  1.4327  0.8648 -2.0932
17954TIP3   OH275352   5.150   4.280  15.373 -0.9316 -0.5308  0.3691
17954TIP3    H175353   5.078   4.242  15.424 -2.7281 -0.8031 -2.2707
17954TIP3    H275354   5.213   4.209  15.364 -0.5512 -0.4699  2.1656
17955TIP3   OH275355   3.435   3.875  10.576  0.0398 -0.1211 -0.0024
17955TIP3    H175356   3.430   3.787  10.539 -0.9073  0.0085 -0.1968
17955TIP3    H275357   3.522   3.879  10.617  0.4298 -0.8399 -0.7418
17956TIP3   OH275358   3.377   0.912  16.543 -0.6599  0.4580  0.0675
17956TIP3    H175359   3.366   0.953  16.629  2.5410  0.3273  0.6196
17956TIP3    H275360   3.333   0.972  16.482  1.0851  3.0513  1.2672
17957TIP3   OH275361   4.084   2.483  16.819  0.2672  0.3814 -0.2212
17957TIP3    H175362   4.083   2.538  16.740 -2.0097  0.3272 -0.2870
17957TIP3    H275363   4.054   2.397  16.789 -0.6257  0.3655  0.6831
17958TIP3   OH275364   3.221   4.001  13.950 -0.2060  0.2142  0.3316
17958TIP3    H175365   3.189   4.081  13.907 -0.0983  0.2527  0.3227
17958TIP3    H275366   3.248   4.030  14.037  0.0921  0.2400  0.2327
17959TIP3   OH275367   6.130   5.558   5.063  0.2058  0.5936  0.1079
17959TIP3    H175368   6.135   5.536   4.970 -0.9696  0.2277  0.1325
17959TIP3    H275369   6.048   5.606   5.072  0.2587  0.5185  0.9817
17960TIP3   OH275370   1.474   4.240   3.279 -0.3813 -0.2372 -0.3208
17960TIP3    H175371   1.489   4.196   3.195  0.7110  0.6903 -0.6306
17960TIP3    H275372   1.561   4.271   3.305 -1.1744  2.0624 -0.3269
17961TIP3   OH275373   4.490   5.289  17.021 -0.3653 -1.0341 -0.3957
17961TIP3    H175374   4.532   5.369  16.990  0.7278 -1.9035 -1.1777
17961TIP3    H275375   4.496   5.227  16.948  1.9217 -2.9862  1.3508
17962TIP3   OH275376   3.596   0.197  14.034 -0.1812  0.1857  0.1840
17962TIP3    H175377   3.612   0.224  13.943  1.3918  1.0131  0.6907
17962TIP3    H275378   3.661   0.129  14.050  0.0967  0.6214  0.9346
17963TIP3   OH275379   0.316   3.958  12.353  0.2016 -0.1749  0.2013
17963TIP3    H175380   0.234   3.911  12.367 -0.0210 -0.0639 -0.7269
17963TIP3    H275381   0.313   3.985  12.262  1.1070  0.1522  0.2666
17964TIP3   OH275382   6.460   0.422   1.696  0.5423 -0.3625  0.2327
17964TIP3    H175383   6.492   0.450   1.611  0.3652  0.6294  0.4875
17964TIP3    H275384   6.397   0.352   1.676 -1.6996  1.8389 -0.6418
17965TIP3   OH275385   6.371   2.400   5.845  0.0944 -0.1701  0.0733
17965TIP3    H175386   6.275   2.404   5.841  0.1160  0.8909  0.2435
17965TIP3    H275387   6.400   2.472   5.788  0.7761 -0.0912  0.5103
17966TIP3   OH275388   4.545   0.821   0.390  0.4487 -0.1832  0.1140
17966TIP3    H175389   4.450   0.824   0.399  0.6616 -1.7065  3.9653
17966TIP3    H275390   4.562   0.758   0.321 -1.3339  0.7537 -1.2023
17967TIP3   OH275391   3.813   5.892   1.814  0.4859 -0.4048  0.0708
17967TIP3    H175392   3.898   5.936   1.822 -0.0212  0.4738  0.7982
17967TIP3    H275393   3.774   5.901   1.901 -0.1592 -1.2152 -0.1331
17968TIP3   OH275394   0.616   3.370  16.424 -0.2166  0.2657 -0.1317
17968TIP3    H175395   0.592   3.406  16.509 -2.4900  2.0925 -1.4880
17968TIP3    H275396   0.668   3.439  16.383  0.2589 -0.3193 -0.5154
17969TIP3   OH275397   4.084   4.661   3.405 -0.1760 -0.5253 -0.0397
17969TIP3    H175398   3.990   4.670   3.389  0.1610  1.2086 -1.1800
17969TIP3    H275399   4.122   4.651   3.318  0.8747  0.7217  0.2594
17970TIP3   OH275400   3.581   2.376   4.902 -0.0398 -0.2739  0.3455
17970TIP3    H175401   3.534   2.408   4.825  0.4389 -0.5990 -0.0765
17970TIP3    H275402   3.666   2.419   4.899  0.2055 -0.7577  0.3636
17971TIP3   OH275403   4.664   1.784  13.849  0.3426  0.6740 -0.0451
17971TIP3    H175404   4.752   1.805  13.819  0.7970 -0.1103  0.7093
17971TIP3    H275405   4.614   1.865  13.837  1.6834  1.7535  1.4391
17972TIP3   OH275406   3.456   1.895  16.543  0.0095  0.7288 -0.2459
17972TIP3    H175407   3.389   1.860  16.602  0.9645 -0.4013  0.1981
17972TIP3    H275408   3.425   1.874  16.455  0.4148 -1.0043  0.0043
17973TIP3   OH275409   5.811   0.270  11.768 -0.0781  0.5404 -0.5727
17973TIP3    H175410   5.877   0.333  11.739 -0.7237  1.0559 -0.9451
17973TIP3    H275411   5.815   0.199  11.704  2.1144 -0.8269  1.0252
17974TIP3   OH275412   3.113   3.634  11.068  0.0819  0.0332  0.2539
17974TIP3    H175413   3.060   3.554  11.067  1.1225 -0.6636  0.2659
17974TIP3    H275414   3.078   3.686  10.995  1.1817 -1.6219 -1.4884
17975TIP3   OH275415   4.150   4.283   0.692  0.5150 -0.2259 -0.6352
17975TIP3    H175416   4.170   4.190   0.700 -0.6009 -0.3493  0.8888
17975TIP3    H275417   4.083   4.287   0.624 -1.7314 -0.9018  1.4589
17976TIP3   OH275418   0.369   4.183  13.460 -0.4200  0.0575  0.3028
17976TIP3    H175419   0.385   4.244  13.533  0.5287 -0.8798  0.8940
17976TIP3    H275420   0.399   4.231  13.383 -1.2358  0.9777  0.5386
17977TIP3   OH275421   1.297   0.368  13.948 -0.7272 -0.1710 -0.4676
17977TIP3    H175422   1.380   0.412  13.930 -1.5266  0.8216 -1.7841
17977TIP3    H275423   1.285   0.377  14.043  0.0957  0.7079 -0.4418
17978TIP3   OH275424   3.197   3.656   3.974 -0.8474 -0.1297 -0.1062
17978TIP3    H175425   3.266   3.702   3.927 -0.2136 -0.9032  0.0418
17978TIP3    H275426   3.116   3.684   3.933 -0.3329 -0.4420 -1.3603
17979TIP3   OH275427   1.139   0.426  11.317 -0.1734 -0.3357 -0.2611
17979TIP3    H175428   1.134   0.493  11.249 -0.1304 -1.0563 -0.9895
17979TIP3    H275429   1.232   0.414  11.332 -0.1772 -0.3280 -0.2329
17980TIP3   OH275430   4.915   5.317  16.456 -0.2196 -0.3688  0.4161
17980TIP3    H175431   4.960   5.396  16.485  0.8852  0.1621 -2.5331
17980TIP3    H275432   4.949   5.248  16.512  1.4484  0.6629  0.7099
17981TIP3   OH275433   3.958   4.234   6.277  0.4122 -0.4438  0.5104
17981TIP3    H175434   4.016   4.193   6.341  0.1533  0.0132  1.0449
17981TIP3    H275435   3.885   4.266   6.329  2.7198  4.7797  0.8641
17982TIP3   OH275436   6.743   5.485  14.269  0.3774  0.0336 -0.0750
17982TIP3    H175437   6.776   5.506  14.182 -0.0811  0.0407 -0.2488
17982TIP3    H275438   6.696   5.402  14.258  0.9841 -0.3698  0.3224
17983TIP3   OH275439   5.878   1.686  12.534  0.0771  0.4436 -0.4938
17983TIP3    H175440   5.956   1.631  12.528 -0.7384 -0.7076 -0.7600
17983TIP3    H275441   5.858   1.691  12.627 -0.0293  0.0345 -0.4970
17984TIP3   OH275442   2.686   3.216   2.202  0.3508 -0.4435  0.2691
17984TIP3    H175443   2.688   3.134   2.153  2.8733 -0.9893  1.1837
17984TIP3    H275444   2.612   3.207   2.261  1.2220 -2.5538  1.1076
17985TIP3   OH275445   3.165   0.595   3.714 -0.1326  0.2454 -0.1323
17985TIP3    H175446   3.095   0.531   3.700 -0.8668  0.7817  1.0168
17985TIP3    H275447   3.137   0.671   3.664 -0.2202  0.3452  0.0668
17986TIP3   OH275448   6.067   0.509  12.892 -0.2183 -0.1732 -0.1908
17986TIP3    H175449   6.156   0.500  12.926 -0.1593  0.0538 -0.2815
17986TIP3    H275450   6.012   0.467  12.957 -0.0311 -0.4307 -0.1951
17987TIP3   OH275451   5.863   3.333   2.441 -0.2437 -0.3727  0.1425
17987TIP3    H175452   5.873   3.424   2.471 -0.3280 -1.2891  3.0910
17987TIP3    H275453   5.770   3.323   2.426 -0.1922  0.1209 -0.5373
17988TIP3   OH275454   0.364   5.875   2.140  0.2243 -0.1324 -0.3244
17988TIP3    H175455   0.409   5.816   2.200 -1.5916 -0.1816  1.0322
17988TIP3    H275456   0.433   5.932   2.106  0.9895  1.4010  3.5632
17989TIP3   OH275457   6.262   1.657   3.583 -0.5035  0.1727  0.4859
17989TIP3    H175458   6.257   1.562   3.570 -0.6231  0.5255 -2.3688
17989TIP3    H275459   6.254   1.669   3.678  2.5996 -2.8366  1.2041
17990TIP3   OH275460   3.765   1.860   4.469 -0.0080 -0.1464  0.3230
17990TIP3    H175461   3.698   1.822   4.525  0.5261  0.4050  1.3507
17990TIP3    H275462   3.782   1.946   4.507  0.9937 -0.1197 -0.1610
17991TIP3   OH275463   0.768   5.561   4.076  0.1277 -0.2671  0.5186
17991TIP3    H175464   0.710   5.622   4.120  1.0295  0.1728  1.1235
17991TIP3    H275465   0.710   5.496   4.036 -0.7115 -0.6241  2.2972
17992TIP3   OH275466   4.207   3.437   0.386 -0.1106  0.1414  0.8015
17992TIP3    H175467   4.238   3.388   0.462 -0.4211 -0.0613  0.7971
17992TIP3    H275468   4.266   3.513   0.381  0.8258 -0.6138  0.3626
17993TIP3   OH275469   0.700   4.933  13.318  0.2482 -0.4350 -0.6773
17993TIP3    H175470   0.714   4.977  13.402 -0.6728 -0.5770 -0.4447
17993TIP3    H275471   0.758   4.857  13.321  0.2186 -0.4431 -0.1639
17994TIP3   OH275472   2.634   4.557  16.206 -0.4322  0.1438 -0.9554
17994TIP3    H175473   2.641   4.519  16.119 -1.8389  1.0666 -1.4796
17994TIP3    H275474   2.696   4.507  16.259 -0.6463 -1.3959 -2.1321
17995TIP3   OH275475   4.753   4.707   3.211  0.3656  0.2190  0.3051
17995TIP3    H175476   4.764   4.644   3.282  0.6608 -1.1575 -0.9498
17995TIP3    H275477   4.666   4.689   3.175  0.7124  0.0845 -0.4790
17996TIP3   OH275478   4.027   3.138   2.047 -0.7049 -0.5184  0.6849
17996TIP3    H175479   3.998   3.180   1.966  0.9355 -0.0790  0.3143
17996TIP3    H275480   3.983   3.052   2.046 -1.9789  0.1247  0.1544
17997TIP3   OH275481   3.216   5.337  16.459  0.2114 -0.0566 -0.0783
17997TIP3    H175482   3.207   5.432  16.455 -0.1668 -0.1241 -0.8935
17997TIP3    H275483   3.155   5.310  16.529 -1.8504  0.0354 -1.7756
17998TIP3   OH275484   5.908   0.062   4.102  0.5198 -0.4442  0.0110
17998TIP3    H175485   5.921   0.054   4.008  2.7339 -3.0254  0.4631
17998TIP3    H275486   5.887   0.154   4.117 -0.6168 -0.1561 -3.0528
17999TIP3   OH275487   4.508   1.709  16.792 -0.2951 -0.0609  1.1697
17999TIP3    H175488   4.440   1.652  16.756 -0.3327 -0.3706  1.7176
17999TIP3    H275489   4.479   1.727  16.881 -0.1985  0.6830  1.0524
18000TIP3   OH275490   2.006   5.717   4.894 -0.0193  0.3037  0.2401
18000TIP3    H175491   1.971   5.628   4.900 -0.0057  0.2314 -0.7093
18000TIP3    H275492   2.076   5.719   4.960 -0.4253 -0.1990  0.6904
18001TIP3   OH275493   6.410   0.537  14.966 -0.2109 -0.3201 -0.0395
18001TIP3    H175494   6.394   0.566  15.056 -0.2511 -1.5470  0.3542
18001TIP3    H275495   6.505   0.544  14.956 -0.2880  0.6141 -0.1879
18002TIP3   OH275496   1.392   3.493  11.806 -1.3739  0.2739 -0.1311
18002TIP3    H175497   1.343   3.483  11.724 -1.7608 -1.8511  0.3153
18002TIP3    H275498   1.474   3.445  11.791 -0.2551  2.1795 -0.2002
18003TIP3   OH275499   6.525   4.774  16.982 -1.3327 -0.1887 -0.0657
18003TIP3    H175500   6.522   4.836  17.054 -0.1059  2.1481 -1.9805
18003TIP3    H275501   6.437   4.776  16.945 -1.4256  0.0480  0.1712
18004TIP3   OH275502   1.846   2.575  13.511 -0.1529  0.3492 -0.1575
18004TIP3    H175503   1.836   2.525  13.592  1.4952 -1.0549 -0.7943
18004TIP3    H275504   1.757   2.600  13.487 -0.7403 -0.0222  1.5818
18005TIP3   OH275505   0.896   6.205   5.592 -0.0673 -0.7916 -0.0920
18005TIP3    H175506   0.960   6.170   5.654  0.8104 -0.0809 -0.5838
18005TIP3    H275507   0.934   6.287   5.562 -1.3438 -0.2232 -0.1969
18006TIP3   OH275508   6.727   1.086  14.058 -0.1710 -0.0089  0.2014
18006TIP3    H175509   6.689   1.068  14.144 -0.7199 -1.1326 -0.2624
18006TIP3    H275510   6.653   1.076  13.997  0.0816  1.3518 -0.3492
18007TIP3   OH275511   2.528   3.317   5.297  0.1566  0.4688  0.5520
18007TIP3    H175512   2.487   3.403   5.303 -0.3341  0.3461 -0.8851
18007TIP3    H275513   2.594   3.317   5.366  1.1897  2.5588 -0.3852
18008TIP3   OH275514   3.248   0.750  12.614 -0.1958 -0.1055 -0.1046
18008TIP3    H175515   3.200   0.676  12.577 -1.5415  0.2560  0.8793
18008TIP3    H275516   3.194   0.779  12.688  1.0687  0.9088  0.4386
18009TIP3   OH275517   3.029   6.368   3.215 -0.6926 -0.1574 -0.4050
18009TIP3    H175518   3.022   6.460   3.242 -0.8468  0.1338 -1.3983
18009TIP3    H275519   2.964   6.323   3.269 -0.3156  0.2507  0.3920
18010TIP3   OH275520   4.767   0.771  15.848  0.3006 -0.3248  0.0811
18010TIP3    H175521   4.854   0.748  15.816  1.2511  1.8142  1.0133
18010TIP3    H275522   4.719   0.799  15.769  1.6463  1.9686  0.0263
18011TIP3   OH275523   6.585   3.869  12.960 -0.0258  0.1422 -0.2011
18011TIP3    H175524   6.602   3.960  12.980 -1.7512  0.4188  0.1346
18011TIP3    H275525   6.531   3.872  12.881 -0.9497 -0.5320  0.3933
18012TIP3   OH275526   0.533   0.158  13.453  0.2349  0.0636 -0.1628
18012TIP3    H175527   0.562   0.190  13.368  0.1973  0.0129 -0.1940
18012TIP3    H275528   0.583   0.210  13.516  0.4784 -0.0994 -0.2187
18013TIP3   OH275529   6.413   1.982   0.591 -0.3318  0.2650  0.2841
18013TIP3    H175530   6.362   1.911   0.552 -1.2195  1.9205 -1.6844
18013TIP3    H275531   6.358   2.017   0.660 -0.3839 -0.2077  0.4823
18014TIP3   OH275532   1.568   6.485  14.102 -0.1966 -0.2802 -0.4904
18014TIP3    H175533   1.565   6.562  14.160  0.3908  0.4563 -1.4163
18014TIP3    H275534   1.540   6.412  14.157 -2.6356  0.8991 -0.0919
18015TIP3   OH275535   0.141   1.835   3.127 -0.5690  0.3693 -0.0243
18015TIP3    H175536   0.211   1.890   3.160 -0.6228  0.7219 -0.4912
18015TIP3    H275537   0.090   1.812   3.204  1.0648 -1.3352  0.5629
18016TIP3   OH275538   3.608   4.541   0.406 -0.0165  0.1755 -0.3762
18016TIP3    H175539   3.562   4.495   0.476 -1.4661 -0.1530 -1.5075
18016TIP3    H275540   3.591   4.634   0.422 -0.3358  0.1001 -0.2842
18017TIP3   OH275541   4.440   4.911   4.665 -0.3814 -0.1016  0.1996
18017TIP3    H175542   4.376   4.841   4.659  0.3740 -0.9589  2.0219
18017TIP3    H275543   4.402   4.974   4.726  0.3344 -0.4353  0.9994
18018TIP3   OH275544   2.254   1.020  11.173  0.2549 -0.4442  0.2060
18018TIP3    H175545   2.238   0.925  11.172 -1.4216 -0.2026  1.1675
18018TIP3    H275546   2.282   1.038  11.263  0.3041 -0.0009  0.0988
18019TIP3   OH275547   3.762   4.469   1.734  0.0914  0.3771  0.4130
18019TIP3    H175548   3.712   4.394   1.702 -0.4215 -0.2082  2.5194
18019TIP3    H275549   3.701   4.515   1.791  0.8597  1.6392  0.2282
18020TIP3   OH275550   2.901   0.052   1.480 -0.1615  0.1302 -0.0627
18020TIP3    H175551   2.818   0.047   1.528  1.2688 -1.2514  2.3598
18020TIP3    H275552   2.899  -0.022   1.420  0.4896 -1.5520  1.9595
18021TIP3   OH275553   5.051   5.305  12.783 -0.3343  0.3057 -0.3448
18021TIP3    H175554   4.989   5.305  12.710 -0.6874  1.0375 -0.0441
18021TIP3    H275555   5.135   5.284  12.743 -0.6382  0.0853 -0.8698
18022TIP3   OH275556   3.838   5.460  12.998 -0.3571  0.8709  0.0786
18022TIP3    H175557   3.859   5.539  13.047  1.7130 -0.2013  0.9590
18022TIP3    H275558   3.917   5.440  12.948 -1.1446 -0.1603 -0.7916
18023TIP3   OH275559   1.305   4.112   4.502 -0.5103  0.4305  0.1505
18023TIP3    H175560   1.336   4.200   4.520  0.9046  0.3441 -1.6590
18023TIP3    H275561   1.322   4.099   4.409  0.3873 -2.1640  0.6207
18024TIP3   OH275562   5.932   0.510  11.703  0.0134  0.3691  0.0705
18024TIP3    H175563   5.953   0.473  11.618 -0.8141  0.9321 -0.3940
18024TIP3    H275564   5.896   0.596  11.683  0.5249  0.8165  1.0390
18025TIP3   OH275565   0.438   2.855   4.079  0.0370 -0.0218 -0.5546
18025TIP3    H175566   0.414   2.885   4.167  0.7401 -1.5909  0.1949
18025TIP3    H275567   0.409   2.925   4.021 -3.7319 -0.5616  0.5531
18026TIP3   OH275568   1.908   6.792   3.012  0.2480 -0.9488 -0.3443
18026TIP3    H175569   1.999   6.804   2.984  0.1206 -0.6400 -0.6305
18026TIP3    H275570   1.857   6.801   2.931  0.0435 -2.1526 -0.3536
18027TIP3   OH275571   3.512   6.238  16.042  0.3005  0.1722  0.3952
18027TIP3    H175572   3.530   6.227  16.136 -0.0263 -2.4409  0.1727
18027TIP3    H275573   3.598   6.256  16.003  0.5137  0.7464  1.1123
18028TIP3   OH275574   4.708   2.942  10.449  0.5711 -0.2313 -0.3476
18028TIP3    H175575   4.733   3.001  10.378 -1.0030 -0.3227 -0.9900
18028TIP3    H275576   4.636   2.891  10.414  0.6758 -1.2310  0.8618
18029TIP3   OH275577   4.403   4.114   1.582 -0.9866  0.2621  0.1683
18029TIP3    H175578   4.480   4.063   1.554  1.4505  2.7129  2.1533
18029TIP3    H275579   4.383   4.169   1.507 -0.9323 -0.5352 -0.4422
18030TIP3   OH275580   6.100   3.461  12.574  0.2573 -0.2290  0.3383
18030TIP3    H175581   6.166   3.392  12.569  1.3712  0.8901 -0.5372
18030TIP3    H275582   6.142   3.531  12.625 -0.4300  0.3018  0.1871
18031TIP3   OH275583   2.470   0.132   4.850  0.1614  0.0873  0.4164
18031TIP3    H175584   2.462   0.057   4.790  0.2551 -0.4103  1.0254
18031TIP3    H275585   2.379   0.161   4.863  0.1935  0.6746 -0.5542
18032TIP3   OH275586   0.276   4.746   3.088  0.4537  0.6725  0.1190
18032TIP3    H175587   0.255   4.816   3.149  0.1701  0.3597  0.3846
18032TIP3    H275588   0.195   4.734   3.037  0.7501  1.0640 -0.4435
18033TIP3   OH275589   1.885   4.096  16.835 -0.5149 -0.4871 -0.4790
18033TIP3    H175590   1.911   4.108  16.926  0.5073 -2.7105 -0.4391
18033TIP3    H275591   1.952   4.037  16.799 -2.6117 -2.1243 -1.8072
18034TIP3   OH275592   0.951   5.428   5.178 -0.6537  0.0927 -0.1391
18034TIP3    H175593   1.021   5.369   5.152  0.4244  1.3442 -0.1138
18034TIP3    H275594   0.936   5.408   5.271  0.9410  1.0474  0.3560
18035TIP3   OH275595   6.301   2.546  14.820 -0.1753  0.4468 -0.0837
18035TIP3    H175596   6.345   2.600  14.886  1.1497 -1.5091  0.7003
18035TIP3    H275597   6.261   2.475  14.871  0.5024 -0.8482 -1.3216
18036TIP3   OH275598   6.305   2.758  16.011  0.0288  0.1792  0.0360
18036TIP3    H175599   6.283   2.829  16.072 -1.8822  1.7894 -2.3807
18036TIP3    H275600   6.311   2.802  15.925 -0.7801 -2.5242 -1.4514
18037TIP3   OH275601   4.532   4.014  11.314  0.3621 -0.5694  0.1534
18037TIP3    H175602   4.454   3.964  11.334  0.6654 -0.5015  1.5572
18037TIP3    H275603   4.596   3.986  11.379  2.3479 -2.5143 -2.4972
18038TIP3   OH275604   6.542   3.936  12.010  0.3756 -0.3613 -0.2932
18038TIP3    H175605   6.612   3.936  11.945  1.8724 -1.1316  1.2704
18038TIP3    H275606   6.536   3.845  12.039 -1.2907 -0.3101 -0.3938
18039TIP3   OH275607   0.760   1.686   3.198 -0.4842 -0.6959 -0.6966
18039TIP3    H175608   0.743   1.598   3.231 -1.5704 -0.5870 -0.9386
18039TIP3    H275609   0.820   1.674   3.125  0.0526 -1.1519 -0.1853
18040TIP3   OH275610   5.108   4.687  16.694  0.2039  0.3347 -0.8000
18040TIP3    H175611   5.124   4.774  16.733  2.2933  0.6449 -2.2244
18040TIP3    H275612   5.082   4.706  16.604 -1.1649 -0.4747 -0.5837
18041TIP3   OH275613   4.149   0.228  15.548 -0.3915 -0.9102  0.2015
18041TIP3    H175614   4.116   0.188  15.467  0.4441  0.3949 -0.7953
18041TIP3    H275615   4.153   0.322  15.528  1.6217 -0.7826  1.1161
18042TIP3   OH275616   4.549   4.582  12.424  0.2720 -0.3118 -0.0903
18042TIP3    H175617   4.490   4.551  12.355 -0.0551  0.7852 -0.3113
18042TIP3    H275618   4.636   4.582  12.383  0.2552 -0.8259 -0.1240
18043TIP3   OH275619   6.099   4.705  13.261 -0.1336  0.5423 -0.2156
18043TIP3    H175620   6.173   4.745  13.214  0.7645 -1.5637 -0.6380
18043TIP3    H275621   6.132   4.620  13.290 -3.2083 -1.6539 -2.7785
18044TIP3   OH275622   4.699   2.542   2.686  0.5405 -0.3520  0.5725
18044TIP3    H175623   4.778   2.490   2.673  0.4608 -0.0125 -1.3038
18044TIP3    H275624   4.627   2.481   2.673  0.4656 -0.2925  0.7022
18045TIP3   OH275625   3.517   3.666  12.917  0.4897  0.0109  0.4670
18045TIP3    H175626   3.524   3.665  13.012 -0.8891  0.6507  0.5804
18045TIP3    H275627   3.588   3.608  12.887  1.6960  0.7588  1.8125
18046TIP3   OH275628   1.485   2.307   6.121 -0.1608  0.3553 -0.2187
18046TIP3    H175629   1.470   2.313   6.216 -1.7402 -0.8467 -0.3798
18046TIP3    H275630   1.573   2.344   6.109  0.5348 -0.5369  1.8602
18047TIP3   OH275631   3.566   3.955  17.028 -0.2538  0.4395 -0.0086
18047TIP3    H175632   3.652   3.991  17.048  0.3119  0.4295 -2.3889
18047TIP3    H275633   3.508   4.031  17.028 -0.0386  0.6065  0.3161
18048TIP3   OH275634   4.379   0.147   4.475 -0.3095  0.1582 -0.3315
18048TIP3    H175635   4.290   0.169   4.449 -0.7665 -0.6999  0.5076
18048TIP3    H275636   4.375   0.055   4.500  0.7373  0.2142  0.0597
18049TIP3   OH275637   0.769   2.773   5.760  0.2329 -0.1419 -0.2551
18049TIP3    H175638   0.723   2.727   5.690 -1.4835  1.3265 -0.1033
18049TIP3    H275639   0.862   2.762   5.737 -0.1485 -2.6855 -0.8225
18050TIP3   OH275640   2.307   3.788  12.700 -0.4999  0.2451 -0.8303
18050TIP3    H175641   2.361   3.809  12.624  0.3090 -0.0778 -0.3530
18050TIP3    H275642   2.232   3.742  12.664  0.1001 -0.3007 -1.3865
18051TIP3   OH275643   4.844   5.378  14.259  0.2967 -0.0678 -0.0682
18051TIP3    H175644   4.782   5.325  14.308  0.2644  0.8323  0.8947
18051TIP3    H275645   4.857   5.332  14.177  2.2398 -2.9594  1.7614
18052TIP3   OH275646   5.462   4.493   3.478 -0.3311  0.8181 -0.1342
18052TIP3    H175647   5.417   4.421   3.522  0.7148  0.9745  1.2204
18052TIP3    H275648   5.492   4.455   3.395 -0.5181 -0.0789  0.1975
18053TIP3   OH275649   1.369   3.988   0.160 -0.5129 -0.0278  0.5109
18053TIP3    H175650   1.456   3.970   0.125 -1.0169  1.3734 -1.5762
18053TIP3    H275651   1.379   3.979   0.255  1.5003 -1.4781  0.2042
18054TIP3   OH275652   2.031   6.705   1.350  0.6771 -0.6982  0.8189
18054TIP3    H175653   1.946   6.725   1.311  1.1675  0.4108  0.3114
18054TIP3    H275654   2.091   6.696   1.276  0.8565 -2.2432  1.1344
18055TIP3   OH275655   1.232   4.302   1.332 -0.5253 -0.2135 -0.1163
18055TIP3    H175656   1.287   4.245   1.387 -1.0060 -0.5906 -0.0277
18055TIP3    H275657   1.293   4.337   1.267 -0.6660 -2.7844 -1.7410
18056TIP3   OH275658   3.566   5.513  14.610 -0.1570 -0.2036 -0.0213
18056TIP3    H175659   3.600   5.450  14.673 -0.2395 -0.7849 -0.5552
18056TIP3    H275660   3.472   5.493  14.605 -0.1801 -0.0476 -0.2020
18057TIP3   OH275661   3.535   3.542   0.127 -0.0751  0.0757  0.1286
18057TIP3    H175662   3.564   3.553   0.037  2.3063 -2.4076  0.5366
18057TIP3    H275663   3.563   3.623   0.171 -0.5715  0.9713 -1.1535
18058TIP3   OH275664   4.267   5.925  13.832 -0.4380 -0.0127 -0.3059
18058TIP3    H175665   4.337   5.869  13.797  1.4631  2.2351 -0.2092
18058TIP3    H275666   4.310   5.979  13.898 -3.1158 -1.2955  2.6311
18059TIP3   OH275667   4.130   1.485  12.047 -0.0732  0.6128 -0.2773
18059TIP3    H175668   4.135   1.579  12.062  3.6666  0.4021  0.2760
18059TIP3    H275669   4.145   1.446  12.133  0.6082 -0.4992 -0.8864
18060TIP3   OH275670   2.415   6.223   3.210 -0.4601  0.4229 -0.6831
18060TIP3    H175671   2.440   6.267   3.129  0.0300 -0.0063 -0.7711
18060TIP3    H275672   2.447   6.133   3.200 -0.2429  0.4079  0.0519
18061TIP3   OH275673   1.314   3.849  14.016  0.1802 -0.3417  0.4432
18061TIP3    H175674   1.379   3.784  14.044  1.1520 -0.4687 -2.0080
18061TIP3    H275675   1.366   3.923  13.984 -0.8925  0.3699  0.3188
18062TIP3   OH275676   3.708   3.931  11.826  0.1077 -0.2550  0.2538
18062TIP3    H175677   3.668   3.960  11.908 -0.3313 -0.4745  0.1170
18062TIP3    H275678   3.776   3.996  11.808 -0.1881  0.1222  0.4861
18063TIP3   OH275679   4.240   3.018  14.614 -0.2619  0.6531  0.0226
18063TIP3    H175680   4.329   3.002  14.645  0.1086  1.4724 -0.5888
18063TIP3    H275681   4.192   2.938  14.636  0.9968 -0.4148 -1.0444
18064TIP3   OH275682   3.620   5.734   1.447 -0.6106  0.1048 -0.1648
18064TIP3    H175683   3.671   5.785   1.510 -1.5928 -0.2588  0.9432
18064TIP3    H275684   3.540   5.712   1.493 -0.2280 -2.4430 -0.6186
18065TIP3   OH275685   3.780   5.272  13.269  0.5512 -0.2374  0.0499
18065TIP3    H175686   3.747   5.346  13.319  1.7422  1.0820 -1.0790
18065TIP3    H275687   3.775   5.300  13.178  1.0282 -1.5417 -0.3952
18066TIP3   OH275688   0.993   2.203  11.380  0.5926  0.1229  0.5881
18066TIP3    H175689   0.939   2.263  11.329  2.3355  1.6836  0.5073
18066TIP3    H275690   0.970   2.222  11.471 -0.4680 -0.6788  0.4992
18067TIP3   OH275691   1.914   5.437  17.222  0.1020 -0.0445  0.4496
18067TIP3    H175692   1.890   5.511  17.166  0.1442 -0.6601 -0.3949
18067TIP3    H275693   1.886   5.360  17.172  2.9886 -0.7488 -0.1821
18068TIP3   OH275694   1.168   5.908   1.153  0.2558 -0.2629 -0.2599
18068TIP3    H175695   1.226   5.967   1.201 -2.4093  1.5739  0.7771
18068TIP3    H275696   1.107   5.874   1.219 -2.0503  0.5485 -1.8935
18069TIP3   OH275697   4.027   3.075   6.422 -0.1302 -0.7693 -0.5060
18069TIP3    H175698   4.115   3.057   6.390 -1.0732 -1.7932 -2.6844
18069TIP3    H275699   3.994   2.990   6.451 -0.3257 -0.3464  0.5479
18070TIP3   OH275700   4.231   0.702  15.424 -0.4926 -0.1272  0.3542
18070TIP3    H175701   4.219   0.735  15.335  0.0794  0.1365  0.3717
18070TIP3    H275702   4.238   0.781  15.477 -3.0787 -0.2596  0.9557
18071TIP3   OH275703   4.488   0.225   5.474 -0.2032  0.1023 -0.0085
18071TIP3    H175704   4.404   0.213   5.518  0.1327  2.7085  1.4488
18071TIP3    H275705   4.495   0.319   5.460  1.4974 -0.2898 -2.1183
18072TIP3   OH275706   4.811   0.571   4.226 -0.0512 -0.8238 -0.4827
18072TIP3    H175707   4.717   0.579   4.246  0.3001  0.8271  0.6480
18072TIP3    H275708   4.823   0.620   4.145  0.5098  2.5870  1.5723
18073TIP3   OH275709   3.792   0.384   5.013  0.3593  0.2007  0.0028
18073TIP3    H175710   3.707   0.357   4.979  0.4734  0.4658 -0.4951
18073TIP3    H275711   3.850   0.310   4.995 -0.1023 -0.6081  1.7073
18074TIP3   OH275712   2.831   6.638   5.938  0.0437 -0.8557 -0.9027
18074TIP3    H175713   2.904   6.584   5.909  1.6349  1.0491 -0.5828
18074TIP3    H275714   2.827   6.709   5.873  0.5653  0.8212  0.8428
18075TIP3   OH275715   1.375   5.252  13.100 -0.4617  0.0163  0.6856
18075TIP3    H175716   1.409   5.322  13.045 -1.8945  0.6964  0.6408
18075TIP3    H275717   1.356   5.181  13.039 -1.8306  0.6877  0.3131
18076TIP3   OH275718   5.381   5.006  15.261 -0.4413 -0.4279  0.0056
18076TIP3    H175719   5.396   4.998  15.167 -0.9174  1.3551 -0.2446
18076TIP3    H275720   5.395   5.099  15.280 -0.4702 -0.7401  1.6810
18077TIP3   OH275721   1.289   2.079  14.637 -0.1241 -0.0264  0.1276
18077TIP3    H175722   1.288   2.126  14.554  2.8000  1.4638  0.8499
18077TIP3    H275723   1.224   2.125  14.691 -2.0572 -1.0266 -1.3102
18078TIP3   OH275724   2.104   5.927  12.634  0.0078  0.0554  0.2521
18078TIP3    H175725   2.107   5.893  12.545 -1.5635  2.6045 -0.8246
18078TIP3    H275726   2.075   5.853  12.687  2.6466 -1.9924 -1.0491
18079TIP3   OH275727   5.158   1.371  14.769  0.3706 -0.0747 -0.4944
18079TIP3    H175728   5.234   1.357  14.826 -1.1733 -1.1109  1.3794
18079TIP3    H275729   5.162   1.300  14.705 -0.5013 -1.7670  1.2862
18080TIP3   OH275730   0.410   2.700   6.424  0.5928 -0.0813 -0.0179
18080TIP3    H175731   0.382   2.616   6.386  0.4535  0.2302 -0.6140
18080TIP3    H275732   0.466   2.675   6.498  0.4970 -0.7025 -0.1481
18081TIP3   OH275733   4.354   2.693  14.403  0.4008 -0.2818 -0.4787
18081TIP3    H175734   4.260   2.686  14.387  0.5917 -0.2116 -1.6603
18081TIP3    H275735   4.388   2.606  14.384  0.6880 -0.1037 -0.7746
18082TIP3   OH275736   3.941   0.617  15.680 -0.0344 -0.0707  0.0490
18082TIP3    H175737   3.994   0.582  15.753  0.4437 -0.3535 -0.4253
18082TIP3    H275738   3.970   0.707  15.671  0.6558 -0.3429 -0.4694
18083TIP3   OH275739   6.378   0.203  16.856  0.0054 -0.2352 -0.1598
18083TIP3    H175740   6.472   0.196  16.876 -0.1940 -0.6091  0.6757
18083TIP3    H275741   6.337   0.137  16.912 -0.5274 -1.6861 -2.1596
18084TIP3   OH275742   1.159   4.572  11.411  0.0903  0.2549  0.5068
18084TIP3    H175743   1.074   4.593  11.371  0.6135  0.1991 -0.6573
18084TIP3    H275744   1.223   4.616  11.355  0.8507  0.1346  1.2708
18085TIP3   OH275745   5.190   5.208   1.501 -0.0860  0.5286  0.0166
18085TIP3    H175746   5.223   5.181   1.415 -0.6898  0.6152 -0.2462
18085TIP3    H275747   5.246   5.162   1.564 -0.1538 -0.1630 -0.4236
18086TIP3   OH275748   2.034   0.352   1.126  0.5646  0.4674 -0.4361
18086TIP3    H175749   2.092   0.425   1.105 -0.0650  1.3457  0.8022
18086TIP3    H275750   1.946   0.387   1.112  0.2739 -0.1484 -0.1506
18087TIP3   OH275751   2.697   4.580   3.093  0.0967  0.0481  0.1842
18087TIP3    H175752   2.641   4.541   3.161  0.5988 -1.6190 -0.3196
18087TIP3    H275753   2.638   4.637   3.044 -1.1538 -1.5208 -0.2096
18088TIP3   OH275754   4.167   3.519   3.429  1.1118  0.0972  0.0986
18088TIP3    H175755   4.173   3.563   3.344 -0.6411  0.5992  0.2015
18088TIP3    H275756   4.253   3.530   3.469  0.9163  2.8751 -0.1802
18089TIP3   OH275757   1.454   6.240   5.427 -0.0046  0.5579 -0.1024
18089TIP3    H175758   1.549   6.253   5.429 -0.2293  2.1743  1.4495
18089TIP3    H275759   1.440   6.157   5.471  0.5485  1.3773  1.6448
18090TIP3   OH275760   5.017   6.148  16.469  0.3887  0.1684 -0.2081
18090TIP3    H175761   4.927   6.117  16.456  0.3116  0.6525 -0.8230
18090TIP3    H275762   5.015   6.192  16.554  0.1951 -0.3644  0.0702
18091TIP3   OH275763   4.355   6.380   4.308 -0.0556 -0.0152 -0.5949
18091TIP3    H175764   4.329   6.295   4.344  2.0732 -0.4679 -0.0632
18091TIP3    H275765   4.447   6.370   4.287  0.4146  2.3838  0.1316
18092TIP3   OH275766   5.077   1.313   2.144 -0.4533 -0.5937  0.0939
18092TIP3    H175767   5.081   1.224   2.110 -0.4960 -0.2586 -0.8234
18092TIP3    H275768   5.138   1.362   2.089 -2.2418  0.4465 -1.0389
18093TIP3   OH275769   0.643   0.537   4.983 -0.3699 -0.2016  0.1985
18093TIP3    H175770   0.659   0.609   5.044 -0.2646  0.3286 -0.4562
18093TIP3    H275771   0.663   0.458   5.034 -2.6210  0.0945  1.6276
18094TIP3   OH275772   2.072   2.283   1.320 -0.4890 -0.3848  0.1166
18094TIP3    H175773   2.148   2.279   1.378  0.6707  0.6978 -1.2971
18094TIP3    H275774   2.072   2.199   1.274  1.1603  0.4618 -1.4729
18095TIP3   OH275775   6.143   4.810  14.396 -0.1866 -0.2518 -0.6761
18095TIP3    H175776   6.192   4.752  14.338  0.1447 -0.9093  0.2479
18095TIP3    H275777   6.138   4.763  14.479  0.8178  1.3997  0.3573
18096TIP3   OH275778   6.522   4.541   2.273  0.4487  0.8764 -0.1530
18096TIP3    H175779   6.468   4.471   2.236  2.2589 -0.6083 -0.0082
18096TIP3    H275780   6.481   4.560   2.358  0.6662 -0.8594  0.3485
18097TIP3   OH275781   6.449   2.867   5.439  0.1673  0.8929 -0.3430
18097TIP3    H175782   6.415   2.778   5.430  0.7689  0.4911  1.3276
18097TIP3    H275783   6.528   2.868   5.385  0.7322  0.1105  0.4652
18098TIP3   OH275784   1.318   5.595  15.038  0.0282 -0.5148  0.0278
18098TIP3    H175785   1.339   5.555  14.953 -0.1786 -2.3540  0.8217
18098TIP3    H275786   1.385   5.560  15.097  0.3597  1.0065  0.5726
18099TIP3   OH275787   1.166   4.768   1.179 -0.1676 -0.6016 -0.0944
18099TIP3    H175788   1.224   4.842   1.198 -0.8063 -0.4823  1.4532
18099TIP3    H275789   1.078   4.806   1.178 -0.4455 -1.2317  0.1086
18100TIP3   OH275790   4.366   2.700   3.304 -0.1862  0.0542 -1.0728
18100TIP3    H175791   4.427   2.724   3.373 -1.1967 -0.7512  0.1187
18100TIP3    H275792   4.329   2.783   3.274  0.5910  0.4393 -0.9758
18101TIP3   OH275793   2.598   3.091   1.352 -0.0694 -0.0192 -0.1126
18101TIP3    H175794   2.666   3.157   1.361 -0.6829  0.8109 -1.5986
18101TIP3    H275795   2.549   3.096   1.435 -1.0215  2.4054 -0.7904
18102TIP3   OH275796   0.641   1.287   3.525  0.0702  0.3981  0.1000
18102TIP3    H175797   0.619   1.199   3.554  1.7597 -0.4124 -1.0532
18102TIP3    H275798   0.634   1.341   3.605  1.5472 -1.2280  1.3596
18103TIP3   OH275799   5.631   3.407  15.947  0.3734  0.8246 -0.6187
18103TIP3    H175800   5.657   3.319  15.918  1.6587  0.8011  0.5736
18103TIP3    H275801   5.588   3.445  15.870  0.4778 -0.5665 -1.3885
18104TIP3   OH275802   3.602   5.848  14.916  0.2660  0.1396  0.3359
18104TIP3    H175803   3.686   5.893  14.924  1.0806 -1.6490  2.3659
18104TIP3    H275804   3.596   5.824  14.824  1.3706  1.4436 -0.0846
18105TIP3   OH275805   1.020   4.115  13.909  0.1904 -0.4204 -0.1870
18105TIP3    H175806   0.964   4.193  13.913 -0.5378 -0.9329 -0.2257
18105TIP3    H275807   0.965   4.048  13.868  1.9328 -0.0267 -3.3376
18106TIP3   OH275808   4.146   2.373   3.550  0.3889  0.1739 -0.7683
18106TIP3    H175809   4.080   2.313   3.515 -1.9941  1.6686  0.9277
18106TIP3    H275810   4.162   2.436   3.480  2.1390 -1.7928 -2.1860
18107TIP3   OH275811   1.034   2.518  14.709  0.8050  0.5331  0.6943
18107TIP3    H175812   1.027   2.550  14.619  2.9474 -1.3521 -0.1931
18107TIP3    H275813   0.961   2.456  14.718  1.7721 -0.8080 -0.4550
18108TIP3   OH275814   1.488   6.439   3.319  0.0636  0.3616  0.3087
18108TIP3    H175815   1.432   6.451   3.243  0.1987 -2.3369 -0.2902
18108TIP3    H275816   1.428   6.420   3.391  0.0980 -1.3720 -0.0867
18109TIP3   OH275817   6.366   6.024   6.544 -0.7342 -0.4254 -0.2863
18109TIP3    H175818   6.297   5.962   6.521 -2.5861  1.8609 -1.0068
18109TIP3    H275819   6.322   6.094   6.591  1.6766 -0.6815  2.5259
18110TIP3   OH275820   2.381   4.529   1.745 -0.1052 -0.5460 -0.5691
18110TIP3    H175821   2.399   4.602   1.686  0.4234 -0.9414 -0.9040
18110TIP3    H275822   2.327   4.567   1.814 -0.6054 -0.0490 -1.2323
18111TIP3   OH275823   4.347   0.637   2.211 -0.0982  0.0113  0.1026
18111TIP3    H175824   4.259   0.621   2.176  0.5164 -0.8550 -1.0811
18111TIP3    H275825   4.385   0.550   2.221  0.0553  0.2954  2.1568
18112TIP3   OH275826   3.008   5.887  14.755  0.5786  0.5967 -0.4711
18112TIP3    H175827   2.968   5.972  14.737 -0.9090 -0.1755 -0.9184
18112TIP3    H275828   2.948   5.824  14.715  0.6429 -0.7586  1.5057
18113TIP3   OH275829   5.985   3.755  13.292 -0.2207  0.1705  0.1212
18113TIP3    H175830   6.015   3.775  13.381  3.0029  0.0601 -0.8559
18113TIP3    H275831   5.969   3.840  13.252  0.8345  0.3408  0.0342
18114TIP3   OH275832   0.953   2.800  15.750 -0.0591  0.0255  0.1892
18114TIP3    H175833   0.868   2.830  15.718 -0.2532  0.5068  1.1284
18114TIP3    H275834   1.001   2.881  15.769  0.1735 -0.2406  0.7712
18115TIP3   OH275835   0.290   4.274  11.960  0.0627  0.3055 -0.7859
18115TIP3    H175836   0.208   4.231  11.982 -1.1399  2.5699 -0.6574
18115TIP3    H275837   0.297   4.267  11.865 -0.3650  0.2067 -0.8128
18116TIP3   OH275838   0.203   1.856   4.276  0.0459  0.0247 -1.0866
18116TIP3    H175839   0.282   1.907   4.293  1.0886 -2.3218  1.6762
18116TIP3    H275840   0.235   1.772   4.242 -1.1267 -1.3609  1.0960
18117TIP3   OH275841   6.452   0.779  15.627 -0.2141  0.3205  0.2615
18117TIP3    H175842   6.512   0.733  15.686  0.0933  1.7027  1.0467
18117TIP3    H275843   6.507   0.842  15.581 -0.4018 -0.9483 -1.7449
18118TIP3   OH275844   5.366   4.577   5.480 -0.5807  0.0895 -0.1235
18118TIP3    H175845   5.411   4.661   5.493  0.1737 -0.3198 -0.0570
18118TIP3    H275846   5.423   4.513   5.523 -1.2881 -0.4213  0.0515
18119TIP3   OH275847   0.913   0.946   6.645  0.0803 -1.0102 -0.0666
18119TIP3    H175848   0.984   1.009   6.635 -0.1242 -0.7178  0.2991
18119TIP3    H275849   0.947   0.879   6.704 -0.0730 -0.6726  0.4132
18120TIP3   OH275850   4.574   1.438  11.638 -0.7812 -0.5329  0.2141
18120TIP3    H175851   4.479   1.425  11.647 -0.6935 -0.8313  0.7354
18120TIP3    H275852   4.597   1.398  11.555 -1.4622  1.3837 -0.9309
18121TIP3   OH275853   6.524   0.684   2.214 -0.2665 -0.1931 -0.3429
18121TIP3    H175854   6.571   0.718   2.138  1.2937 -0.8284  0.2967
18121TIP3    H275855   6.432   0.698   2.195  0.0853 -0.7009 -2.5184
18122TIP3   OH275856   2.259   5.295  11.375  0.5871 -0.3374 -0.1537
18122TIP3    H175857   2.195   5.363  11.397 -0.7684 -1.8512  0.6505
18122TIP3    H275858   2.302   5.275  11.458 -1.4320 -2.8953  0.3253
18123TIP3   OH275859   5.064   0.668  13.733 -0.2219 -0.3717  0.1700
18123TIP3    H175860   5.048   0.755  13.696  2.3598 -0.0347 -0.1768
18123TIP3    H275861   5.043   0.607  13.662  1.0795  0.1056 -0.6201
18124TIP3   OH275862   0.576   2.503   0.887 -0.0011  0.1983 -0.7011
18124TIP3    H175863   0.553   2.543   0.803 -1.8867  1.7953  0.5298
18124TIP3    H275864   0.627   2.571   0.932 -1.4011  0.4437  0.5479
18125TIP3   OH275865   2.557   4.579   0.097 -0.2586  0.4120  0.2984
18125TIP3    H175866   2.607   4.658   0.118 -0.2364  0.2828  0.7486
18125TIP3    H275867   2.594   4.548   0.015  0.7758  0.0129  0.9033
18126TIP3   OH275868   2.646   1.831  16.167 -0.0230 -0.3746 -0.4788
18126TIP3    H175869   2.650   1.897  16.097 -0.0582  0.9800  0.7781
18126TIP3    H275870   2.554   1.826  16.190  0.0511 -0.4965 -0.2094
18127TIP3   OH275871   1.895   6.246   4.731 -0.2082 -0.0378  0.0626
18127TIP3    H175872   1.803   6.226   4.750 -0.4341  1.7962  1.0668
18127TIP3    H275873   1.944   6.206   4.802 -0.1450 -1.6260 -0.8524
18128TIP3   OH275874   1.501   2.196  11.030 -0.8383 -0.5058 -0.3070
18128TIP3    H175875   1.536   2.280  11.001 -3.4855  0.9073  0.3819
18128TIP3    H275876   1.418   2.187  10.983 -1.6913 -1.5950  1.3468
18129TIP3   OH275877   4.871   0.308   3.288  0.1299 -1.0089 -0.1092
18129TIP3    H175878   4.951   0.353   3.261 -0.3383 -0.7180 -1.0492
18129TIP3    H275879   4.902   0.232   3.338  1.0209 -1.2547 -1.0122
18130TIP3   OH275880   0.225   3.932   3.458  0.2836 -0.6783 -0.1877
18130TIP3    H175881   0.245   3.960   3.548  1.5077 -2.1892  0.0098
18130TIP3    H275882   0.153   3.990   3.432  0.4626  0.3402  1.4634
18131TIP3   OH275883   0.825   6.102   3.173  0.1002 -0.3358 -0.0012
18131TIP3    H175884   0.918   6.109   3.197 -0.2036  1.6096  0.6352
18131TIP3    H275885   0.824   6.044   3.097  2.0121  1.0473 -1.1138
18132TIP3   OH275886   3.309   3.145   4.188  0.3370 -0.2536 -0.1086
18132TIP3    H175887   3.356   3.099   4.258 -1.1078 -0.7936  0.5152
18132TIP3    H275888   3.221   3.159   4.222 -0.5045 -0.8520 -1.9379
18133TIP3   OH275889   0.997   2.581   5.873  0.0501 -0.5402  0.0591
18133TIP3    H175890   1.017   2.670   5.845 -0.7924  0.4207  2.3275
18133TIP3    H275891   1.077   2.550   5.915 -0.8564  0.7061  2.8744
18134TIP3   OH275892   2.695   5.923   2.850  0.2899  0.1646 -0.3241
18134TIP3    H175893   2.653   6.010   2.849 -0.2166 -0.0604  1.0711
18134TIP3    H275894   2.625   5.863   2.875  0.7635 -0.5934 -0.8051
18135TIP3   OH275895   2.778   5.825   1.886  0.2391  0.4590  1.0613
18135TIP3    H175896   2.806   5.916   1.898  2.1620  0.1022 -0.4531
18135TIP3    H275897   2.726   5.826   1.806  0.9702  0.0792  0.5800
18136TIP3   OH275898   2.627   6.770   5.614 -0.0213  0.5939 -0.3916
18136TIP3    H175899   2.649   6.771   5.521  1.4820 -1.1937 -0.0945
18136TIP3    H275900   2.637   6.678   5.640  0.3175  1.1883  1.6990
18137TIP3   OH275901   4.018   4.669   6.138 -0.0735  0.5816  0.3324
18137TIP3    H175902   4.053   4.758   6.134  2.4971 -0.4069 -0.3213
18137TIP3    H275903   4.004   4.652   6.231  1.8828  0.7787  0.6731
18138TIP3   OH275904   2.467   6.623  11.395  0.0809 -0.4941 -0.0046
18138TIP3    H175905   2.389   6.623  11.339  1.1845 -0.3936 -1.5954
18138TIP3    H275906   2.508   6.708  11.379  0.0005 -0.1333  1.6007
18139TIP3   OH275907   6.539   5.390  11.970 -0.0188  0.4699  0.0731
18139TIP3    H175908   6.558   5.415  11.879 -2.7715  0.0011 -0.6989
18139TIP3    H275909   6.624   5.367  12.007  1.2394  1.2302 -2.2027
18140TIP3   OH275910   4.308   5.259   1.787 -0.0769  0.3948  0.3086
18140TIP3    H175911   4.294   5.352   1.805 -1.0038  0.6966 -1.7892
18140TIP3    H275912   4.323   5.219   1.872 -0.7357  2.2942  1.3272
18141TIP3   OH275913   3.236   1.315   0.353 -0.0309  0.1788 -0.0513
18141TIP3    H175914   3.238   1.270   0.269 -1.9479 -0.1294  0.0346
18141TIP3    H275915   3.288   1.394   0.340  0.5696 -0.4013 -1.1920
18142TIP3   OH275916   1.512   1.039  15.592 -0.0801  0.3917  0.0097
18142TIP3    H175917   1.581   0.999  15.645  0.8584  0.8024 -0.8936
18142TIP3    H275918   1.431   1.020  15.640  0.4997 -1.3661  0.3120
18143TIP3   OH275919   5.613   0.081   1.459  0.1273  0.3310  0.0390
18143TIP3    H175920   5.609   0.166   1.502 -1.1653  0.5250 -0.4365
18143TIP3    H275921   5.611   0.102   1.365 -0.5779 -0.2306 -0.0764
18144TIP3   OH275922   1.069   5.960  12.897  0.4854  0.1365  0.3178
18144TIP3    H175923   1.056   5.969  12.991 -0.9216 -0.2183  0.1625
18144TIP3    H275924   1.128   5.884  12.889 -0.8734 -1.0009  0.8428
18145TIP3   OH275925   5.352   0.911  14.826  0.2755  0.8220 -0.3726
18145TIP3    H175926   5.373   0.818  14.825 -0.6094  0.6274 -1.7569
18145TIP3    H275927   5.432   0.954  14.859  1.4739 -0.2168 -1.9052
18146TIP3   OH275928   3.444   1.938  14.311 -0.7896 -0.1522  0.4327
18146TIP3    H175929   3.407   1.960  14.226 -0.7892  0.2192  0.5253
18146TIP3    H275930   3.516   1.879  14.292  0.8398  1.9236 -0.0259
18147TIP3   OH275931   2.027   2.234   6.579  0.1972  0.5103  0.1128
18147TIP3    H175932   1.953   2.231   6.640  0.7368 -1.1888  0.7178
18147TIP3    H275933   2.024   2.149   6.534  1.5488  0.5686 -0.1065
18148TIP3   OH275934   2.200   2.280   2.687 -0.1727  0.1734  0.0790
18148TIP3    H175935   2.279   2.245   2.729  0.8904  0.4218 -1.6689
18148TIP3    H275936   2.190   2.367   2.726 -0.5538 -0.5008  1.5254
18149TIP3   OH275937   5.337   1.347   6.040 -0.1214 -0.0121 -0.1017
18149TIP3    H175938   5.300   1.426   6.078 -0.7214  0.0718 -0.8443
18149TIP3    H275939   5.401   1.378   5.977  0.6836 -0.1459  0.6428
18150TIP3   OH275940   5.272   0.960  14.572 -0.0891  0.2372  0.2120
18150TIP3    H175941   5.293   0.947  14.665  2.2216 -1.4073 -0.4815
18150TIP3    H275942   5.311   1.045  14.550  0.2614  0.1522  0.5046
18151TIP3   OH275943   6.650   0.463   5.459  0.6071  0.1948  0.5459
18151TIP3    H175944   6.699   0.492   5.536  0.8156  1.7019 -0.1388
18151TIP3    H275945   6.710   0.478   5.386 -0.2580  0.4670 -0.1108
18152TIP3   OH275946   5.861   5.991  11.405  0.2900  0.1313  0.2391
18152TIP3    H175947   5.874   6.020  11.315  0.2091  0.2871  0.2774
18152TIP3    H275948   5.857   5.895  11.399 -2.9424  0.2339 -0.3591
18153TIP3   OH275949   1.727   5.320   1.943  0.1984 -0.1706  0.3095
18153TIP3    H175950   1.797   5.385   1.932 -0.8010  0.7291 -0.7378
18153TIP3    H275951   1.691   5.308   1.856 -1.5316  0.0108  0.9823
18154TIP3   OH275952   4.718   6.149  16.132  0.7510 -0.0563 -0.2957
18154TIP3    H175953   4.659   6.205  16.182 -0.0304 -1.6055  0.5616
18154TIP3    H275954   4.665   6.117  16.059  0.5414 -1.3904  0.4302
18155TIP3   OH275955   3.175   2.045   5.927 -0.0578 -0.2874 -0.2355
18155TIP3    H175956   3.122   2.028   6.005 -0.1834 -0.6088 -0.3886
18155TIP3    H275957   3.162   2.138   5.909  2.1347  0.4679  1.7410
18156TIP3   OH275958   5.541   3.947   5.863  0.3980  0.0367  0.3584
18156TIP3    H175959   5.597   3.971   5.937 -0.4162  0.4364  0.8582
18156TIP3    H275960   5.461   3.915   5.904  0.1785 -0.3195 -0.3508
18157TIP3   OH275961   3.686   6.719   4.845 -0.5528 -0.4082 -0.9920
18157TIP3    H175962   3.727   6.633   4.842  0.9130  0.2764 -0.8424
18157TIP3    H275963   3.596   6.702   4.872  0.1288 -1.7658  0.4652
18158TIP3   OH275964   5.353   6.408  16.195 -0.9348  0.4171  0.2181
18158TIP3    H175965   5.311   6.324  16.213  1.1775 -1.0964 -1.6647
18158TIP3    H275966   5.418   6.418  16.265  2.7182 -2.3191 -2.5733
18159TIP3   OH275967   3.312   4.924   0.724 -0.6558 -0.0520  0.0365
18159TIP3    H175968   3.348   4.921   0.813  1.2549  0.4445 -0.6978
18159TIP3    H275969   3.253   4.999   0.724  3.1039  3.0690 -0.4310
18160TIP3   OH275970   4.886   0.329  10.879  0.0538 -0.4451  0.0894
18160TIP3    H175971   4.930   0.279  10.949  0.0141  1.6133  1.6384
18160TIP3    H275972   4.793   0.321  10.900 -0.1507 -2.2269 -1.4141
18161TIP3   OH275973   4.933   0.386  11.453 -0.2809 -0.5095 -0.0139
18161TIP3    H175974   4.983   0.350  11.380 -0.0825 -2.2830  0.9754
18161TIP3    H275975   4.911   0.310  11.508 -2.4151  0.4729  0.5691
18162TIP3   OH275976   0.475   1.405   4.368  0.0700 -0.3863  0.0874
18162TIP3    H175977   0.480   1.450   4.284 -1.7880 -0.9011 -0.3271
18162TIP3    H275978   0.499   1.472   4.432 -1.7112  0.9554 -0.6004
18163TIP3   OH275979   5.073   0.791  14.166  0.0867  0.1854  0.0183
18163TIP3    H175980   4.985   0.827  14.157 -0.0358  0.7716  3.0465
18163TIP3    H275981   5.125   0.863  14.201  1.3329 -0.6754 -0.0265
18164TIP3   OH275982   4.703   0.088   0.107  0.8934 -0.7757  0.1179
18164TIP3    H175983   4.779   0.134   0.141  0.5825  1.5869 -2.2322
18164TIP3    H275984   4.725   0.068   0.016 -1.5837  0.7319 -0.8611
18165TIP3   OH275985   1.185   5.731  15.833 -0.1168  0.2225  0.3747
18165TIP3    H175986   1.183   5.697  15.744  1.4979  0.1041  0.3777
18165TIP3    H275987   1.144   5.663  15.886  0.1517 -0.2999 -0.0863
18166TIP3   OH275988   2.961   3.212  13.693  0.3332  0.4919 -0.3852
18166TIP3    H175989   2.930   3.162  13.769 -1.2966  1.2366 -0.5239
18166TIP3    H275990   3.043   3.171  13.669 -0.4199 -1.4202  0.1992
18167TIP3   OH275991   2.966   1.540  11.935 -0.5112 -0.0131  0.7198
18167TIP3    H175992   3.042   1.515  11.884 -3.0997 -3.2438 -1.7293
18167TIP3    H275993   2.980   1.499  12.021  0.8760  0.1802  0.5982
18168TIP3   OH275994   3.129   4.629   2.505 -0.0757 -0.4662 -0.0199
18168TIP3    H175995   3.191   4.568   2.467  0.6269  0.6542 -0.7011
18168TIP3    H275996   3.129   4.704   2.445 -0.9726  0.1694  0.7563
18169TIP3   OH275997   1.502   4.013   2.078 -0.0341  0.0101  0.6038
18169TIP3    H175998   1.465   4.032   2.164  0.9165  2.1258  0.5866
18169TIP3    H275999   1.552   4.092   2.056  1.9205 -1.5339 -0.7117
18170TIP3   OH276000   3.463   1.230   4.199 -0.4499  0.0838  0.1385
18170TIP3    H176001   3.413   1.222   4.118 -0.3161  1.1837 -0.0540
18170TIP3    H276002   3.450   1.145   4.243 -1.2657 -0.1850 -0.5985
18171TIP3   OH276003   1.094   3.787  17.106 -0.0859 -0.5439 -0.2588
18171TIP3    H176004   1.068   3.879  17.103  1.1632 -0.1051  1.5270
18171TIP3    H276005   1.025   3.744  17.155 -0.6916 -0.5745 -1.1293
18172TIP3   OH276006   1.911   4.057  15.703 -0.1106 -0.3112  0.3402
18172TIP3    H176007   1.949   4.078  15.789  2.3788 -3.4064  0.0875
18172TIP3    H276008   1.935   4.131  15.647 -0.4105  0.9963  1.8996
18173TIP3   OH276009   0.304   4.631   1.336 -0.2263  0.2723  0.0874
18173TIP3    H176010   0.310   4.667   1.248  0.4824 -0.2320 -0.0747
18173TIP3    H276011   0.216   4.652   1.365 -0.6489 -0.0357 -0.9530
18174TIP3   OH276012   3.704   4.296  17.055  0.6946 -0.1905  0.3596
18174TIP3    H176013   3.703   4.251  17.139  0.2641  0.2891  0.6175
18174TIP3    H276014   3.727   4.387  17.077 -2.2140  0.6021  0.3106
18175TIP3   OH276015   3.889   3.027   2.422 -0.1343  0.0733 -0.9785
18175TIP3    H176016   3.957   3.025   2.490  1.7167 -0.4106 -2.8072
18175TIP3    H276017   3.814   2.984   2.463  0.9589 -0.2292  0.7777
18176TIP3   OH276018   2.944   1.818  16.308 -0.0018  0.2270  0.0104
18176TIP3    H176019   3.026   1.866  16.294  1.3719 -1.8847  0.6705
18176TIP3    H276020   2.913   1.797  16.220  0.1815  0.9526 -0.2336
18177TIP3   OH276021   1.406   6.067   5.628 -0.3471 -0.4295  0.0911
18177TIP3    H176022   1.420   6.092   5.720 -0.8727  1.3939 -0.3214
18177TIP3    H276023   1.454   5.985   5.619  0.2493 -0.3014  1.8304
18178TIP3   OH276024   1.802   0.472   5.456 -0.3317 -0.2938  0.0606
18178TIP3    H176025   1.790   0.423   5.537  0.5387 -0.6498 -0.0254
18178TIP3    H276026   1.837   0.556   5.483 -0.9174 -0.0714  0.1291
18179TIP3   OH276027   3.620   0.458   4.648 -0.3968 -0.1200  0.1251
18179TIP3    H176028   3.529   0.480   4.625 -0.9009 -2.5594 -0.3989
18179TIP3    H276029   3.613   0.421   4.736  0.0753 -0.3567  0.0611
18180TIP3   OH276030   6.045   5.418  16.782  0.0827  0.2217 -0.6908
18180TIP3    H176031   6.079   5.331  16.806 -1.4319 -0.3337 -0.4969
18180TIP3    H276032   6.123   5.470  16.765  1.0462 -0.8844  0.2338
18181TIP3   OH276033   4.810   4.115  14.352 -0.0885 -0.0798  0.1906
18181TIP3    H176034   4.857   4.199  14.347 -2.6592  1.5795  2.5614
18181TIP3    H276035   4.855   4.067  14.422 -0.0302  0.2984  0.4184
18182TIP3   OH276036   2.803   6.728   3.148 -0.0221 -0.1285 -0.1280
18182TIP3    H176037   2.886   6.765   3.118  0.5871 -0.4617  1.1118
18182TIP3    H276038   2.738   6.793   3.124  0.4108 -0.4870 -2.3470
18183TIP3   OH276039   5.785   1.141   2.556  0.5930 -0.1005 -0.3746
18183TIP3    H176040   5.724   1.081   2.514 -0.4271  0.3887  0.3888
18183TIP3    H276041   5.811   1.097   2.637  0.2132  0.2706 -0.0466
18184TIP3   OH276042   4.658   5.833   3.095  0.2344 -0.3035 -0.3993
18184TIP3    H176043   4.629   5.924   3.085  1.1308 -0.0336 -0.5836
18184TIP3    H276044   4.668   5.821   3.189 -2.1807 -0.9441 -0.1999
18185TIP3   OH276045   1.606   3.837  12.553  0.2848  0.4578 -0.6875
18185TIP3    H176046   1.635   3.775  12.486  1.0143 -0.8559  0.8251
18185TIP3    H276047   1.686   3.872  12.590 -0.0607 -0.2749  0.8189
18186TIP3   OH276048   4.930   4.789   1.754 -0.2953 -0.6314 -0.6220
18186TIP3    H176049   4.891   4.717   1.803 -2.4329 -0.0287 -1.3823
18186TIP3    H276050   4.921   4.866   1.811 -0.5781 -0.4054 -0.9688
18187TIP3   OH276051   2.763   1.902   3.153  0.4345 -0.0050 -0.2586
18187TIP3    H176052   2.777   1.873   3.063 -0.8268 -1.8816  0.1039
18187TIP3    H276053   2.850   1.928   3.184  0.9809  0.0679 -1.8060
18188TIP3   OH276054   1.802   0.040   1.710 -0.4338  0.5243  0.3122
18188TIP3    H176055   1.748   0.082   1.776  1.2115  0.4636  1.7237
18188TIP3    H276056   1.848   0.113   1.668 -0.5583  0.4605  0.0654
18189TIP3   OH276057   3.287   2.521  11.888 -0.0163 -0.0827  0.4688
18189TIP3    H176058   3.349   2.452  11.911 -0.3938 -1.0998 -1.4142
18189TIP3    H276059   3.210   2.503  11.941 -0.2168 -1.3143 -0.2248
18190TIP3   OH276060   1.988   6.640  12.144 -0.5688 -0.1616  0.1074
18190TIP3    H176061   1.937   6.577  12.196  1.7108 -1.9471  0.2522
18190TIP3    H276062   2.056   6.587  12.103 -2.4135  1.1677 -4.9204
18191TIP3   OH276063   3.661   3.922   0.481  0.4058  0.8747 -0.3856
18191TIP3    H176064   3.587   3.975   0.511 -0.8759 -0.7743 -0.5386
18191TIP3    H276065   3.701   3.889   0.561 -0.2823  0.1160 -0.3465
18192TIP3   OH276066   1.184   2.110   0.075 -0.7084 -0.7471  0.1159
18192TIP3    H176067   1.251   2.171   0.045  0.1779 -1.3817  0.7866
18192TIP3    H276068   1.144   2.153   0.151 -0.6964 -0.6064  0.0420
18193TIP3   OH276069   4.796   1.045  14.930 -0.5236 -0.0478 -0.2188
18193TIP3    H176070   4.842   1.128  14.916  0.8036 -1.0496 -2.1160
18193TIP3    H276071   4.728   1.066  14.993  2.9104  1.3565  3.2307
18194TIP3   OH276072   4.117   3.457   4.606 -0.1904 -0.1248 -0.1834
18194TIP3    H176073   4.104   3.448   4.512 -2.1451  1.1186 -0.0541
18194TIP3    H276074   4.166   3.379   4.631  0.9513 -0.1332 -2.3329
18195TIP3   OH276075   3.844   2.353  12.878 -0.1984 -0.4637  0.8125
18195TIP3    H176076   3.820   2.368  12.787 -1.4802  3.0920  1.6553
18195TIP3    H276077   3.805   2.269  12.901 -2.0968 -0.1418 -1.1651
18196TIP3   OH276078   3.357   3.973  12.434  0.0480  0.6133 -0.3008
18196TIP3    H176079   3.394   4.055  12.402  0.5273  0.6414  0.3006
18196TIP3    H276080   3.311   3.936  12.359 -1.5506  2.2150 -0.1223
18197TIP3   OH276081   1.309   3.075  12.079 -0.3215  0.3178  0.3613
18197TIP3    H176082   1.286   3.105  12.167 -0.8118 -0.0481  0.3628
18197TIP3    H276083   1.241   3.112  12.023 -1.1830 -1.1223  0.4260
18198TIP3   OH276084   6.388   1.987  12.006  0.2932 -0.2680  0.0244
18198TIP3    H176085   6.295   2.004  12.024  1.1613  2.8293  1.9727
18198TIP3    H276086   6.396   1.997  11.911 -1.4926 -1.3583 -0.2733
18199TIP3   OH276087   2.727   6.716   3.830  0.4222 -0.1968  0.1585
18199TIP3    H176088   2.812   6.673   3.835  0.3691 -0.6500 -2.3383
18199TIP3    H276089   2.669   6.649   3.794 -0.0785  1.3329 -1.9791
18200TIP3   OH276090   3.334   5.221   1.028 -0.3394  0.3963 -0.2713
18200TIP3    H176091   3.380   5.194   1.108  0.2019  1.2590 -0.2842
18200TIP3    H276092   3.397   5.204   0.958 -0.5628  0.2762 -0.4430
18201TIP3   OH276093   6.324   2.070   3.227  0.1693  0.5698 -0.4656
18201TIP3    H176094   6.369   2.143   3.269  2.4335 -0.5755 -0.8145
18201TIP3    H276095   6.295   2.015   3.300  2.3043 -0.3824 -0.3089
18202TIP3   OH276096   0.452   6.099  14.431 -0.1253  0.1350 -0.0278
18202TIP3    H176097   0.405   6.182  14.443  1.3280  0.9566  0.1168
18202TIP3    H276098   0.421   6.043  14.502  0.9442  1.5297  1.5985
18203TIP3   OH276099   4.689   2.589  16.312 -0.1000 -0.1670 -0.0641
18203TIP3    H176100   4.701   2.532  16.388  2.3564  0.8546  0.3592
18203TIP3    H276101   4.595   2.596  16.302 -0.4524 -1.8262  1.7443
18204TIP3   OH276102   5.546   3.373   4.337 -0.4061 -0.1970 -0.3174
18204TIP3    H176103   5.549   3.280   4.360 -0.7421 -0.2118 -0.3235
18204TIP3    H276104   5.636   3.403   4.344 -0.3737 -0.4030  0.2109
18205TIP3   OH276105   0.017   1.190   2.259  0.4774 -0.0703 -0.0639
18205TIP3    H176106   0.097   1.137   2.265  0.3625 -0.1549  0.8197
18205TIP3    H276107  -0.036   1.161   2.333  0.5882  1.5608  0.6824
18206TIP3   OH276108   1.886   4.544   5.282  0.1753  0.5012  0.4666
18206TIP3    H176109   1.819   4.487   5.319  1.1681  0.6352  2.5542
18206TIP3    H276110   1.863   4.631   5.314  1.4288  0.5137  1.4018
18207TIP3   OH276111   3.504   6.698  13.939 -0.0669  0.5802  0.0481
18207TIP3    H176112   3.497   6.721  14.032 -0.0172  0.5803  0.0521
18207TIP3    H276113   3.506   6.602  13.938  0.9511  0.5957  0.1258
18208TIP3   OH276114   6.097   4.604  11.717 -0.1934 -0.4933 -0.3542
18208TIP3    H176115   6.038   4.561  11.779 -0.9128 -0.5239 -1.0517
18208TIP3    H276116   6.071   4.571  11.632  2.0911 -1.9766 -0.5263
18209TIP3   OH276117   6.187   3.094   0.875  0.4738  0.2419  0.1665
18209TIP3    H176118   6.119   3.117   0.938  0.4402 -0.7134  0.4907
18209TIP3    H276119   6.211   3.177   0.834 -0.4129  0.6796  0.5232
18210TIP3   OH276120   3.195   0.294  14.167  0.3565 -0.4876 -0.4262
18210TIP3    H176121   3.170   0.358  14.233  1.8157 -1.0108  0.6477
18210TIP3    H276122   3.133   0.308  14.096 -0.4074  0.9669  0.5025
18211TIP3   OH276123   6.116   5.197  11.336  0.0469 -0.4982  0.4496
18211TIP3    H176124   6.121   5.267  11.401  1.4690  0.3496 -0.5456
18211TIP3    H276125   6.111   5.243  11.252  1.8448 -1.5843 -0.2782
18212TIP3   OH276126   1.033   5.434   2.615  0.2323 -0.4135 -0.0246
18212TIP3    H176127   0.993   5.475   2.538 -1.5132  0.1926  1.1874
18212TIP3    H276128   1.125   5.422   2.590 -0.0690  0.7448 -1.8117
18213TIP3   OH276129   5.737   6.610   4.635 -0.4712  0.3332  0.1917
18213TIP3    H176130   5.741   6.582   4.544 -0.4317  0.1584  0.2475
18213TIP3    H276131   5.652   6.578   4.667 -0.3793  0.1839  0.2867
18214TIP3   OH276132   5.680   6.374  17.157  0.1124 -0.1173 -0.2076
18214TIP3    H176133   5.606   6.320  17.131 -0.2460  0.3811 -0.2156
18214TIP3    H276134   5.748   6.311  17.180  0.3235 -0.5709 -2.0095
18215TIP3   OH276135   2.398   5.544  17.151  0.0452  0.0603 -0.1960
18215TIP3    H176136   2.384   5.473  17.088  0.5711 -1.1787  1.0478
18215TIP3    H276137   2.310   5.572  17.175 -0.1671 -0.0780 -0.8154
18216TIP3   OH276138   2.956   2.829   4.827  0.1160  0.2249  0.5329
18216TIP3    H176139   2.870   2.812   4.790  0.5564  0.0891 -0.4423
18216TIP3    H276140   3.010   2.855   4.752  1.0168 -0.0475  1.0733
18217TIP3   OH276141   1.711   2.719  15.506 -0.1853  0.2558 -0.2946
18217TIP3    H176142   1.687   2.740  15.415  0.4186 -0.2415 -0.5746
18217TIP3    H276143   1.632   2.740  15.557  0.2651  2.8489 -0.5936
18218TIP3   OH276144   2.327   1.828  12.223  0.0422 -0.1328  0.3655
18218TIP3    H176145   2.365   1.882  12.291  1.1233  0.6087 -0.8039
18218TIP3    H276146   2.396   1.820  12.157 -1.1071 -0.4946 -0.8222
18219TIP3   OH276147   6.458   0.610   1.393  0.1334 -0.0722 -0.5197
18219TIP3    H176148   6.455   0.528   1.344  0.1103  1.0937 -2.5330
18219TIP3    H276149   6.373   0.651   1.377  0.6616  0.9863 -0.6876
18220TIP3   OH276150   1.427   5.863  15.828 -0.2771 -0.3010  0.1218
18220TIP3    H176151   1.352   5.804  15.824 -1.7054  1.5732 -2.0257
18220TIP3    H276152   1.413   5.916  15.906 -0.7327 -0.5589  0.2144
18221TIP3   OH276153   2.575   1.194  14.726  0.8729 -0.1174  0.1010
18221TIP3    H176154   2.644   1.259  14.736  1.0926 -0.6434  2.3446
18221TIP3    H276155   2.494   1.245  14.718  1.3688  0.4694 -1.3499
18222TIP3   OH276156   1.738   1.611  14.812 -0.2513 -0.4584 -0.3974
18222TIP3    H176157   1.718   1.641  14.900  1.9239  0.1293 -0.0796
18222TIP3    H276158   1.768   1.520  14.824 -1.6022 -0.9549 -0.7330
18223TIP3   OH276159   4.742   0.109   1.169  0.2718 -0.0337  0.0203
18223TIP3    H176160   4.834   0.132   1.158  0.6120 -1.3820 -0.0789
18223TIP3    H276161   4.731   0.100   1.264  0.3224 -0.2075  0.0090
18224TIP3   OH276162   1.982   2.434  11.531 -0.9879  0.3892 -0.4745
18224TIP3    H176163   1.898   2.422  11.575 -2.0919  1.7832 -2.1099
18224TIP3    H276164   2.045   2.447  11.602 -1.9146 -1.8562  0.8233
18225TIP3   OH276165   3.722   5.259   1.931 -0.1664  0.5162 -0.4350
18225TIP3    H176166   3.682   5.189   1.982 -1.0599  1.0340 -0.4032
18225TIP3    H276167   3.648   5.312   1.902  0.5854  2.3403  0.8485
18226TIP3   OH276168   5.119   1.642  12.778 -0.2452 -0.2767 -0.0940
18226TIP3    H176169   5.076   1.623  12.861  0.5887 -0.9596  0.1903
18226TIP3    H276170   5.051   1.684  12.725 -1.1768 -1.1080  0.4237
18227TIP3   OH276171   6.023   6.267   0.733  0.8259  0.2719 -0.2378
18227TIP3    H176172   5.980   6.196   0.782 -0.8568 -0.5506 -2.7897
18227TIP3    H276173   5.953   6.307   0.682  2.0625  2.7899 -0.0357
18228TIP3   OH276174   2.755   3.338   0.980  0.2855  0.5515 -0.2876
18228TIP3    H176175   2.794   3.251   0.985 -1.2309 -0.1686 -0.5686
18228TIP3    H276176   2.829   3.397   0.964  1.2407 -0.7715 -0.8303
18229TIP3   OH276177   4.966   2.645  12.348  0.5613  0.0493 -0.0786
18229TIP3    H176178   4.968   2.575  12.283  0.6767 -0.0776  0.0618
18229TIP3    H276179   4.965   2.601  12.432 -0.7593  0.2102 -0.0093
18230TIP3   OH276180   2.331   2.419  12.162 -0.2638  0.3803 -0.3620
18230TIP3    H176181   2.241   2.390  12.148  0.1906 -0.2512 -2.0989
18230TIP3    H276182   2.384   2.348  12.127  0.9047  1.1280 -0.1152
18231TIP3   OH276183   6.290   2.609  13.798 -0.3811  0.1893 -0.2666
18231TIP3    H176184   6.282   2.704  13.801  1.2934  0.3141  0.2544
18231TIP3    H276185   6.205   2.580  13.765 -0.3163  1.9712 -2.1123
18232TIP3   OH276186   2.180   4.281   4.144  0.2194  0.3965 -0.2137
18232TIP3    H176187   2.258   4.275   4.087  0.8072  3.3364  0.1849
18232TIP3    H276188   2.176   4.196   4.188  4.2926  0.7486  1.0980
18233TIP3   OH276189   1.922   2.571   0.917  0.0518  0.2259  0.2009
18233TIP3    H176190   1.914   2.615   1.002 -0.0420  0.1351  0.2380
18233TIP3    H276191   1.833   2.544   0.895  0.0262  0.5274 -0.0730
18234TIP3   OH276192   0.197   3.043   1.828 -0.0098 -0.1035  0.2056
18234TIP3    H176193   0.132   3.004   1.769 -0.3642 -2.2247  1.9221
18234TIP3    H276194   0.162   3.028   1.916  2.4173 -0.6308  1.1354
18235TIP3   OH276195   5.202   1.867  12.165 -0.5832 -0.2537  0.7256
18235TIP3    H176196   5.184   1.779  12.200 -2.0955 -1.0383 -1.8409
18235TIP3    H276197   5.218   1.852  12.072 -2.6526  2.3765 -0.0929
18236TIP3   OH276198   2.338   2.367  11.376 -0.3048 -0.0495  0.4146
18236TIP3    H176199   2.386   2.450  11.378 -1.3420  0.5425  1.8547
18236TIP3    H276200   2.264   2.384  11.317  0.4564 -0.5188 -0.6895
18237TIP3   OH276201   1.860   2.781  16.070  0.1417  0.1881 -0.0404
18237TIP3    H176202   1.912   2.707  16.040 -0.7816 -0.4874  0.0337
18237TIP3    H276203   1.816   2.813  15.991  1.3894  1.3506 -0.2883
18238TIP3   OH276204   2.508   6.526  13.395 -0.4023  0.6009  0.0331
18238TIP3    H176205   2.594   6.568  13.390 -0.0921 -0.1090 -0.6007
18238TIP3    H276206   2.486   6.506  13.304 -1.1926  0.6842  0.2037
18239TIP3   OH276207   0.818   5.358  16.444  0.2808  0.3456  0.0214
18239TIP3    H176208   0.832   5.324  16.533  0.7137  0.5484  0.0303
18239TIP3    H276209   0.734   5.403  16.449  0.9508  1.5457  0.6874
18240TIP3   OH276210   3.289   1.088  14.286  0.3235 -0.1145 -0.6529
18240TIP3    H176211   3.254   1.052  14.204 -0.1539 -0.3916 -0.3285
18240TIP3    H276212   3.352   1.024  14.316 -2.1579 -1.8241  1.1047
18241TIP3   OH276213   5.698   2.662   5.211  0.6286  0.7670 -0.4103
18241TIP3    H176214   5.639   2.665   5.286 -1.4122  0.8616 -1.9729
18241TIP3    H276215   5.739   2.748   5.208  0.8884  0.6910  0.6985
18242TIP3   OH276216   3.848   0.402  15.314  0.2268 -0.2635 -0.0294
18242TIP3    H176217   3.818   0.470  15.254  0.3932  1.0031  1.2783
18242TIP3    H276218   3.943   0.410  15.313  0.4343 -2.5674 -2.2210
18243TIP3   OH276219   4.609   5.248  17.265  0.1437 -0.6540  0.2054
18243TIP3    H176220   4.555   5.247  17.185  1.9376 -2.3925 -1.0462
18243TIP3    H276221   4.587   5.166  17.309 -2.1367  1.1090  2.4492
18244TIP3   OH276222   4.578   6.383   1.414  0.0795  0.2390 -0.1656
18244TIP3    H176223   4.521   6.399   1.339 -1.9255  0.1166  1.2854
18244TIP3    H276224   4.629   6.307   1.390 -0.5218  0.2262 -1.4309
18245TIP3   OH276225   2.523   2.404   0.183  0.1505 -0.2071  0.2976
18245TIP3    H176226   2.578   2.467   0.228 -1.3391  2.6542 -1.7067
18245TIP3    H276227   2.579   2.368   0.114 -0.0804  1.8478 -1.0094
18246TIP3   OH276228   3.901   0.618   2.926  0.2822  0.6462 -0.1028
18246TIP3    H176229   3.944   0.558   2.866 -0.7712 -0.5854  0.3518
18246TIP3    H276230   3.816   0.635   2.886 -0.7710 -0.8618  1.4355
18247TIP3   OH276231   2.558   4.311   3.791 -0.4566 -0.4942  0.0689
18247TIP3    H176232   2.497   4.325   3.718  1.1844  0.6261 -1.1209
18247TIP3    H276233   2.593   4.223   3.776  1.2902  0.4561 -1.5971
18248TIP3   OH276234   1.414   4.658  11.005  0.2151  0.2946  0.1326
18248TIP3    H176235   1.459   4.575  10.988  0.6218  0.2373  1.4375
18248TIP3    H276236   1.323   4.642  10.982 -0.1525 -1.2029  2.4705
18249TIP3   OH276237   4.853   1.068   4.353 -0.4808 -0.0573 -0.0035
18249TIP3    H176238   4.808   1.144   4.390 -1.2341 -1.0418  1.1561
18249TIP3    H276239   4.784   1.015   4.313  0.0926  0.0594 -1.1664
18250TIP3   OH276240   6.373   2.517  16.491 -0.3590 -0.2089 -1.0605
18250TIP3    H176241   6.424   2.498  16.569 -0.4076 -3.6398 -1.7962
18250TIP3    H276242   6.431   2.572  16.437  1.6345 -2.0516 -0.8390
18251TIP3   OH276243   4.687   6.322   5.669 -0.4287  0.0647  0.3665
18251TIP3    H176244   4.745   6.398   5.661  0.1957 -0.4253  0.2006
18251TIP3    H276245   4.710   6.266   5.595 -0.3360 -0.6553  0.9327
18252TIP3   OH276246   6.565   0.274  16.619 -0.2004  0.0547  0.8056
18252TIP3    H176247   6.469   0.277  16.624 -0.3996 -1.1424 -1.6303
18252TIP3    H276248   6.586   0.182  16.636  0.3520 -0.1105 -0.7270
18253TIP3   OH276249   2.131   3.118   2.234  0.5895  0.1244 -0.1204
18253TIP3    H176250   2.219   3.081   2.227  0.8921  0.6017  1.0332
18253TIP3    H276251   2.088   3.065   2.301  0.8286  1.4505  1.1082
18254TIP3   OH276252   6.065   0.539  14.630 -0.2232  0.0291 -0.1971
18254TIP3    H176253   6.109   0.558  14.713 -0.4377 -0.8484  0.1230
18254TIP3    H276254   5.974   0.522  14.655 -0.3580  0.0918 -0.6496
18255TIP3   OH276255   0.906   0.615  17.081  0.1164  0.7313  0.5549
18255TIP3    H176256   0.879   0.690  17.134  0.7047  0.1531  1.6763
18255TIP3    H276257   0.849   0.544  17.109 -0.2232  0.6590 -0.2842
18256TIP3   OH276258   0.472   4.143  14.849  0.1502  0.1050  0.0220
18256TIP3    H176259   0.479   4.228  14.893 -0.3668  0.5761 -0.7807
18256TIP3    H276260   0.446   4.082  14.918 -0.8769  0.8722  0.3248
18257TIP3   OH276261   2.064   6.243  14.911  0.3301 -0.0486 -0.9774
18257TIP3    H176262   1.982   6.221  14.955  1.1939  3.1938  2.5284
18257TIP3    H276263   2.115   6.162  14.915  0.0725 -0.1200  3.5162
18258TIP3   OH276264   3.207   5.806   2.049  0.3462 -0.0875  0.2348
18258TIP3    H176265   3.193   5.901   2.047 -1.3798 -0.3216 -2.7632
18258TIP3    H276266   3.131   5.771   2.095  1.0755 -0.0092  1.5041
18259TIP3   OH276267   3.282   5.060  14.606  0.1969  0.1366  0.0030
18259TIP3    H176268   3.214   5.063  14.539 -0.4043 -1.2533  0.5235
18259TIP3    H276269   3.318   4.972  14.599  0.6830  0.2512  0.9590
18260TIP3   OH276270   2.647   6.108  15.027 -0.1053 -0.2168  0.3903
18260TIP3    H176271   2.564   6.062  15.034 -0.1242 -0.2400  0.0149
18260TIP3    H276272   2.713   6.044  15.054 -0.3156  0.1854  1.9223
18261TIP3   OH276273   4.238   4.875  16.979 -0.4985  0.2280 -0.8659
18261TIP3    H176274   4.281   4.843  16.900  0.1338  0.8377 -0.7781
18261TIP3    H276275   4.210   4.964  16.957 -0.4355  0.3546 -0.4553
18262TIP3   OH276276   5.890   0.162  17.044  0.5825 -0.2674  0.4482
18262TIP3    H176277   5.853   0.101  17.108 -0.0956  1.8489  2.1393
18262TIP3    H276278   5.900   0.244  17.092  1.5531  0.9584 -1.7560
18263TIP3   OH276279   2.494   3.693   6.584 -0.0066  0.0739 -0.2875
18263TIP3    H176280   2.408   3.681   6.622 -0.0072 -1.6562 -0.7999
18263TIP3    H276281   2.503   3.622   6.520  1.6885  0.3719 -0.4239
18264TIP3   OH276282   6.379   4.313   2.183 -0.1742  0.2550 -0.1708
18264TIP3    H176283   6.447   4.255   2.220  0.5089  1.0552 -0.1600
18264TIP3    H276284   6.370   4.284   2.092 -0.0424 -0.0616 -0.0849
18265TIP3   OH276285   5.056   4.584  17.097 -0.5017 -0.0387  0.3129
18265TIP3    H176286   4.981   4.634  17.063 -0.6398 -0.3944  0.0954
18265TIP3    H276287   5.023   4.544  17.177 -0.1910  0.7579  0.8475
18266TIP3   OH276288   5.523   6.277   1.674  0.4619 -0.2851 -0.5266
18266TIP3    H176289   5.486   6.333   1.606 -0.3983 -0.7761 -0.4699
18266TIP3    H276290   5.526   6.190   1.635  2.1012 -0.1579 -0.7315
18267TIP3   OH276291   3.910   5.724   5.252 -0.0531 -0.3937 -0.0890
18267TIP3    H176292   3.880   5.780   5.324 -0.9903 -0.3461 -0.5172
18267TIP3    H276293   3.863   5.757   5.176  1.1302 -0.2746 -0.7822
18268TIP3   OH276294   5.537   4.642   5.804 -0.2502  0.3074  0.3573
18268TIP3    H176295   5.482   4.708   5.761  0.6344  0.8574  0.0664
18268TIP3    H276296   5.625   4.678   5.801  0.3988 -1.3300 -0.6619
18269TIP3   OH276297   0.187   5.998   2.473  0.6796 -0.0069 -0.5126
18269TIP3    H176298   0.274   5.984   2.510  0.5188  0.8026  0.1901
18269TIP3    H276299   0.168   6.090   2.492  0.1142  0.1048 -1.5981
18270TIP3   OH276300   1.333   4.447   1.118  0.2383  0.3404  0.0078
18270TIP3    H176301   1.409   4.473   1.170  0.5155 -0.9173  0.2375
18270TIP3    H276302   1.370   4.408   1.039 -0.1785  0.4331 -0.2385
18271TIP3   OH276303   1.136   1.884   1.112 -0.2221  0.2765 -0.4346
18271TIP3    H176304   1.096   1.971   1.116 -0.4258  0.2144 -1.0298
18271TIP3    H276305   1.136   1.862   1.019  0.0272 -0.2698 -0.3084
18272TIP3   OH276306   1.953   2.931  13.664 -0.2396 -0.4029  0.4783
18272TIP3    H176307   1.866   2.966  13.678 -0.4258 -1.2971  1.6403
18272TIP3    H276308   1.993   2.930  13.751  1.5990  1.6892 -0.2711
18273TIP3   OH276309   0.144   4.998   3.208 -1.0184  0.0521  0.3094
18273TIP3    H176310   0.122   5.052   3.132  0.2910 -1.3348 -1.0971
18273TIP3    H276311   0.222   5.039   3.245 -0.6402 -0.2629 -0.1333
18274TIP3   OH276312   1.816   1.709  15.542  0.1765  0.2151  0.1212
18274TIP3    H176313   1.841   1.617  15.555 -2.1666  0.0696  4.2443
18274TIP3    H276314   1.798   1.715  15.448  1.2734 -3.2829 -0.4072
18275TIP3   OH276315   0.728   1.891  17.077  0.5823 -0.9488  0.1412
18275TIP3    H176316   0.821   1.899  17.052  0.9110 -1.6993  1.1222
18275TIP3    H276317   0.716   1.798  17.095 -0.4254 -0.8851 -0.1763
18276TIP3   OH276318   5.813   0.182  10.881 -0.1035  0.5720  0.8791
18276TIP3    H176319   5.764   0.116  10.930 -0.5413  1.2997  1.4364
18276TIP3    H276320   5.756   0.259  10.880  0.4625  0.9969  0.3706
18277TIP3   OH276321   6.712   5.307   2.607 -0.4539  0.0538 -0.5782
18277TIP3    H176322   6.780   5.362   2.645 -0.6312 -1.5706  2.1741
18277TIP3    H276323   6.759   5.230   2.574 -0.9145 -0.9517  1.0933
18278TIP3   OH276324   1.266   5.836   3.234 -0.8771  0.0039 -0.2437
18278TIP3    H176325   1.265   5.746   3.266 -1.7569 -0.3519 -1.2156
18278TIP3    H276326   1.180   5.847   3.193  0.1564  0.4648 -2.3336
18279TIP3   OH276327   6.488   3.709  13.563 -0.1257 -0.2776 -0.6925
18279TIP3    H176328   6.535   3.699  13.480 -0.4281 -0.6353 -0.8209
18279TIP3    H276329   6.467   3.620  13.589 -0.4664 -0.1338 -0.4782
18280TIP3   OH276330   5.634   3.132   5.455  0.3329  0.8967  0.1180
18280TIP3    H176331   5.556   3.083   5.482  0.8121  1.5382  2.8165
18280TIP3    H276332   5.670   3.166   5.537  3.1332  1.0942 -1.1448
18281TIP3   OH276333   2.874   2.823   1.490 -0.5204 -0.8475  0.4696
18281TIP3    H176334   2.926   2.831   1.411 -0.7207 -0.7489  0.3475
18281TIP3    H276335   2.793   2.782   1.462  0.3674 -3.0821  1.0408
18282TIP3   OH276336   5.291   6.650   5.046 -0.2668 -0.0548 -0.2387
18282TIP3    H176337   5.292   6.654   4.951 -3.5021 -1.8080 -0.4097
18282TIP3    H276338   5.199   6.656   5.070  0.3729 -1.0190  2.7166
18283TIP3   OH276339   5.412   3.696   1.072  0.4580 -0.4209 -0.3385
18283TIP3    H176340   5.441   3.737   0.991  0.4632 -0.5599 -0.4085
18283TIP3    H276341   5.429   3.761   1.140  0.4095 -0.2864 -0.4562
18284TIP3   OH276342   2.496   4.763  14.035 -0.2894 -0.4235 -0.5259
18284TIP3    H176343   2.476   4.855  14.017  0.8047  0.3185  1.6956
18284TIP3    H276344   2.441   4.741  14.111  2.5188 -0.2418  1.6662
18285TIP3   OH276345   0.917   4.250   6.396 -0.0938 -0.0372 -0.2494
18285TIP3    H176346   0.995   4.251   6.340  1.1396 -0.6383  1.4414
18285TIP3    H276347   0.902   4.158   6.415 -0.3176  0.1776  0.6518
18286TIP3   OH276348   5.196   1.000  11.293 -0.4278 -0.4179 -0.9623
18286TIP3    H176349   5.240   0.915  11.289 -0.1516 -0.2314 -1.9932
18286TIP3    H276350   5.267   1.064  11.296 -0.6108 -0.1117 -2.7350
18287TIP3   OH276351   5.415   4.354   5.291 -0.6674  0.3976  0.1151
18287TIP3    H176352   5.507   4.334   5.275 -0.9921  0.8131 -2.5661
18287TIP3    H276353   5.413   4.390   5.379  1.7378  0.3769  0.2067
18288TIP3   OH276354   6.517   4.935  17.284  0.4730 -0.0096 -0.5384
18288TIP3    H176355   6.561   4.851  17.271 -0.2426 -0.2910 -1.1819
18288TIP3    H276356   6.425   4.912  17.296  0.3002  0.6730 -0.5195
18289TIP3   OH276357   3.278   4.388  12.525  0.1340 -0.1664  0.0410
18289TIP3    H176358   3.239   4.474  12.532 -1.2476 -0.8544  1.0208
18289TIP3    H276359   3.348   4.387  12.591  0.0679  0.1455  0.1123
18290TIP3   OH276360   5.767   3.066  14.035  0.1954 -0.1315  0.0300
18290TIP3    H176361   5.749   3.025  14.120 -0.6804  0.3872  0.1049
18290TIP3    H276362   5.758   2.994  13.972  0.7083 -0.4885  0.3620
18291TIP3   OH276363   2.775   5.255   0.840  0.0843 -0.0586  0.2516
18291TIP3    H176364   2.854   5.281   0.793  0.8779  0.4114  1.8271
18291TIP3    H276365   2.711   5.238   0.771  1.2799  0.4504 -1.0048
18292TIP3   OH276366   2.274   0.644  12.301 -0.2563  0.0402  0.0485
18292TIP3    H176367   2.367   0.630  12.318 -0.4049  0.4656  1.2072
18292TIP3    H276368   2.272   0.713  12.235  0.2569 -0.1968 -0.2159
18293TIP3   OH276369   1.888   4.621   3.480 -0.4525  0.5370 -0.0824
18293TIP3    H176370   1.949   4.664   3.420 -2.2879  4.5514  0.7023
18293TIP3    H276371   1.923   4.639   3.567  0.2792 -2.1580  0.2186
18294TIP3   OH276372   0.354   2.807  14.751 -0.7860  0.6385  0.0720
18294TIP3    H176373   0.302   2.870  14.702  0.2393  0.9028 -0.6897
18294TIP3    H276374   0.444   2.837  14.741 -0.4342 -0.1054  0.9469
18295TIP3   OH276375   2.452   6.231   3.583 -0.3284 -0.4114  0.3469
18295TIP3    H176376   2.526   6.283   3.614  1.1666 -2.8808  1.0241
18295TIP3    H276377   2.429   6.270   3.499  0.7823  1.3005  0.8132
18296TIP3   OH276378   2.676   5.333   0.544 -0.0148  0.0977  0.3826
18296TIP3    H176379   2.625   5.386   0.605 -0.4301 -0.4675  0.5182
18296TIP3    H276380   2.657   5.372   0.458 -1.1358 -0.4850  0.3636
18297TIP3   OH276381   5.909   6.258   2.485 -0.1887  0.1294 -0.1731
18297TIP3    H176382   5.994   6.241   2.446 -0.0279  0.3254  0.0935
18297TIP3    H276383   5.846   6.225   2.421  0.1270 -2.5747  0.8038
18298TIP3   OH276384   2.383   3.259   4.882 -1.0348 -0.6611  0.1080
18298TIP3    H176385   2.343   3.182   4.843 -1.8180 -1.0369  1.5964
18298TIP3    H276386   2.476   3.237   4.891 -1.4683 -1.9364  1.6582
18299TIP3   OH276387   5.255   2.750   4.885 -0.3318  0.5967  0.0608
18299TIP3    H176388   5.252   2.802   4.805  0.4288  2.3255  1.1374
18299TIP3    H276389   5.263   2.814   4.956  1.3000 -0.9907  1.3620
18300TIP3   OH276390   2.044   3.742   0.472  0.1166 -0.3707  0.3408
18300TIP3    H176391   1.972   3.793   0.434 -0.9270 -0.6389  1.9165
18300TIP3    H276392   2.107   3.734   0.401 -0.7996  1.0391 -0.6618
18301TIP3   OH276393   3.076   0.260   1.384 -0.0083  0.2856 -0.1101
18301TIP3    H176394   3.018   0.197   1.426 -1.4200  1.3442 -0.4151
18301TIP3    H276395   3.017   0.314   1.330  0.9227  2.8013  1.2977
18302TIP3   OH276396   4.628   4.112  12.608 -0.1104 -0.1249  0.2694
18302TIP3    H176397   4.555   4.122  12.546 -0.5159  0.6388  0.8638
18302TIP3    H276398   4.620   4.023  12.641  0.2846 -0.6410 -1.0028
18303TIP3   OH276399   2.675   2.430  11.569  0.0114 -0.2790 -0.0012
18303TIP3    H176400   2.761   2.434  11.526  0.4530  1.2275  1.0169
18303TIP3    H276401   2.692   2.390  11.654 -1.0119 -4.1463 -1.4960
18304TIP3   OH276402   5.049   1.462   0.983  0.1692 -0.5846 -0.1354
18304TIP3    H176403   5.004   1.429   1.061 -0.1392  0.2120  0.0263
18304TIP3    H276404   4.979   1.500   0.930  0.5856  0.1752 -0.1333
18305TIP3   OH276405   4.227   6.120  16.543  0.3891  0.0792 -0.3100
18305TIP3    H176406   4.291   6.056  16.510  1.2377 -0.1517  1.7174
18305TIP3    H276407   4.219   6.184  16.472  1.0720 -1.1646 -1.5524
18306TIP3   OH276408   5.155   5.663  16.847 -0.2537  0.4970  0.4649
18306TIP3    H176409   5.147   5.753  16.879  1.1839  0.8434 -0.1170
18306TIP3    H276410   5.237   5.632  16.884 -0.4262 -0.3547  0.1384
18307TIP3   OH276411   0.319   3.608  12.995 -0.2142 -0.9301  0.1643
18307TIP3    H176412   0.343   3.682  12.939 -0.0037  0.0726  1.5803
18307TIP3    H276413   0.372   3.535  12.961  1.4174  0.1601  0.3299
18308TIP3   OH276414   5.900   4.304  17.103 -0.5844  0.3813  0.0518
18308TIP3    H176415   5.804   4.294  17.106 -0.5171 -0.2769  0.1826
18308TIP3    H276416   5.928   4.288  17.194 -0.3317  0.3416 -0.0312
18309TIP3   OH276417   6.794   1.667  11.491  0.5644  0.1076 -0.2316
18309TIP3    H176418   6.772   1.581  11.455 -1.1014 -0.6625  2.4982
18309TIP3    H276419   6.709   1.707  11.510  1.3652  1.7084  0.0159
18310TIP3   OH276420   5.131   1.088   5.399 -0.3048 -0.7710 -0.4372
18310TIP3    H176421   5.180   1.157   5.443 -1.6752  0.8241 -1.3458
18310TIP3    H276422   5.087   1.040   5.470  1.4580 -1.3787  0.2694
18311TIP3   OH276423   4.913   5.286   3.355  0.5094 -0.4141  0.3966
18311TIP3    H176424   4.822   5.286   3.325  0.5926 -1.2854  0.1485
18311TIP3    H276425   4.964   5.312   3.278  0.3861  1.0817  0.8045
18312TIP3   OH276426   5.112   0.244  16.591 -0.2947 -0.4012  0.0383
18312TIP3    H176427   5.193   0.273  16.633 -1.4711 -0.8693  2.7848
18312TIP3    H276428   5.068   0.325  16.565 -0.0546 -0.0381  0.7434
18313TIP3   OH276429   1.725   5.895  13.835 -0.1694 -0.7410  0.1708
18313TIP3    H176430   1.722   5.800  13.829 -0.8602 -0.7668  0.9554
18313TIP3    H276431   1.658   5.925  13.774  0.5057 -0.7373 -0.5773
18314TIP3   OH276432   2.504   2.370  12.919 -0.1582  1.1985  0.2614
18314TIP3    H176433   2.502   2.433  12.991  0.1011  1.6759 -0.1462
18314TIP3    H276434   2.485   2.422  12.841  2.5132  1.2381 -0.4173
18315TIP3   OH276435   3.327   2.940  11.305  0.1185  0.0040 -0.3411
18315TIP3    H176436   3.351   3.032  11.296  0.4701 -0.2799 -2.9446
18315TIP3    H276437   3.379   2.908  11.378 -0.6226  2.0650  1.1118
18316TIP3   OH276438   1.762   3.810   5.230  0.3580 -0.7186 -0.0176
18316TIP3    H176439   1.776   3.863   5.309  1.2527 -0.1477 -0.5491
18316TIP3    H276440   1.687   3.851   5.188  0.3673 -0.5382  0.1373
18317TIP3   OH276441   4.371   0.143  14.139  0.3147  0.2023 -0.5340
18317TIP3    H176442   4.460   0.162  14.108  0.6747  2.1223  1.5472
18317TIP3    H276443   4.382   0.124  14.232 -1.2284 -1.6421 -0.6937
18318TIP3   OH276444   2.835   1.951   0.773  0.2162 -0.6367  0.1375
18318TIP3    H176445   2.754   1.999   0.755 -0.0109 -1.6536 -1.6245
18318TIP3    H276446   2.881   2.006   0.837 -1.4764  0.3522  0.5608
18319TIP3   OH276447   2.115   5.524  11.754 -0.7894 -0.2733 -0.6110
18319TIP3    H176448   2.190   5.508  11.810 -0.3435  0.5796 -0.9544
18319TIP3    H276449   2.124   5.614  11.725 -1.1989 -0.5779 -1.7681
18320TIP3   OH276450   2.072   2.821  13.183 -0.2279 -0.3237 -0.1521
18320TIP3    H176451   2.109   2.909  13.191  2.8942 -1.6213  0.0763
18320TIP3    H276452   2.035   2.803  13.270 -0.3901  0.5236 -0.0407
18321TIP3   OH276453   2.852   5.617   2.437  0.1376 -0.2809  0.2140
18321TIP3    H176454   2.774   5.561   2.443  1.2242 -1.7228  1.1996
18321TIP3    H276455   2.836   5.671   2.359 -0.8835 -2.0773 -0.8720
18322TIP3   OH276456   5.457   5.068   4.752  0.3978  0.4085 -0.5819
18322TIP3    H176457   5.504   5.061   4.669  0.8526  0.2048 -0.3081
18322TIP3    H276458   5.370   5.100   4.728  0.3102 -0.2849 -1.2055
18323TIP3   OH276459   4.884   2.766   0.748 -0.4871 -0.0413 -0.6764
18323TIP3    H176460   4.841   2.758   0.662 -1.2351  1.5971 -0.4729
18323TIP3    H276461   4.978   2.761   0.728 -0.6892 -1.1932 -1.4076
18324TIP3   OH276462   6.041   2.842   1.564 -0.1392 -0.1082  0.7824
18324TIP3    H176463   6.075   2.772   1.621 -0.8821 -0.4712  0.7866
18324TIP3    H276464   6.112   2.858   1.501  1.0976  0.9764  2.3998
18325TIP3   OH276465   3.985   1.599  12.608  0.4439 -0.9918  0.2707
18325TIP3    H176466   4.004   1.505  12.606  0.2569 -1.0927  1.9979
18325TIP3    H276467   4.050   1.636  12.668 -2.1094 -0.7275  3.0536
18326TIP3   OH276468   6.216   1.387   3.513  0.2431  0.4404  0.1598
18326TIP3    H176469   6.124   1.383   3.542 -0.0988  0.0061 -0.9365
18326TIP3    H276470   6.242   1.295   3.508  0.8885  0.5785  0.8981
18327TIP3   OH276471   1.668   3.825   4.792  0.2724 -0.0577  0.0377
18327TIP3    H176472   1.756   3.847   4.820 -0.0312  0.8189  0.3218
18327TIP3    H276473   1.631   3.907   4.760  0.0201 -0.6908 -1.3374
18328TIP3   OH276474   6.642   2.194   4.178  0.2443 -0.0298  0.0014
18328TIP3    H176475   6.657   2.135   4.105 -0.1493  1.1061 -1.0162
18328TIP3    H276476   6.716   2.178   4.238  0.3886 -1.1894 -0.4774
18329TIP3   OH276477   2.296   0.402  13.954  0.4582  0.2609  0.1761
18329TIP3    H176478   2.306   0.494  13.977  0.1643  0.6783 -1.3254
18329TIP3    H276479   2.385   0.366  13.960  0.6323  0.7210  0.4087
18330TIP3   OH276480   1.156   0.237  17.126  0.0802  0.1558  0.3684
18330TIP3    H176481   1.104   0.312  17.156  0.6878  1.5153 -1.8006
18330TIP3    H276482   1.158   0.247  17.030 -1.5945 -3.8237 -0.1551
18331TIP3   OH276483   6.076   5.038   5.362  0.5846  0.0024  0.2672
18331TIP3    H176484   6.065   5.033   5.457  0.2234  0.1447  0.2352
18331TIP3    H276485   6.075   5.132   5.343  2.2257  0.0464  0.2955
18332TIP3   OH276486   5.869   4.847   3.126  0.4137 -0.1328 -0.1360
18332TIP3    H176487   5.931   4.896   3.180  0.9520 -0.9210 -0.0313
18332TIP3    H276488   5.905   4.853   3.037 -0.2041  0.7357 -0.3407
18333TIP3   OH276489   3.107   4.959  11.245 -0.0177 -0.3085 -0.1671
18333TIP3    H176490   3.012   4.947  11.241  0.1334 -1.4136 -0.7361
18333TIP3    H276491   3.143   4.872  11.227  1.1102  0.1614 -0.2449
18334TIP3   OH276492   4.018   0.820   3.496 -0.0628  0.1036 -0.1025
18334TIP3    H176493   4.040   0.876   3.422  1.2035 -1.0822 -0.6453
18334TIP3    H276494   4.022   0.879   3.572  0.0785  0.9947 -0.7861
18335TIP3   OH276495   0.902   5.947  16.795  0.1116  0.0692 -0.1282
18335TIP3    H176496   0.936   5.984  16.876 -0.0563  1.1343 -0.5371
18335TIP3    H276497   0.913   6.017  16.730  1.2631 -1.1663 -1.2799
18336TIP3   OH276498   0.351   3.422  13.884 -0.0366  0.3765 -0.2621
18336TIP3    H176499   0.412   3.382  13.823 -1.9664 -0.8018 -1.4899
18336TIP3    H276500   0.377   3.389  13.970  1.8721  0.9905 -0.5881
18337TIP3   OH276501   0.527   5.172   5.721 -0.2214  0.0887 -0.2471
18337TIP3    H176502   0.530   5.200   5.812 -1.4150 -0.9418  0.1359
18337TIP3    H276503   0.548   5.078   5.724  1.5708  0.4272 -1.2519
18338TIP3   OH276504   3.539   3.264   2.195 -0.3307 -0.2332 -0.2480
18338TIP3    H176505   3.597   3.188   2.205 -0.5144 -0.2606  0.6306
18338TIP3    H276506   3.544   3.286   2.102  1.9352  0.4371  0.0153
18339TIP3   OH276507   3.449   1.529   1.460 -0.7712  0.2717 -0.3455
18339TIP3    H176508   3.461   1.528   1.555 -0.4918  0.4293 -0.3765
18339TIP3    H276509   3.354   1.524   1.447 -0.8142  0.3332 -0.0564
18340TIP3   OH276510   5.155   5.256  15.403  0.1467 -0.7164 -0.2880
18340TIP3    H176511   5.080   5.222  15.355 -1.4677 -0.8407  2.2512
18340TIP3    H276512   5.171   5.192  15.472  0.9375  0.5878  0.7718
18341TIP3   OH276513   3.984   6.227  14.165 -0.4455  0.1021  0.0623
18341TIP3    H176514   4.036   6.305  14.183 -0.5824  0.2759 -0.2884
18341TIP3    H276515   3.893   6.257  14.167 -0.5322 -0.1858  0.6023
18342TIP3   OH276516   0.525   1.081   3.103 -0.0178  0.0480  0.1828
18342TIP3    H176517   0.434   1.067   3.079 -0.1447  0.7845  0.2161
18342TIP3    H276518   0.547   1.167   3.067  0.6608 -0.1192  0.1808
18343TIP3   OH276519   3.157   5.008  12.822 -0.7482  0.5821 -0.2428
18343TIP3    H176520   3.144   4.927  12.870 -0.7644 -0.3663 -1.8095
18343TIP3    H276521   3.180   5.072  12.889 -0.7024 -0.7110  1.0075
18344TIP3   OH276522   2.688   1.277   1.446 -0.0642  0.2734  0.0200
18344TIP3    H176523   2.643   1.298   1.364 -1.0301 -0.8146  0.2633
18344TIP3    H276524   2.625   1.301   1.514  0.2225 -0.0639  0.4007
18345TIP3   OH276525   4.351   3.775  12.587  0.4562 -0.4229  0.3420
18345TIP3    H176526   4.365   3.695  12.636 -0.2593 -0.4115  0.5714
18345TIP3    H276527   4.281   3.754  12.526  1.5028 -0.5071 -0.8429
18346TIP3   OH276528   5.140   0.307   3.192  0.7594 -0.1343 -0.0313
18346TIP3    H176529   5.141   0.221   3.150  0.1327 -0.8687  1.4310
18346TIP3    H276530   5.187   0.294   3.274  0.5153  0.8862  0.2772
18347TIP3   OH276531   4.143   6.747   4.050  0.7271  0.6342 -0.4479
18347TIP3    H176532   4.061   6.760   4.002  0.5836  0.6130 -0.2069
18347TIP3    H276533   4.194   6.826   4.031 -0.1500  1.5883  1.0199
18348TIP3   OH276534   3.336   4.407   5.725 -0.2614 -0.0562 -0.2987
18348TIP3    H176535   3.257   4.422   5.777  0.5915  2.2379  0.3942
18348TIP3    H276536   3.400   4.374   5.788 -0.2554 -0.6079 -0.5912
18349TIP3   OH276537   4.070   4.509   5.537  0.2401  0.0663  0.0124
18349TIP3    H176538   4.023   4.482   5.615  0.6618  1.7164  0.8659
18349TIP3    H276539   4.162   4.490   5.557  0.7528  3.6004  1.3258
18350TIP3   OH276540   1.172   5.769  16.229 -0.5462  0.4150 -0.2622
18350TIP3    H176541   1.129   5.799  16.308 -0.2821  1.2500 -0.4279
18350TIP3    H276542   1.127   5.688  16.206 -0.7381  0.2648  0.6377
18351TIP3   OH276543   5.141   3.808  11.197  0.3347 -0.1647  0.1922
18351TIP3    H176544   5.166   3.730  11.245 -0.9409  0.4197  1.8615
18351TIP3    H276545   5.165   3.881  11.254  0.5724  0.6369 -0.8983
18352TIP3   OH276546   5.844   2.401  12.349  0.0928  0.1205 -0.2870
18352TIP3    H176547   5.894   2.417  12.429 -0.7915 -0.1396  0.3287
18352TIP3    H276548   5.807   2.487  12.327 -1.0315 -0.1495  0.5284
18353TIP3   OH276549   1.807   1.668   5.588 -0.3544  0.4954  0.1989
18353TIP3    H176550   1.887   1.631   5.626 -0.6028  0.6908  0.9188
18353TIP3    H276551   1.754   1.591   5.564  0.2857  0.3564 -0.8125
18354TIP3   OH276552   1.246   3.263  13.430 -0.3897  0.3784 -0.2355
18354TIP3    H176553   1.288   3.233  13.511  0.7524 -0.1890 -1.0238
18354TIP3    H276554   1.250   3.186  13.372 -1.4823  0.6826 -0.7162
18355TIP3   OH276555   5.907   2.930   3.189 -0.1124 -0.0091  0.1271
18355TIP3    H176556   5.925   2.837   3.204 -0.1984  0.2393  1.9052
18355TIP3    H276557   5.820   2.931   3.150  0.5268 -0.7496 -1.3851
18356TIP3   OH276558   3.368   4.504   6.133  0.2932 -0.4922 -0.1975
18356TIP3    H176559   3.398   4.594   6.130  1.0763 -0.8124 -4.5500
18356TIP3    H276560   3.436   4.457   6.182  1.7879  0.6243 -1.1708
18357TIP3   OH276561   2.847   0.410   4.890  0.2838  0.8133  0.1507
18357TIP3    H176562   2.846   0.505   4.881 -0.4339  1.0464  2.4800
18357TIP3    H276563   2.914   0.381   4.828  3.0467  3.1071  1.9311
18358TIP3   OH276564   3.565   4.845  16.119  0.4037 -0.8144 -0.3878
18358TIP3    H176565   3.593   4.790  16.193  0.7701 -0.3655 -0.1923
18358TIP3    H276566   3.473   4.865  16.137  1.0202  0.9364  0.9735
18359TIP3   OH276567   2.917   1.026  16.943  0.0170  0.7795 -0.0072
18359TIP3    H176568   2.854   0.999  17.010  0.6663  0.6686  0.5758
18359TIP3    H276569   2.877   1.003  16.860  1.1376 -3.3515  0.4675
18360TIP3   OH276570   3.200   2.468   0.971  0.5330  0.4855 -0.5408
18360TIP3    H176571   3.175   2.559   0.955 -0.4488  0.3161  0.0033
18360TIP3    H276572   3.160   2.420   0.899 -0.5392  0.2434  0.2067
18361TIP3   OH276573   3.439   0.508   0.185  0.5280  0.2503 -0.1149
18361TIP3    H176574   3.478   0.553   0.260  0.1743  0.8382 -0.2802
18361TIP3    H276575   3.347   0.495   0.210  0.7173 -0.7037  0.0813
18362TIP3   OH276576   3.182   2.107  16.613 -0.2299  1.0765  0.1214
18362TIP3    H176577   3.246   2.053  16.660  1.3414  1.4544 -1.5369
18362TIP3    H276578   3.140   2.160  16.681  1.0362  0.6321  1.2551
18363TIP3   OH276579   3.443   4.982   6.300  0.3399  0.3916 -0.2666
18363TIP3    H176580   3.399   4.924   6.363  0.8269  0.8422  0.5064
18363TIP3    H276581   3.378   5.047   6.276  0.2605  0.4323  0.0587
18364TIP3   OH276582   0.886   0.756   5.762 -0.1877 -0.2785  0.7726
18364TIP3    H176583   0.893   0.704   5.843 -1.0741 -1.2104  0.2515
18364TIP3    H276584   0.827   0.827   5.785 -1.3410 -1.1690  0.6366
18365TIP3   OH276585   6.312   1.621   0.877 -0.2920 -0.1432 -0.1201
18365TIP3    H176586   6.298   1.715   0.870 -1.0096 -0.2815 -0.5304
18365TIP3    H276587   6.334   1.593   0.788 -0.7905 -0.4812 -0.1393
18366TIP3   OH276588   2.757   0.774  17.208 -0.0345  0.4277  0.2264
18366TIP3    H176589   2.750   0.853  17.154  2.1873  0.5215  0.0168
18366TIP3    H276590   2.773   0.806  17.296 -1.9653  0.2345  0.6776
18367TIP3   OH276591   4.865   4.487   0.071 -0.5185  0.0038  0.1393
18367TIP3    H176592   4.912   4.404   0.085 -1.9963 -0.7511  0.6761
18367TIP3    H276593   4.801   4.467   0.002 -2.5802 -0.0037  2.0091
18368TIP3   OH276594   5.249   4.176   3.176  0.7292 -0.5579  0.1240
18368TIP3    H176595   5.324   4.207   3.227  1.3642 -2.7653  0.5744
18368TIP3    H276596   5.180   4.164   3.241  1.0904 -1.9449  0.2757
18369TIP3   OH276597   0.403   2.803   1.438 -0.5187 -0.2161  0.1366
18369TIP3    H176598   0.372   2.887   1.472 -0.2297  1.6603 -3.9326
18369TIP3    H276599   0.323   2.751   1.427 -1.2037  1.1057 -1.3161
18370TIP3   OH276600   2.493   5.053   4.735  0.4185 -0.3643  0.3695
18370TIP3    H176601   2.422   5.023   4.791  0.4538 -0.0583  0.5753
18370TIP3    H276602   2.455   5.056   4.647 -0.2567  1.2175  0.6927
18371TIP3   OH276603   6.715   2.351   1.043  0.1199 -0.9199  0.2168
18371TIP3    H176604   6.805   2.318   1.049  0.4196 -0.2220 -0.4285
18371TIP3    H276605   6.663   2.287   1.092  0.8706 -1.6973  0.0071
18372TIP3   OH276606   2.219   1.924  12.675  0.0098 -0.4507  0.7767
18372TIP3    H176607   2.159   1.875  12.731  0.0148 -0.9913  0.3218
18372TIP3    H276608   2.212   1.881  12.590 -0.2597  0.5850  0.2724
18373TIP3   OH276609   1.715   6.377  17.274  0.0720 -0.2579 -0.2341
18373TIP3    H176610   1.782   6.315  17.304  1.4271  1.3081  0.0501
18373TIP3    H276611   1.680   6.415  17.355 -0.7064 -0.6035 -0.4066
18374TIP3   OH276612   0.259   2.294  15.231 -0.5680 -0.0017 -0.4689
18374TIP3    H176613   0.273   2.214  15.281  2.5058 -0.4906 -1.9790
18374TIP3    H276614   0.300   2.363  15.283 -1.0554  0.1775 -0.3244
18375TIP3   OH276615   2.927   2.815   6.332 -0.0238  0.3305  0.1169
18375TIP3    H176616   3.018   2.835   6.308  0.4849 -1.5666  0.3292
18375TIP3    H276617   2.929   2.805   6.427 -0.2205 -0.7635  0.0146
18376TIP3   OH276618   3.093   5.793  13.527  0.0462 -1.2722  0.0230
18376TIP3    H176619   3.102   5.875  13.576 -0.8599 -0.8736 -0.4743
18376TIP3    H276620   3.141   5.729  13.580  1.6953 -0.2122 -0.1364
18377TIP3   OH276621   2.213   5.364   0.070 -0.1842  0.4951  0.1128
18377TIP3    H176622   2.162   5.315   0.135  0.4615 -0.9426 -0.4404
18377TIP3    H276623   2.147   5.408   0.016 -0.8418 -1.0457 -0.3627
18378TIP3   OH276624   6.774   3.167  14.576  0.1367 -0.2145  0.4340
18378TIP3    H176625   6.778   3.256  14.612 -1.0793 -0.7323  1.9151
18378TIP3    H276626   6.770   3.110  14.652 -2.3892 -1.3531 -0.4689
18379TIP3   OH276627   6.519   1.474  13.561 -0.0865 -1.0163  0.1623
18379TIP3    H176628   6.482   1.559  13.539  1.5710 -0.4688 -0.5324
18379TIP3    H276629   6.458   1.411  13.523 -0.9173 -0.1408  0.0299
18380TIP3   OH276630   0.750   4.950  12.586 -0.3774 -0.3526 -0.2109
18380TIP3    H176631   0.696   4.871  12.590 -0.4737 -0.2270  1.2389
18380TIP3    H276632   0.777   4.965  12.677 -1.2343  1.8756 -0.2901
18381TIP3   OH276633   6.677   5.971  12.416  0.1435  0.0017 -0.4599
18381TIP3    H176634   6.768   5.998  12.430  1.0979 -2.5821 -1.3564
18381TIP3    H276635   6.662   5.986  12.323 -0.3162  0.3256 -0.3336
18382TIP3   OH276636   0.129   6.752  13.691 -0.0599  0.1186  0.4458
18382TIP3    H176637   0.207   6.753  13.747 -0.6506 -0.6356  1.3259
18382TIP3    H276638   0.113   6.659  13.675  1.3019  0.3752 -2.7532
18383TIP3   OH276639   4.317   1.856   2.805  0.1839 -0.0764 -0.1333
18383TIP3    H176640   4.260   1.785   2.832  2.4483 -0.2649  4.5856
18383TIP3    H276641   4.399   1.813   2.779  0.2744  0.5855 -0.9966
18384TIP3   OH276642   5.137   2.716   0.586 -0.1668  0.2040 -0.2150
18384TIP3    H176643   5.067   2.744   0.527 -0.0959 -2.4166 -1.6316
18384TIP3    H276644   5.216   2.753   0.547 -0.3540  0.1953 -0.6104
18385TIP3   OH276645   5.453   3.222  17.210  0.4753 -0.2511  0.1178
18385TIP3    H176646   5.520   3.270  17.162  0.8774  0.5030  1.3943
18385TIP3    H276647   5.501   3.175  17.278 -0.2127 -0.2791  0.5916
18386TIP3   OH276648   0.774   1.528  14.828 -0.1671 -0.4997 -1.1401
18386TIP3    H176649   0.856   1.569  14.798 -0.7020  1.4233 -0.0684
18386TIP3    H276650   0.788   1.435  14.815  2.4406 -0.2576 -0.4315
18387TIP3   OH276651   6.467   0.388  12.525  0.5470  0.4135  0.5939
18387TIP3    H176652   6.525   0.319  12.493  1.8206  1.2078  1.1508
18387TIP3    H276653   6.428   0.425  12.446  1.1618  0.1923  0.1825
18388TIP3   OH276654   3.122   3.645  14.511  0.1939  0.0646 -0.4136
18388TIP3    H176655   3.183   3.718  14.499  0.5708 -0.2067 -0.1742
18388TIP3    H276656   3.179   3.568  14.519 -0.1478 -0.1022  0.4577
18389TIP3   OH276657   3.362   2.460  16.066  0.3490  0.1232  0.7063
18389TIP3    H176658   3.297   2.407  16.022  1.1560  0.4543 -0.9197
18389TIP3    H276659   3.322   2.483  16.150 -1.1191 -0.6943  0.2406
18390TIP3   OH276660   5.776   3.900  11.711  0.3119 -0.2052 -0.2848
18390TIP3    H176661   5.857   3.951  11.708  0.7029 -0.8386 -0.6533
18390TIP3    H276662   5.740   3.916  11.798  0.2224  1.0180 -0.5396
18391TIP3   OH276663   3.499   3.659   0.444 -0.6371  0.0348  0.1936
18391TIP3    H176664   3.585   3.617   0.451 -0.9194 -0.8599 -1.4480
18391TIP3    H276665   3.511   3.745   0.484  0.7232 -0.5059  0.9900
18392TIP3   OH276666   6.014   6.557   0.865 -0.0511 -0.1749  0.0880
18392TIP3    H176667   6.108   6.548   0.851 -0.1940 -0.4454 -0.7276
18392TIP3    H276668   5.974   6.510   0.792 -0.8352 -2.5256  1.9387
18393TIP3   OH276669   0.964   2.186  12.761 -0.5075 -0.5071 -0.1269
18393TIP3    H176670   0.964   2.096  12.793 -1.4918 -0.5603 -0.2814
18393TIP3    H276671   0.895   2.230  12.810 -1.6938 -0.4599 -1.7984
18394TIP3   OH276672   1.620   6.333   1.571  0.7315  0.1354 -0.0545
18394TIP3    H176673   1.670   6.374   1.501  1.5097  0.4497  0.6654
18394TIP3    H276674   1.657   6.245   1.579  0.9599  0.2583  0.2647
18395TIP3   OH276675   2.132   5.483  16.228 -0.2598  0.1622 -0.6530
18395TIP3    H176676   2.094   5.419  16.288  0.2061 -0.0924 -0.6290
18395TIP3    H276677   2.209   5.439  16.191 -1.6104 -0.4023 -2.8778
18396TIP3   OH276678   0.615   0.491   1.531 -0.4344 -0.5792 -0.4543
18396TIP3    H176679   0.706   0.488   1.562  0.2521  1.7554 -2.0965
18396TIP3    H276680   0.618   0.456   1.443 -1.0044  0.1211 -0.7604
18397TIP3   OH276681   1.378   5.501  14.776  0.0625 -0.6592 -0.6775
18397TIP3    H176682   1.315   5.492  14.704  1.6196  0.2328 -2.1547
18397TIP3    H276683   1.390   5.411  14.807 -1.5407 -0.9097 -0.7027
18398TIP3   OH276684   5.881   6.039  14.515 -0.3234 -0.2994  0.1814
18398TIP3    H176685   5.888   6.131  14.543 -1.9252 -1.1615  3.6270
18398TIP3    H276686   5.814   6.002  14.572 -0.9995 -3.1956 -2.4089
18399TIP3   OH276687   2.840   2.037  13.386 -0.0410 -0.0333  0.5003
18399TIP3    H176688   2.814   2.079  13.467  0.6446  0.9739  0.2087
18399TIP3    H276689   2.885   1.957  13.413 -1.0762 -0.4332  1.0626
18400TIP3   OH276690   0.118   0.386  14.968  0.5291 -0.1474  0.2896
18400TIP3    H176691   0.193   0.414  14.916  0.6070 -1.8415 -0.5496
18400TIP3    H276692   0.109   0.293  14.948 -0.1390 -0.5615  2.4721
18401TIP3   OH276693   4.544   6.562   2.804  0.2845  0.4074  0.0078
18401TIP3    H176694   4.509   6.639   2.759 -1.4063 -0.0598  0.5176
18401TIP3    H276695   4.598   6.519   2.737 -2.3767 -0.3927 -1.6914
18402TIP3   OH276696   4.349   4.494   2.225 -0.5587  0.1229  0.1503
18402TIP3    H176697   4.262   4.463   2.252 -1.4418  2.5926  0.2795
18402TIP3    H276698   4.331   4.558   2.156  1.2598 -0.3406 -0.7924
18403TIP3   OH276699   3.501   5.660  14.346 -0.4322  0.0972  0.4944
18403TIP3    H176700   3.462   5.619  14.424  0.8255  0.4873  1.3427
18403TIP3    H276701   3.429   5.712  14.308 -1.4234 -1.1466  0.6322
18404TIP3   OH276702   4.261   6.173  13.549  1.2908  0.4451 -0.3181
18404TIP3    H176703   4.227   6.090  13.515  3.6084 -0.7508  0.2046
18404TIP3    H276704   4.312   6.209  13.477  0.5454  1.2797 -0.4352
18405TIP3   OH276705   1.058   2.455  13.055  0.7200  0.2478 -0.4580
18405TIP3    H176706   1.040   2.471  13.148  1.8547  0.0137 -0.2010
18405TIP3    H276707   1.135   2.399  13.054  0.1262 -0.5642 -1.5285
18406TIP3   OH276708   2.550   5.901  13.926 -0.0758  0.4233  0.2718
18406TIP3    H176709   2.583   5.961  13.859  0.1847  0.9874  0.8960
18406TIP3    H276710   2.483   5.951  13.972 -1.6510 -0.6487 -0.8387
18407TIP3   OH276711   0.513   5.270  16.895  0.4398 -0.5059 -0.0596
18407TIP3    H176712   0.515   5.305  16.984 -0.4162 -0.8225  0.0865
18407TIP3    H276713   0.536   5.345  16.840 -1.5684  0.3657  0.2361
18408TIP3   OH276714   2.181   1.393   4.137  0.0732  0.1668  0.0511
18408TIP3    H176715   2.267   1.431   4.155  0.3066 -1.0238  1.6480
18408TIP3    H276716   2.121   1.439   4.196 -0.4637  1.2265 -1.2949
18409TIP3   OH276717   4.738   5.254   5.787 -0.1819 -0.3439 -0.1574
18409TIP3    H176718   4.788   5.263   5.868 -0.8561  1.5887  0.0727
18409TIP3    H276719   4.803   5.260   5.718  0.2081 -0.3957  0.2017
18410TIP3   OH276720   3.112   1.350   4.253  0.4968 -0.2807 -0.1568
18410TIP3    H176721   3.132   1.313   4.167  2.2677 -0.5217  0.3367
18410TIP3    H276722   3.129   1.444   4.244  0.3975 -0.2604 -0.1411
18411TIP3   OH276723   3.393   1.307  16.409  0.2487  1.0116  0.0087
18411TIP3    H176724   3.471   1.356  16.436  0.4222  0.0113  1.3816
18411TIP3    H276725   3.406   1.290  16.316 -0.0943  4.0709 -0.6648
18412TIP3   OH276726   2.914   4.849  12.530  0.2928 -0.1912 -0.5298
18412TIP3    H176727   2.943   4.819  12.444  2.3282  0.8452 -0.2371
18412TIP3    H276728   2.980   4.913  12.557 -0.9953  0.4331  1.2540
18413TIP3   OH276729   0.889   2.297  13.644  0.9678 -0.4659  0.7519
18413TIP3    H176730   0.840   2.358  13.699  0.5289  0.7903 -1.0251
18413TIP3    H276731   0.886   2.214  13.692  1.0795  0.7446  2.9085
18414TIP3   OH276732   5.395   3.647   5.611 -0.4610  0.3060 -0.2850
18414TIP3    H176733   5.474   3.695   5.584  0.0225 -0.3437 -0.0229
18414TIP3    H276734   5.425   3.558   5.628 -1.0070  0.3939  1.1597
18415TIP3   OH276735   5.382   4.882  10.551  0.9174 -0.4151 -0.1236
18415TIP3    H176736   5.423   4.884  10.638  0.6950 -0.9518 -0.0053
18415TIP3    H276737   5.449   4.916  10.492  1.1164 -0.1720  0.2382
18416TIP3   OH276738   0.761   2.213  14.656 -0.0911  0.2451  0.1389
18416TIP3    H176739   0.764   2.302  14.694  0.3263  0.1586  0.3048
18416TIP3    H276740   0.746   2.156  14.732  1.9283 -0.0451  0.3511
18417TIP3   OH276741   0.837   3.224   0.162 -0.3411  0.1431  0.0057
18417TIP3    H176742   0.898   3.208   0.234 -0.6356 -0.4055  0.1384
18417TIP3    H276743   0.842   3.145   0.108  0.4611  0.8793 -1.0105
18418TIP3   OH276744   0.232   5.938   5.912 -0.2832  0.1821  0.5479
18418TIP3    H176745   0.226   6.012   5.973  0.4454  2.0485 -1.5465
18418TIP3    H276746   0.322   5.908   5.920 -0.1666  0.4745  0.3344
18419TIP3   OH276747   6.728   1.711   0.468  0.6922  0.1282  0.5643
18419TIP3    H176748   6.692   1.647   0.406  0.7907  0.2769  0.3537
18419TIP3    H276749   6.692   1.685   0.552  0.6129 -0.1183  0.4557
18420TIP3   OH276750   6.522   6.159   3.809 -0.0887 -0.2618  0.0718
18420TIP3    H176751   6.493   6.227   3.748  0.2375  0.2072  0.4406
18420TIP3    H276752   6.442   6.127   3.849 -0.1303  0.8985  0.9459
18421TIP3   OH276753   0.126   6.299   2.884  0.0733 -0.0284  0.2325
18421TIP3    H176754   0.125   6.394   2.897  1.9363 -0.0920  0.9471
18421TIP3    H276755   0.206   6.282   2.835 -0.9133 -1.1150 -1.0789
18422TIP3   OH276756   2.190   1.533  15.505  0.2471 -0.1784  0.4160
18422TIP3    H176757   2.188   1.439  15.487 -3.2619 -0.4298  1.6967
18422TIP3    H276758   2.198   1.539  15.601 -0.2836  0.7995  0.4069
18423TIP3   OH276759   5.654   6.605  14.568 -0.4036 -0.2111  0.5261
18423TIP3    H176760   5.738   6.583  14.527  0.6114  1.0367  1.8957
18423TIP3    H276761   5.606   6.652  14.499  0.3055 -0.2937 -0.0343
18424TIP3   OH276762   5.824   5.337  12.977 -0.1723 -0.3307 -0.1245
18424TIP3    H176763   5.830   5.428  13.006  2.0017 -0.0757 -1.2042
18424TIP3    H276764   5.764   5.296  13.038  0.9084  1.1910  2.0356
18425TIP3   OH276765   3.917   4.882   4.212 -0.6666  0.6159  0.0979
18425TIP3    H176766   3.878   4.899   4.126 -1.0977 -0.8217 -0.0092
18425TIP3    H276767   3.847   4.899   4.274 -0.7222  0.4338  0.0835
18426TIP3   OH276768   0.812   3.304   5.577 -0.3211 -0.1565 -0.0570
18426TIP3    H176769   0.792   3.223   5.624 -1.5872  0.4192  0.4188
18426TIP3    H276770   0.757   3.371   5.619  1.2007  1.0886  0.0091
18427TIP3   OH276771   3.272   1.870  10.813  0.3247 -0.1197  1.0800
18427TIP3    H176772   3.237   1.927  10.745  1.8737 -1.3214 -0.7829
18427TIP3    H276773   3.281   1.927  10.890  0.5542  1.7848 -0.3289
18428TIP3   OH276774   5.669   5.705   2.750 -0.2691  0.0806 -0.1419
18428TIP3    H176775   5.664   5.679   2.658 -0.5631 -0.1392 -0.0652
18428TIP3    H276776   5.726   5.782   2.751 -0.8965  0.5585 -0.6053
18429TIP3   OH276777   1.811   3.427  12.541  0.0662  0.5808  0.5517
18429TIP3    H176778   1.778   3.346  12.502 -0.3827  2.0479 -2.2959
18429TIP3    H276779   1.899   3.405  12.572 -0.1887 -1.0877  0.1244
18430TIP3   OH276780   3.269   4.003  16.489 -0.0146 -0.4791 -0.2272
18430TIP3    H176781   3.306   3.965  16.409 -0.2204 -0.1045 -0.4964
18430TIP3    H276782   3.224   4.082  16.460 -0.6622 -0.7030  0.1649
18431TIP3   OH276783   3.594   2.073   2.937  0.1777  0.2740 -0.2208
18431TIP3    H176784   3.587   1.979   2.917  1.0694  0.5239 -1.8451
18431TIP3    H276785   3.681   2.083   2.975  1.1797  0.8221 -2.5566
18432TIP3   OH276786   6.003   5.229   4.893  0.3626 -0.2030  0.3080
18432TIP3    H176787   5.930   5.253   4.836 -0.2064  2.2450  1.9816
18432TIP3    H276788   6.050   5.161   4.844 -0.6250  1.1352 -2.6342
18433TIP3   OH276789   0.527   2.452  12.661  0.3546  0.5388  0.2711
18433TIP3    H176790   0.488   2.389  12.601  1.3095  0.5318 -0.3588
18433TIP3    H276791   0.617   2.420  12.674  0.0112  0.2619  2.0926
18434TIP3   OH276792   3.490   5.847   1.068  0.2632  0.2342  0.7475
18434TIP3    H176793   3.472   5.756   1.046  1.6246  0.2256 -0.4894
18434TIP3    H276794   3.419   5.873   1.127 -1.1545 -1.0732 -0.3372
18435TIP3   OH276795   4.803   2.481   0.353  0.6762 -0.1027 -0.2156
18435TIP3    H176796   4.863   2.472   0.279  0.5509  0.0559 -0.3383
18435TIP3    H276797   4.718   2.500   0.313  0.5937 -0.0836 -0.0339
18436TIP3   OH276798   3.383   1.046  13.243 -0.3073  0.4797  0.2999
18436TIP3    H176799   3.376   0.986  13.169 -1.5295  0.1448  0.6731
18436TIP3    H276800   3.299   1.092  13.244  0.0763  1.1757  0.8888
18437TIP3   OH276801   4.237   6.336  12.550 -0.5154  0.5625 -0.7563
18437TIP3    H176802   4.165   6.306  12.605 -0.7130  2.1354 -0.1376
18437TIP3    H276803   4.216   6.428  12.530  1.1230  0.9344 -0.8619
18438TIP3   OH276804   0.027   1.415  11.980 -0.8289 -0.3073 -0.1487
18438TIP3    H176805   0.045   1.321  11.969  3.2330  0.3534  0.1420
18438TIP3    H276806   0.028   1.450  11.891 -1.5682 -0.4233 -0.2000
18439TIP3   OH276807   1.784   3.482   1.165 -0.6197  0.5386  0.6608
18439TIP3    H176808   1.814   3.454   1.078  0.7433  1.5546  0.7754
18439TIP3    H276809   1.695   3.449   1.172 -0.3836 -0.4349 -0.7223
18440TIP3   OH276810   3.290   1.685  12.224  0.1495  0.5309 -0.6483
18440TIP3    H176811   3.253   1.772  12.236  1.6421  1.3045 -1.6152
18440TIP3    H276812   3.369   1.698  12.172  1.4852 -1.1849  0.8940
18441TIP3   OH276813   5.066   3.885  11.628 -0.2213  0.0492  0.1169
18441TIP3    H176814   5.150   3.931  11.626 -0.9675  1.3952 -0.6103
18441TIP3    H276815   5.055   3.859  11.720  1.4771 -1.0748  0.0222
18442TIP3   OH276816   3.921   2.386  16.185 -0.1266 -0.1611 -0.1117
18442TIP3    H176817   3.932   2.476  16.216 -1.0443  0.5045 -1.6927
18442TIP3    H276818   3.833   2.383  16.148 -0.3438 -1.8922  0.4571
18443TIP3   OH276819   1.471   1.621   6.055 -0.1393 -0.1431  0.0643
18443TIP3    H176820   1.447   1.670   6.134 -0.9097  0.3034 -0.4407
18443TIP3    H276821   1.411   1.546   6.054 -0.6458  0.2581 -0.4887
18444TIP3   OH276822   0.735   5.239  12.167  0.0246 -0.4115  0.3689
18444TIP3    H176823   0.799   5.261  12.235  0.8819  1.7325 -1.0665
18444TIP3    H276824   0.788   5.209  12.093 -0.8900 -2.5470  0.5228
18445TIP3   OH276825   4.492   2.336  10.860 -0.9027  0.0747 -0.1799
18445TIP3    H176826   4.430   2.402  10.890 -0.8454 -1.4478  3.6376
18445TIP3    H276827   4.538   2.377  10.787 -4.4856  2.2219 -1.3399
18446TIP3   OH276828   3.823   4.599  15.021  0.5316  0.3310 -0.0263
18446TIP3    H176829   3.758   4.667  15.005  1.6933  0.8649 -2.7252
18446TIP3    H276830   3.814   4.579  15.114 -1.3801  2.5517  0.3166
18447TIP3   OH276831   5.445   0.606   4.903 -0.2028  0.2199  0.2624
18447TIP3    H176832   5.457   0.579   4.994  1.0183  0.3617  0.1631
18447TIP3    H276833   5.487   0.537   4.852 -1.0678  0.0366 -0.2090
18448TIP3   OH276834   4.519   0.623  16.172 -0.3303 -0.3123  0.3883
18448TIP3    H176835   4.527   0.556  16.239 -0.4628 -0.1119  0.6045
18448TIP3    H276836   4.595   0.680  16.185 -1.3827  0.8644  1.6478
18449TIP3   OH276837   1.532   5.611   1.849 -0.1812 -0.2216  0.1949
18449TIP3    H176838   1.557   5.664   1.924 -1.9222 -0.1559  0.7476
18449TIP3    H276839   1.523   5.673   1.777 -1.2037  0.0999  0.5947
18450TIP3   OH276840   3.872   5.733  15.573  0.1829  0.2407 -0.0651
18450TIP3    H176841   3.812   5.737  15.647  1.1919 -2.6537  0.9778
18450TIP3    H276842   3.819   5.699  15.501  0.0893 -0.3534  0.2886
18451TIP3   OH276843   0.299   1.334  15.550  0.3048 -0.4154  0.1021
18451TIP3    H176844   0.272   1.350  15.460 -0.8564  2.9327  0.9588
18451TIP3    H276845   0.394   1.342  15.549  0.3804 -1.3194 -0.9646
18452TIP3   OH276846   6.706   5.056  17.084 -0.2621  0.0307 -0.0771
18452TIP3    H176847   6.741   4.970  17.060 -0.6804 -0.6443  1.7143
18452TIP3    H276848   6.682   5.048  17.176  2.9910  3.1655  1.1399
18453TIP3   OH276849   1.260   5.126  16.760  0.0600  0.1801 -0.1855
18453TIP3    H176850   1.232   5.108  16.670 -0.0207  1.3548 -0.3921
18453TIP3    H276851   1.206   5.199  16.788  0.6432  0.3313  0.5442
18454TIP3   OH276852   4.975   5.009  17.262 -0.1784  0.1963 -0.1293
18454TIP3    H176853   4.923   5.010  17.181 -1.0617 -0.1387  0.4185
18454TIP3    H276854   5.039   5.079  17.251 -0.2519  0.1044 -1.1464
18455TIP3   OH276855   3.253   2.043  16.078 -0.4609 -0.2559 -0.2642
18455TIP3    H176856   3.254   1.960  16.126 -0.3205 -0.8121 -1.2067
18455TIP3    H276857   3.165   2.047  16.040 -0.8626  0.6038  0.7693
18456TIP3   OH276858   5.255   0.364  12.539 -0.0904 -0.4442 -0.6978
18456TIP3    H176859   5.329   0.421  12.561 -1.5677  1.1017  0.3721
18456TIP3    H276860   5.220   0.401  12.458 -1.3449  0.4801  0.2547
18457TIP3   OH276861   4.317   3.965  16.987  0.3731 -0.3634  0.1775
18457TIP3    H176862   4.380   3.949  16.917  0.2730 -1.3729  0.3075
18457TIP3    H276863   4.370   3.974  17.066  0.2463 -4.0416  0.7787
18458TIP3   OH276864   6.069   5.004   2.371 -0.3290 -0.1104 -0.7541
18458TIP3    H176865   5.987   4.954   2.373  0.4121 -1.4471 -2.3031
18458TIP3    H276866   6.136   4.941   2.399  0.1862  0.9539  0.4464
18459TIP3   OH276867   5.087   1.985  15.720  0.1130  0.3840  0.2709
18459TIP3    H176868   5.084   1.947  15.633  1.9164 -0.1693  0.4255
18459TIP3    H276869   5.067   2.078  15.707  1.0543  0.4421 -0.8222
18460TIP3   OH276870   0.682   0.618  10.726  0.0234 -0.1291  0.4726
18460TIP3    H176871   0.601   0.646  10.684 -0.4665 -0.4830  1.1759
18460TIP3    H276872   0.727   0.699  10.749  0.8589  0.0872 -1.7799
18461TIP3   OH276873   2.923   6.745   5.677  0.4605  0.3185  0.8198
18461TIP3    H176874   2.856   6.679   5.659 -0.9740  2.3103 -1.3727
18461TIP3    H276875   3.003   6.710   5.638  0.1149 -0.8761  1.1618
18462TIP3   OH276876   3.176   1.877  14.383  0.4376 -0.0526  0.3130
18462TIP3    H176877   3.264   1.911  14.365 -0.8519  3.1582 -0.3201
18462TIP3    H276878   3.130   1.884  14.299 -0.3709 -1.9688  0.5651
18463TIP3   OH276879   3.183   1.505   5.821  0.5208  0.7338 -0.1728
18463TIP3    H176880   3.279   1.505   5.816  0.5103  2.3035 -0.7915
18463TIP3    H276881   3.163   1.560   5.897  0.1048  0.2513  0.0708
18464TIP3   OH276882   3.606   6.009  15.569 -0.7650 -0.1798 -0.0094
18464TIP3    H176883   3.658   5.959  15.506 -0.4425 -0.4228  0.4441
18464TIP3    H276884   3.671   6.052  15.625 -0.9655  2.5785 -1.7570
18465TIP3   OH276885   6.310   5.686   5.629  0.6779  0.0731 -0.4100
18465TIP3    H176886   6.340   5.771   5.596 -0.2477  0.1618 -1.0473
18465TIP3    H276887   6.247   5.708   5.698 -0.7206 -0.0547 -1.6056
18466TIP3   OH276888   3.104   1.510  12.554 -0.4584  0.2333  0.0280
18466TIP3    H176889   3.016   1.521  12.592 -0.9583  1.9786 -1.5645
18466TIP3    H276890   3.113   1.584  12.493  1.8533 -0.3221 -0.3368
18467TIP3   OH276891   0.518   4.493  13.462  0.4955  0.3152  0.1961
18467TIP3    H176892   0.587   4.526  13.520  2.6980  0.3157 -2.3380
18467TIP3    H276893   0.563   4.471  13.380 -2.5391  0.5074 -1.6203
18468TIP3   OH276894   1.550   1.255   2.658  0.1695 -0.2136  0.1934
18468TIP3    H176895   1.530   1.217   2.743 -0.9336 -0.4130 -0.1509
18468TIP3    H276896   1.474   1.309   2.637  0.3015 -0.4080 -0.8014
18469TIP3   OH276897   3.732   6.774  12.895  0.2368 -0.6753  0.2033
18469TIP3    H176898   3.824   6.763  12.919 -0.4472 -1.7423  2.4941
18469TIP3    H276899   3.690   6.805  12.975 -1.0467  1.8815 -1.4008
18470TIP3   OH276900   3.320   3.181  11.132 -0.2426 -0.1449  0.6913
18470TIP3    H176901   3.232   3.215  11.118  0.8847  1.1183 -4.1639
18470TIP3    H276902   3.331   3.114  11.064  2.5537 -0.3014  1.2399
18471TIP3   OH276903   1.920   0.795  12.353  0.5747 -0.7513  0.4316
18471TIP3    H176904   1.965   0.868  12.310 -0.1958 -0.1677  0.6082
18471TIP3    H276905   1.964   0.787  12.438  0.1893 -0.0053  0.7127
18472TIP3   OH276906   1.884   5.030   3.692 -0.7563  0.1729  0.1991
18472TIP3    H176907   1.797   4.993   3.698 -0.1950 -0.9159  1.7705
18472TIP3    H276908   1.871   5.124   3.705 -1.7180  0.0537  0.1095
18473TIP3   OH276909   2.985   6.628  14.804  0.2081 -0.0010  0.8322
18473TIP3    H176910   2.893   6.606  14.789  0.1312  0.7316  0.2191
18473TIP3    H276911   2.986   6.668  14.891 -0.2971  1.3830  0.2196
18474TIP3   OH276912   6.545   5.333   2.346 -0.2945 -0.2192  0.6077
18474TIP3    H176913   6.594   5.320   2.427  0.4621 -2.8085 -0.2279
18474TIP3    H276914   6.608   5.317   2.276 -1.2397  0.7735 -0.4986
18475TIP3   OH276915   2.191   5.130  10.221  0.1563 -0.5226 -0.7480
18475TIP3    H176916   2.277   5.121  10.181  0.2741  3.0415 -1.4898
18475TIP3    H276917   2.209   5.160  10.310 -0.3157  0.0937 -0.8602
18476TIP3   OH276918   0.510   0.449   6.420  0.0947  0.2670  0.2544
18476TIP3    H176919   0.498   0.543   6.434  1.3014  0.2688  1.4288
18476TIP3    H276920   0.592   0.442   6.372  0.1843 -0.2114  0.4741
18477TIP3   OH276921   2.929   6.663   1.301  0.1539 -0.0031 -0.1651
18477TIP3    H176922   3.021   6.653   1.276 -0.5948  0.5682 -3.3799
18477TIP3    H276923   2.880   6.629   1.226 -2.3065 -2.4215  2.3838
18478TIP3   OH276924   5.380   4.255   1.177 -0.3854  0.2107  0.2341
18478TIP3    H176925   5.368   4.198   1.101 -1.5209  0.3063  0.3237
18478TIP3    H276926   5.473   4.249   1.198  0.7591  3.1695 -3.5337
18479TIP3   OH276927   4.930   2.257  11.969  0.1417  0.2558 -0.0003
18479TIP3    H176928   4.920   2.241  11.875 -0.6700 -1.7408  0.4088
18479TIP3    H276929   4.840   2.261  12.002  0.4160  1.4304  0.6311
18480TIP3   OH276930   4.013   5.120   3.074  0.1383  0.0151  0.0529
18480TIP3    H176931   3.955   5.056   3.116 -0.6185 -1.3657 -2.9270
18480TIP3    H276932   3.988   5.204   3.112 -1.1108 -1.0357  1.6592
18481TIP3   OH276933   2.618   4.696   2.030  0.0149  0.3911 -0.4531
18481TIP3    H176934   2.591   4.605   2.016 -0.9472  0.6237 -0.1494
18481TIP3    H276935   2.544   4.748   1.998 -0.7341  1.0129  2.2098
18482TIP3   OH276936   3.698   2.695   0.409  0.0885  0.1648  0.0237
18482TIP3    H176937   3.644   2.621   0.435 -1.3174  1.2571  0.3122
18482TIP3    H276938   3.638   2.770   0.409  1.9306  1.7270  2.0251
18483TIP3   OH276939   2.301   1.127  11.427 -0.3171 -0.2713  0.0873
18483TIP3    H176940   2.315   1.078  11.507  0.7463 -0.8613 -0.4556
18483TIP3    H276941   2.283   1.217  11.456  1.6794 -0.1197  0.9279
18484TIP3   OH276942   4.651   1.054  15.161 -0.6025  0.0480 -0.2415
18484TIP3    H176943   4.575   0.999  15.178 -0.8800  0.4612 -0.1445
18484TIP3    H276944   4.622   1.143  15.182  0.3410  0.0302  1.2506
18485TIP3   OH276945   0.207   0.866   5.636 -0.5354  0.4159 -0.0866
18485TIP3    H176946   0.177   0.947   5.594  1.9285  1.9935  1.0404
18485TIP3    H276947   0.264   0.826   5.570 -0.8483  0.1920 -0.2194
18486TIP3   OH276948   1.827   5.275   3.768  0.4154  0.1560  0.1492
18486TIP3    H176949   1.783   5.272   3.853  0.3076 -0.5297  0.0774
18486TIP3    H276950   1.763   5.313   3.709 -0.5180 -1.8738 -0.1958
18487TIP3   OH276951   5.909   5.771  14.684  0.1304  0.8585  0.1122
18487TIP3    H176952   5.945   5.825  14.754 -1.4316  1.2307  0.6418
18487TIP3    H276953   5.818   5.799  14.676 -0.4502 -1.0647 -0.2252
18488TIP3   OH276954   3.236   6.658  13.198 -0.5614 -0.2345  0.2973
18488TIP3    H176955   3.259   6.747  13.225  0.6395 -0.5032  0.1956
18488TIP3    H276956   3.309   6.630  13.142 -1.0158 -1.2164  0.1761
18489TIP3   OH276957   2.000   0.478  15.453 -0.1474 -0.5521  0.5419
18489TIP3    H176958   1.923   0.480  15.397 -0.0570  1.2938  0.4561
18489TIP3    H276959   1.966   0.475  15.542 -0.3080 -0.8297  0.4707
18490TIP3   OH276960   5.093   3.405  13.351 -0.3658  0.8379 -0.1175
18490TIP3    H176961   5.082   3.380  13.442  0.0796 -0.0889 -0.3123
18490TIP3    H276962   5.169   3.463  13.351  0.7075 -0.5326 -0.1263
18491TIP3   OH276963   5.367   5.986   2.077 -0.0227 -0.0655  0.0138
18491TIP3    H176964   5.379   5.987   2.172 -0.5350  2.4943  0.0916
18491TIP3    H276965   5.430   5.920   2.046 -0.3605 -1.4655  2.1659
18492TIP3   OH276966   5.545   5.519  12.904 -0.0180  0.4737 -0.7517
18492TIP3    H176967   5.517   5.610  12.889  2.9171  1.5129 -0.1724
18492TIP3    H276968   5.571   5.488  12.817  2.6838  1.5321 -0.3794
18493TIP3   OH276969   3.942   4.713   2.271 -0.0147 -0.3537 -0.0268
18493TIP3    H176970   4.020   4.707   2.325 -1.2187 -1.8033  1.6207
18493TIP3    H276971   3.956   4.652   2.199  2.1516  2.5298 -2.1687
18494TIP3   OH276972   3.966   5.006  15.109 -0.4954  0.3767  0.0055
18494TIP3    H176973   3.961   4.965  15.195 -0.0633 -1.7961 -0.9631
18494TIP3    H276974   3.967   5.100  15.127 -0.6089 -0.0393  2.3465
18495TIP3   OH276975   2.718   0.971  14.274 -0.3380 -0.0807 -0.0925
18495TIP3    H176976   2.734   1.027  14.350 -0.7487 -0.1398  0.0364
18495TIP3    H276977   2.800   0.974  14.225  0.5090 -1.3673  1.2003
18496TIP3   OH276978   4.910   0.048   4.821  0.7190  0.9543  0.0052
18496TIP3    H176979   4.906   0.144   4.829  3.3325  1.1291 -0.6121
18496TIP3    H276980   4.845   0.028   4.753 -1.2857  2.0659  1.5236
18497TIP3   OH276981   2.741   3.591   1.231 -0.0575  0.0339 -0.8008
18497TIP3    H176982   2.796   3.616   1.306  0.2399 -1.9037 -0.3540
18497TIP3    H276983   2.803   3.553   1.169 -0.2404  2.0317 -2.2430
18498TIP3   OH276984   5.978   6.152   2.763 -0.5688 -0.6151  0.8261
18498TIP3    H176985   6.064   6.185   2.734  0.0575 -3.0999 -0.3001
18498TIP3    H276986   5.918   6.177   2.692 -0.2479 -1.1939  0.3441
18499TIP3   OH276987   1.192   0.377  16.574  0.3165  0.2408  0.2630
18499TIP3    H176988   1.149   0.385  16.659 -0.0839 -0.6061  0.1443
18499TIP3    H276989   1.220   0.286  16.569 -0.0445  0.1770 -0.7030
18500TIP3   OH276990   4.639   5.871  17.199  0.0335  0.1240 -0.1336
18500TIP3    H176991   4.589   5.850  17.278  0.7967 -0.7531  0.1235
18500TIP3    H276992   4.606   5.957  17.171 -0.4948  0.2680  0.9291
18501TIP3   OH276993   2.294   3.566  13.178 -0.1304  0.0169  0.2406
18501TIP3    H176994   2.256   3.608  13.100 -0.6532  3.4831  2.2611
18501TIP3    H276995   2.325   3.639  13.231 -2.5144 -2.0877  4.7317
18502TIP3   OH276996   0.606   1.028   2.694 -0.2580  0.5604  0.2561
18502TIP3    H176997   0.657   1.053   2.771 -0.5757 -1.2939  1.1138
18502TIP3    H276998   0.649   0.948   2.662 -0.9374  0.5612 -0.6713
18503TIP3   OH276999   2.652   4.471  15.961 -0.0118  0.1134  0.6100
18503TIP3    H177000   2.691   4.393  15.921 -2.7123 -0.8989 -0.1666
18503TIP3    H277001   2.635   4.529  15.887 -0.2113  0.4484  0.9187
18504TIP3   OH277002   2.868   3.988   4.813  0.4805  0.2539  0.0898
18504TIP3    H177003   2.957   3.983   4.778  0.4207 -0.4996  0.0211
18504TIP3    H277004   2.876   4.037   4.895  0.7696  1.2122 -0.5055
18505TIP3   OH277005   4.889   2.180  15.607  0.3987  0.3091  0.2313
18505TIP3    H177006   4.861   2.272  15.606 -0.8502 -0.0681  0.2955
18505TIP3    H277007   4.861   2.146  15.691  0.4802 -0.2556  0.0367
18506TIP3   OH277008   0.374   2.340   3.440 -0.2183  0.0500 -0.4548
18506TIP3    H177009   0.428   2.379   3.509  0.0465  0.3720 -0.8353
18506TIP3    H277010   0.301   2.401   3.429 -1.5513 -1.1945  1.1779
18507TIP3   OH277011   4.429   6.592   0.506 -0.2061  0.0613 -0.1582
18507TIP3    H177012   4.402   6.684   0.499 -2.3160 -0.6666 -2.6774
18507TIP3    H277013   4.347   6.543   0.498  1.0856 -2.0703 -0.6618
18508TIP3   OH277014   2.637   4.100  13.116 -0.3446  0.4039  0.7969
18508TIP3    H177015   2.669   4.138  13.034  0.3052  0.3613  1.0241
18508TIP3    H277016   2.576   4.165  13.150  0.2818  0.9605  0.8663
18509TIP3   OH277017   5.050   0.590  12.052 -0.0474  0.0431 -0.9888
18509TIP3    H177018   5.036   0.685  12.046  0.8119  0.2610  0.2888
18509TIP3    H277019   4.982   0.559  12.112 -0.1858 -0.1253 -1.2288
18510TIP3   OH277020   6.541   1.040  11.350  0.0076 -0.8097 -0.1196
18510TIP3    H177021   6.560   1.097  11.425 -0.3786  1.6255 -1.8024
18510TIP3    H277022   6.464   0.991  11.376  0.3241 -0.5357  1.3693
18511TIP3   OH277023   6.207   1.347   5.504 -0.2224  0.7753 -0.9899
18511TIP3    H177024   6.218   1.420   5.443  0.4212  0.4476 -1.2691
18511TIP3    H277025   6.202   1.269   5.449 -0.7900  0.5940 -0.6869
18512TIP3   OH277026   4.836   4.039  11.146 -0.5977  0.0488 -0.4250
18512TIP3    H177027   4.873   4.118  11.106  2.6302 -0.6901  0.9743
18512TIP3    H277028   4.764   4.071  11.200 -0.0658  1.8995 -0.7752
18513TIP3   OH277029   3.643   3.125  13.485 -0.5132 -0.0240 -0.3904
18513TIP3    H177030   3.738   3.134  13.477 -0.1836 -1.5377  1.5129
18513TIP3    H277031   3.626   3.032  13.469 -1.3934 -0.2344  1.6897
18514TIP3   OH277032   4.193   4.456   6.526  0.0414 -0.3505 -0.2164
18514TIP3    H177033   4.220   4.372   6.564 -2.2830 -1.3336 -0.6523
18514TIP3    H277034   4.242   4.521   6.576 -0.4559 -1.8038  2.2761
18515TIP3   OH277035   5.518   3.082   6.464  0.8792 -0.2736 -0.1490
18515TIP3    H177036   5.460   3.155   6.484  2.4539  0.5589  1.4616
18515TIP3    H277037   5.602   3.122   6.444  1.4845 -1.5978 -0.3353
18516TIP3   OH277038   3.431   5.301   2.434  0.2954 -0.2389 -0.6796
18516TIP3    H177039   3.387   5.224   2.470  1.1125  0.1253  1.1419
18516TIP3    H277040   3.523   5.289   2.456  0.2121  2.0381  1.0757
18517TIP3   OH277041   1.981   6.431   0.399  0.3868  0.2230 -0.2450
18517TIP3    H177042   1.986   6.501   0.334 -0.7885 -0.4893 -1.1285
18517TIP3    H277043   1.918   6.463   0.463  0.4453  0.3174 -0.2353
18518TIP3   OH277044   6.265   0.346   1.037  0.4823 -0.3185 -0.1018
18518TIP3    H177045   6.170   0.354   1.024  0.5794  0.0864 -0.5920
18518TIP3    H277046   6.301   0.358   0.949  1.0090 -0.1823  0.1365
18519TIP3   OH277047   5.228   1.086  13.489 -0.0017  0.2152 -0.4178
18519TIP3    H177048   5.178   1.007  13.469  0.5374 -0.5313  1.1272
18519TIP3    H277049   5.193   1.116  13.573  1.2700  0.4076  0.0467
18520TIP3   OH277050   0.760   6.642   3.505  0.0758  0.1034 -0.0263
18520TIP3    H177051   0.750   6.588   3.426  0.3151 -2.6661  1.7879
18520TIP3    H277052   0.671   6.673   3.524 -0.0441  0.4548 -1.1295
18521TIP3   OH277053   3.674   4.722   4.073 -0.5351  0.1772  0.0334
18521TIP3    H177054   3.620   4.767   4.138 -0.0973  1.7486 -0.6762
18521TIP3    H277055   3.625   4.728   3.991 -1.0301 -1.6970  0.1580
18522TIP3   OH277056   5.753   2.089   0.017  0.3204 -0.2643  0.2559
18522TIP3    H177057   5.800   2.172   0.015 -0.3476  0.1008 -0.3271
18522TIP3    H277058   5.663   2.112   0.039  0.0065 -0.7789 -0.4870
18523TIP3   OH277059   6.097   3.808   2.344 -0.4304  0.2217 -0.3013
18523TIP3    H177060   6.103   3.805   2.439  0.5239  0.0896 -0.3525
18523TIP3    H277061   6.008   3.837   2.325 -0.5119  0.5747  0.6358
18524TIP3   OH277062   5.407   0.445   3.073  0.2719 -0.0479 -0.3028
18524TIP3    H177063   5.324   0.431   3.119 -0.1641 -0.2204 -1.1345
18524TIP3    H277064   5.387   0.511   3.007  0.5773 -0.7235 -1.0802
18525TIP3   OH277065   4.069   4.391   4.767  0.5797  0.0302 -0.4093
18525TIP3    H177066   4.010   4.408   4.840  2.4474  0.1116  1.1001
18525TIP3    H277067   4.035   4.445   4.696  0.2139  1.8812  1.1349
18526TIP3   OH277068   5.736   3.387  12.725 -0.1744 -0.3420 -0.5271
18526TIP3    H177069   5.764   3.473  12.756  0.8604 -0.7546 -0.2974
18526TIP3    H277070   5.794   3.325  12.771 -1.3642 -1.1979 -0.1569
18527TIP3   OH277071   1.930   6.453  11.892 -0.4053 -0.3411  0.7059
18527TIP3    H177072   1.847   6.466  11.846  0.6056  0.8701 -0.8314
18527TIP3    H277073   1.916   6.493  11.978 -1.1967  0.4680  0.2066
18528TIP3   OH277074   2.114   0.994  12.330  0.7482  0.4808  1.1419
18528TIP3    H177075   2.088   1.084  12.313 -1.3899 -0.3643 -0.2188
18528TIP3    H277076   2.209   0.999  12.344  0.3758  3.1640  2.9446
18529TIP3   OH277077   2.068   6.582  12.928  0.0864  0.3492 -0.1246
18529TIP3    H177078   1.999   6.617  12.985  0.1799 -0.6483  0.6184
18529TIP3    H277079   2.041   6.492  12.909  0.9860  0.0730 -0.1493
18530TIP3   OH277080   3.017   6.430   0.583  0.0982  0.1482 -0.1302
18530TIP3    H177081   3.085   6.415   0.649  0.4469  0.1976 -0.4834
18530TIP3    H277082   3.027   6.521   0.557  0.3854 -0.0512 -0.7331
18531TIP3   OH277083   0.050   6.406  15.670  0.2088 -0.3834 -0.4925
18531TIP3    H177084   0.017   6.495  15.663  1.4675 -0.0360 -2.1134
18531TIP3    H277085   0.143   6.412  15.648  0.4911 -1.9639  0.1783
18532TIP3   OH277086   3.116   5.433   4.867  0.6006  0.1364 -0.3190
18532TIP3    H177087   3.062   5.457   4.792  0.2921 -0.4460 -0.2850
18532TIP3    H277088   3.080   5.485   4.939 -0.8754 -1.3462  0.0322
18533TIP3   OH277089   5.490   2.963  16.089  0.6504 -0.2214 -0.8095
18533TIP3    H177090   5.495   3.043  16.141 -0.5036 -1.1444  0.7440
18533TIP3    H277091   5.397   2.952  16.071  0.8737 -0.8527 -1.6179
18534TIP3   OH277092   0.218   3.034   5.339 -0.2686  0.4162  0.2507
18534TIP3    H177093   0.132   3.001   5.311  0.8248 -2.4112  0.0239
18534TIP3    H277094   0.255   2.962   5.390  2.1581  1.4509 -0.0101
18535TIP3   OH277095   6.814   4.219  14.994 -0.0944  0.2251 -0.2055
18535TIP3    H177096   6.892   4.163  14.994  0.2409  0.6823  0.7654
18535TIP3    H277097   6.843   4.301  14.955 -0.6025 -0.2857 -1.6860
18536TIP3   OH277098   5.203   5.675  15.665 -0.0652  0.3848  0.5627
18536TIP3    H177099   5.166   5.756  15.631  0.3414  1.1469  1.8922
18536TIP3    H277100   5.130   5.631  15.708 -0.6066 -0.6394 -1.3905
18537TIP3   OH277101   1.136   1.700  11.416  0.1516  0.2824 -0.1356
18537TIP3    H177102   1.193   1.661  11.481  1.3613  0.6559 -0.9576
18537TIP3    H277103   1.143   1.643  11.339 -1.7381 -0.5013  0.2507
18538TIP3   OH277104   5.644   0.862  12.587 -0.3765 -0.1462 -0.4215
18538TIP3    H177105   5.603   0.949  12.582 -0.6473 -0.3444 -1.9988
18538TIP3    H277106   5.624   0.821  12.503  2.2417 -0.6254 -0.8707
18539TIP3   OH277107   5.351   0.877  15.802  0.2195  0.2477 -0.2793
18539TIP3    H177108   5.359   0.964  15.842 -0.7354  0.3535 -0.2995
18539TIP3    H277109   5.434   0.834  15.822 -0.3343  0.1989  2.0835
18540TIP3   OH277110   0.061   3.005   0.430 -0.2104 -0.3536 -0.2009
18540TIP3    H177111   0.120   3.077   0.407 -0.2256  0.1325  1.2530
18540TIP3    H277112   0.119   2.933   0.454 -0.1877  0.1697  1.3698
18541TIP3   OH277113   0.874   4.144  16.011  0.4678 -0.2715  0.0768
18541TIP3    H177114   0.888   4.239  16.002  0.4581 -0.4537 -2.1139
18541TIP3    H277115   0.845   4.133  16.102 -0.5905  1.9619  0.0515
18542TIP3   OH277116   4.488   5.432   6.800  0.2620  0.0957 -0.6486
18542TIP3    H177117   4.504   5.481   6.881  0.9022 -0.2210 -0.5843
18542TIP3    H277118   4.396   5.405   6.806  0.5094 -0.5668  0.3189
18543TIP3   OH277119   0.659   0.118  14.212  0.2925  0.1166  0.3741
18543TIP3    H177120   0.660   0.207  14.178 -0.3036  0.0253  0.1082
18543TIP3    H277121   0.732   0.114  14.274  1.3430  0.3066 -0.8381
18544TIP3   OH277122   6.152   0.778   2.823 -0.2360 -0.7113 -0.4603
18544TIP3    H177123   6.159   0.868   2.856  2.3912  0.6279 -4.1800
18544TIP3    H277124   6.170   0.723   2.899  2.2787  2.0520  1.0834
18545TIP3   OH277125   4.588   6.618   3.531  0.1804 -0.1316  0.0855
18545TIP3    H177126   4.567   6.705   3.564 -0.8205 -0.5712  0.6255
18545TIP3    H277127   4.655   6.585   3.591  0.3689  0.1631  0.0371
18546TIP3   OH277128   1.746   4.147   2.027 -0.0872 -0.3173 -0.0169
18546TIP3    H177129   1.825   4.111   1.986 -0.9647  0.1937 -2.1839
18546TIP3    H277130   1.762   4.241   2.033 -0.6014 -0.1843 -0.6499
18547TIP3   OH277131   2.378   6.584   4.914  0.3525  0.1076 -0.0179
18547TIP3    H177132   2.320   6.544   4.979  1.8474  0.5631  1.6404
18547TIP3    H277133   2.339   6.669   4.896 -0.1095 -0.0470  0.2501
18548TIP3   OH277134   0.690   2.319  17.211 -0.0694 -0.5863 -0.2544
18548TIP3    H177135   0.709   2.273  17.293  0.2655 -0.7927 -0.4451
18548TIP3    H277136   0.730   2.264  17.143 -1.7569 -1.2586 -0.7122
18549TIP3   OH277137   4.891   0.230  17.009  0.0749  0.6274 -0.1770
18549TIP3    H177138   4.963   0.258  16.952 -0.2487 -0.5648 -1.1645
18549TIP3    H277139   4.858   0.312  17.047 -0.8171  1.6046 -2.9858
18550TIP3   OH277140   2.630   5.458   2.408 -1.3618 -0.3072 -0.1161
18550TIP3    H177141   2.672   5.388   2.458  0.5388  0.5346 -0.4642
18550TIP3    H277142   2.556   5.486   2.462  0.3448  0.2439  2.0076
18551TIP3   OH277143   1.880   5.662   2.267 -0.1966  0.1924  0.0967
18551TIP3    H177144   1.886   5.598   2.338 -0.2033  1.6827  1.4526
18551TIP3    H277145   1.961   5.648   2.217  0.4999  0.1055  1.2215
18552TIP3   OH277146   5.154   2.484   5.071 -0.1890 -0.0280 -0.2082
18552TIP3    H177147   5.067   2.450   5.053  0.2516 -1.2398 -0.0627
18552TIP3    H277148   5.162   2.561   5.015 -1.3584  0.1083 -0.1967
18553TIP3   OH277149   6.146   4.236  16.542  0.1923 -0.2644  0.3284
18553TIP3    H177150   6.073   4.234  16.479  0.0280 -0.7205  0.5284
18553TIP3    H277151   6.183   4.148  16.538  1.3184  0.2365 -0.4459
18554TIP3   OH277152   0.632   1.562   0.661  0.5397 -0.2571  0.4451
18554TIP3    H177153   0.666   1.551   0.572 -0.6088 -4.7138  0.4274
18554TIP3    H277154   0.537   1.570   0.649  0.4513 -0.1935  1.1867
18555TIP3   OH277155   1.879   1.479  14.566 -0.1063 -0.1954 -0.0088
18555TIP3    H177156   1.919   1.473  14.479 -1.0545  1.3349 -0.5674
18555TIP3    H277157   1.910   1.401  14.612  1.1506 -0.5427 -1.4078
18556TIP3   OH277158   4.587   0.883   1.488  0.2676  0.0559  0.2433
18556TIP3    H177159   4.633   0.829   1.424  0.1218  0.8456 -0.5434
18556TIP3    H277160   4.598   0.973   1.456 -2.1395  0.2339 -0.1896
18557TIP3   OH277161   3.914   3.196  13.519  0.2316  0.0092  0.6432
18557TIP3    H177162   3.957   3.175  13.602  1.1375  0.5443  0.3173
18557TIP3    H277163   3.902   3.291  13.521 -0.0662 -0.0210  0.3186
18558TIP3   OH277164   1.667   1.999  15.464 -0.1418  0.0387  0.1211
18558TIP3    H177165   1.762   1.997  15.464 -0.0984  1.5464 -0.0975
18558TIP3    H277166   1.641   1.924  15.410  0.9652  1.1235 -1.9772
18559TIP3   OH277167   3.093   0.456  16.738  0.1586 -0.3553 -0.0977
18559TIP3    H177168   2.997   0.465  16.738  0.0223 -1.7971 -0.6377
18559TIP3    H277169   3.110   0.384  16.678  1.5361 -0.7889  0.8133
18560TIP3   OH277170   0.179   4.501  14.256 -0.7330  0.4978  0.4092
18560TIP3    H177171   0.139   4.434  14.200  0.4715  0.6421 -0.6602
18560TIP3    H277172   0.231   4.451  14.320  0.4447  0.3806 -0.6007
18561TIP3   OH277173   1.651   4.431  11.726 -0.1091 -0.0856 -0.1523
18561TIP3    H177174   1.620   4.518  11.704 -2.0763 -0.5435  0.6904
18561TIP3    H277175   1.615   4.413  11.813  1.6053 -1.1109  0.3896
18562TIP3   OH277176   1.103   5.202  11.699 -0.1400  0.0926  0.4782
18562TIP3    H177177   1.023   5.158  11.670  0.5542 -0.3438 -0.8209
18562TIP3    H277178   1.172   5.137  11.686  0.8788  1.4625 -1.2911
18563TIP3   OH277179   3.446   6.724  13.500 -0.0872  0.1036 -1.1674
18563TIP3    H177180   3.493   6.643  13.479  0.5996  0.4396 -0.9414
18563TIP3    H277181   3.513   6.783  13.534 -0.6700  0.5993 -0.8588
18564TIP3   OH277182   1.277   0.888  11.347  0.3687 -0.2116 -0.2722
18564TIP3    H177183   1.280   0.929  11.433  0.2334 -3.4342  1.3192
18564TIP3    H277184   1.329   0.808  11.356  1.1719 -0.1297 -3.4718
18565TIP3   OH277185   5.959   5.456   1.827 -0.4271  0.0130  0.5169
18565TIP3    H177186   5.873   5.444   1.786 -0.1917 -1.3077  0.3979
18565TIP3    H277187   5.990   5.540   1.792 -0.9863 -0.2531 -0.6614
18566TIP3   OH277188   1.722   6.025   5.655  0.5669 -0.0639 -0.1534
18566TIP3    H177189   1.666   5.947   5.657 -0.1667  0.4666  0.3254
18566TIP3    H277190   1.778   6.017   5.733  0.8767 -0.3891 -0.4089
18567TIP3   OH277191   2.521   6.451  13.661  0.5727 -1.0758  0.6097
18567TIP3    H177192   2.462   6.478  13.590 -1.6047 -2.7810  1.7078
18567TIP3    H277193   2.592   6.514  13.658 -2.0849  2.0065  0.2255
18568TIP3   OH277194   1.024   1.374   2.276 -0.1305  0.1349 -0.0367
18568TIP3    H177195   1.115   1.355   2.302  0.3058 -0.7391 -2.1190
18568TIP3    H277196   0.994   1.437   2.342  1.5513 -0.5452  1.4476
18569TIP3   OH277197   0.715   3.001   6.501 -0.2989 -0.7586 -0.5668
18569TIP3    H177198   0.747   3.052   6.576 -2.6202  0.5182 -0.3620
18569TIP3    H277199   0.645   3.056   6.464 -2.3508 -3.4634 -0.8286
18570TIP3   OH277200   6.014   6.075   6.787  0.1783 -0.1322 -0.0777
18570TIP3    H177201   6.058   6.151   6.822  1.0742  0.6357 -2.7149
18570TIP3    H277202   5.921   6.099   6.787  0.3028  0.3585  0.5176
18571TIP3   OH277203   0.069   4.852  11.938 -0.2832  0.0232 -0.3555
18571TIP3    H177204   0.133   4.817  11.876  1.4160 -0.7659  1.7928
18571TIP3    H277205   0.002   4.785  11.943  0.1270 -0.4056 -0.5202
18572TIP3   OH277206   3.003   6.612   3.713  0.2632 -0.1702 -0.1959
18572TIP3    H177207   2.916   6.595   3.676  0.6801 -1.4671 -0.5972
18572TIP3    H277208   3.061   6.621   3.637  0.5721  0.2222  0.0818
18573TIP3   OH277209   5.634   0.853   4.774 -0.7301  0.0582 -0.1723
18573TIP3    H177210   5.609   0.883   4.861 -1.6656 -1.4465  0.0896
18573TIP3    H277211   5.664   0.763   4.787 -0.4081 -0.0204 -1.3387
18574TIP3   OH277212   6.045   2.005   0.647  0.0002 -0.7179 -0.4846
18574TIP3    H177213   6.050   1.910   0.637 -1.7163 -0.9117  0.3806
18574TIP3    H277214   5.957   2.028   0.617 -1.2138  0.0562  3.4375
18575TIP3   OH277215   3.219   3.834  16.930 -0.5908  0.5283  0.5109
18575TIP3    H177216   3.287   3.793  16.877 -1.7411  0.0642 -0.6269
18575TIP3    H277217   3.159   3.872  16.866 -2.1582 -0.3047  1.4613
18576TIP3   OH277218   2.295   4.550  17.269  0.1640  0.1000  0.5585
18576TIP3    H177219   2.361   4.586  17.328 -0.6670  2.1607  0.2712
18576TIP3    H277220   2.219   4.532  17.325 -0.5925  1.9702  0.1835
18577TIP3   OH277221   5.431   2.465   2.825 -0.2195  0.2112  0.0353
18577TIP3    H177222   5.388   2.437   2.744  0.1110  0.7079 -0.3086
18577TIP3    H277223   5.517   2.495   2.798 -0.5405  1.4946  0.4181
18578TIP3   OH277224   0.013   1.183   0.795 -0.4642  0.2215  0.1963
18578TIP3    H177225   0.080   1.239   0.835  0.2323  0.8960 -1.8409
18578TIP3    H277226  -0.069   1.230   0.809  0.2234  2.3303 -2.3363
18579TIP3   OH277227   6.338   4.043   5.328  0.3786 -0.3890 -0.0935
18579TIP3    H177228   6.276   4.014   5.261  1.0275 -0.1699 -0.7926
18579TIP3    H277229   6.284   4.090   5.392 -0.2202 -0.4717 -0.5339
18580TIP3   OH277230   2.340   5.095   1.567  0.0650  0.0150 -0.9088
18580TIP3    H177231   2.323   5.178   1.521  0.5889  0.5477 -0.1469
18580TIP3    H277232   2.430   5.073   1.543  0.9595  1.1993  1.2344
18581TIP3   OH277233   6.350   4.099   3.325 -1.0514 -0.3509 -0.0042
18581TIP3    H177234   6.281   4.155   3.288 -0.7242  1.2366  1.7052
18581TIP3    H277235   6.315   4.071   3.410  0.1827  0.0392  0.6488
18582TIP3   OH277236   2.222   2.318  13.079  0.1990 -0.2964 -0.2894
18582TIP3    H177237   2.257   2.406  13.094  0.9762 -0.7948  0.7852
18582TIP3    H277238   2.294   2.269  13.040  0.1057 -0.7725  0.1284
18583TIP3   OH277239   1.210   0.090   0.522  0.0720  0.0584  0.0855
18583TIP3    H177240   1.284   0.060   0.574  0.3364  1.0405  0.2937
18583TIP3    H277241   1.197   0.181   0.549 -0.0284  0.4689 -1.2846
18584TIP3   OH277242   2.689   4.398  13.341  0.5755 -0.1150 -0.1306
18584TIP3    H177243   2.642   4.458  13.399  0.7265 -0.0483 -0.0756
18584TIP3    H277244   2.753   4.454  13.296 -1.1777  0.2907 -2.1848
18585TIP3   OH277245   3.253   5.985  13.241  0.2326 -0.4377 -0.6593
18585TIP3    H177246   3.270   5.891  13.240  2.7662 -0.0593  0.7948
18585TIP3    H277247   3.234   6.005  13.333 -0.1120  0.4773 -0.9257
18586TIP3   OH277248   3.532   4.641  12.146  0.0168  0.7953 -0.7258
18586TIP3    H177249   3.480   4.582  12.199 -0.0185  0.3546 -1.2446
18586TIP3    H277250   3.469   4.700  12.106 -0.1127  0.1387 -1.5086
18587TIP3   OH277251   5.909   4.386  16.844 -0.2533 -0.0910 -0.0928
18587TIP3    H177252   5.902   4.384  16.939 -0.5042  1.6943 -0.0656
18587TIP3    H277253   5.968   4.459  16.825 -1.2571  0.4118 -1.3582
18588TIP3   OH277254   2.144   5.065   2.496 -0.4395  0.0734  0.4773
18588TIP3    H177255   2.125   4.979   2.458 -0.1877  0.0967  0.2947
18588TIP3    H277256   2.218   5.098   2.445  0.8501 -0.5194  1.9499
18589TIP3   OH277257   4.016   3.696   6.344  0.7618  0.0570  0.3083
18589TIP3    H177258   3.975   3.783   6.336  2.5478  0.7046 -2.5946
18589TIP3    H277259   3.942   3.635   6.347 -0.4980  1.5864  1.1373
18590TIP3   OH277260   6.145   5.436  12.515  0.0669 -0.5428  0.2318
18590TIP3    H177261   6.147   5.384  12.435  1.1406  0.1317 -0.1891
18590TIP3    H277262   6.082   5.506  12.497  0.2473 -0.4396  0.0090
18591TIP3   OH277263   1.969   5.646   3.379 -0.2525  0.0655  0.1062
18591TIP3    H177264   2.063   5.662   3.389  0.1502 -0.0957 -2.9230
18591TIP3    H277265   1.927   5.723   3.418  1.1683  0.8603  0.1136
18592TIP3   OH277266   1.038   4.491   2.587 -0.2400 -0.6561 -0.1604
18592TIP3    H177267   0.965   4.546   2.558  0.5937  0.6004  0.0676
18592TIP3    H277268   1.041   4.419   2.524 -0.8329  0.0118 -0.9600
18593TIP3   OH277269   3.336   0.432  15.573 -0.2661 -0.4930  0.5682
18593TIP3    H177270   3.295   0.510  15.611  0.2841 -0.5950  1.3972
18593TIP3    H277271   3.425   0.460  15.553 -0.8337 -0.1544 -1.5991
18594TIP3   OH277272   1.277   5.548  12.568 -0.1457  0.0711  0.2182
18594TIP3    H177273   1.302   5.485  12.636 -0.3819 -1.9026 -1.4526
18594TIP3    H277274   1.347   5.542  12.503  1.2880  3.6509  1.3006
18595TIP3   OH277275   6.557   3.887   5.972  0.1827 -0.7057 -0.1876
18595TIP3    H177276   6.635   3.942   5.965  1.3879 -2.2216  1.1876
18595TIP3    H277277   6.579   3.807   5.925 -0.6870 -1.0087 -0.0920
18596TIP3   OH277278   5.047   6.397  15.081 -0.0219  0.1855 -1.0917
18596TIP3    H177279   5.000   6.397  15.164 -0.0706 -3.6479 -1.0202
18596TIP3    H277280   5.081   6.486  15.072 -0.7805  0.9116  2.5736
18597TIP3   OH277281   5.804   4.657   3.403 -0.0709 -0.5987 -0.2026
18597TIP3    H177282   5.763   4.573   3.382  0.8089 -1.6384  2.1741
18597TIP3    H277283   5.730   4.718   3.408 -1.0939 -1.9215  1.3708
18598TIP3   OH277284   1.095   5.447  14.272 -0.5043 -0.0989  0.1380
18598TIP3    H177285   1.062   5.375  14.327  0.9685 -0.8924 -0.0021
18598TIP3    H277286   1.098   5.411  14.184 -0.3009  0.3254 -0.0314
18599TIP3   OH277287   3.775   4.601   0.741 -0.4305  0.3159  0.4149
18599TIP3    H177288   3.869   4.618   0.747 -0.2477 -0.1208 -1.0246
18599TIP3    H277289   3.736   4.688   0.731 -0.1107  0.4377  0.2091
18600TIP3   OH277290   4.604   0.746   6.062  0.1642  0.2253  0.0592
18600TIP3    H177291   4.601   0.664   6.112 -0.5691  0.8864  1.1240
18600TIP3    H277292   4.579   0.720   5.973  1.4088 -0.9516  0.0345
18601TIP3   OH277293   0.967   1.933  16.958  1.2396 -0.0532 -0.9455
18601TIP3    H177294   1.038   1.974  17.007  1.2065  0.6476 -1.4806
18601TIP3    H277295   1.004   1.851  16.926  0.6545 -1.4955  1.9127
18602TIP3   OH277296   1.554   6.022   2.019 -0.4242 -0.1992  0.0124
18602TIP3    H177297   1.514   5.998   1.936  0.1419 -0.8022 -0.0882
18602TIP3    H277298   1.584   6.112   2.007  1.7300 -1.0407 -1.2295
18603TIP3   OH277299   5.999   0.668   6.083  0.2917 -0.2494  0.2436
18603TIP3    H177300   6.041   0.747   6.048 -0.9793 -0.4965 -1.9492
18603TIP3    H277301   6.053   0.596   6.051  0.2565 -0.3723  0.4625
18604TIP3   OH277302   2.901   1.076   3.112  0.1268 -0.5448 -0.3107
18604TIP3    H177303   2.836   1.109   3.050  0.9161 -1.7249 -1.8101
18604TIP3    H277304   2.854   1.068   3.195 -0.7188  1.9019 -0.5181
18605TIP3   OH277305   1.667   3.767  13.481 -0.2968 -0.4779 -0.7324
18605TIP3    H177306   1.641   3.858  13.494  0.2819 -0.4011 -0.0615
18605TIP3    H277307   1.695   3.763  13.390  0.2031  0.1515 -0.6151
18606TIP3   OH277308   0.641   0.917  14.276  0.2625 -0.3674 -0.3248
18606TIP3    H177309   0.709   0.973  14.237 -0.9205  0.5286 -1.1518
18606TIP3    H277310   0.684   0.876  14.351  1.6845  0.2688 -0.7618
18607TIP3   OH277311   5.723   3.439   5.407  0.5178 -0.3128 -0.1446
18607TIP3    H177312   5.746   3.501   5.338 -0.7944 -0.5091 -0.7709
18607TIP3    H277313   5.695   3.360   5.361  1.7148 -1.2266  0.6441
18608TIP3   OH277314   2.569   5.587   2.181  0.4420 -0.1569 -0.2734
18608TIP3    H177315   2.651   5.633   2.164 -0.3687  2.0361  1.4375
18608TIP3    H277316   2.588   5.530   2.255  0.6097 -0.1784 -0.3335
18609TIP3   OH277317   4.229   0.363  14.847 -0.6089  0.4978  0.5986
18609TIP3    H177318   4.301   0.393  14.902 -1.4368  1.5116  1.1572
18609TIP3    H277319   4.150   0.389  14.895 -1.3520 -1.0005  0.2216
18610TIP3   OH277320   2.095   5.248  11.167 -0.3317  0.3646  0.5892
18610TIP3    H177321   2.157   5.245  11.239 -0.4129  1.0016  0.6897
18610TIP3    H277322   2.038   5.322  11.187  0.2112  1.1208 -0.5819
18611TIP3   OH277323   1.860   1.531  13.334  0.4975 -0.1153  1.0836
18611TIP3    H177324   1.795   1.586  13.376 -2.2665  0.3031 -3.4126
18611TIP3    H277325   1.821   1.444  13.333  1.1688 -0.4202  0.7043
18612TIP3   OH277326   1.590   5.695   0.628  0.2917 -0.0027 -0.6586
18612TIP3    H177327   1.549   5.770   0.585  0.8703  0.7093  0.0313
18612TIP3    H277328   1.641   5.653   0.559  1.1053  1.0586 -0.7140
18613TIP3   OH277329   6.331   4.625  16.767 -0.7728  0.0276  0.0060
18613TIP3    H177330   6.395   4.582  16.823 -1.2417 -1.3132 -0.4838
18613TIP3    H277331   6.267   4.557  16.747 -1.3446  0.8658 -1.0411
18614TIP3   OH277332   0.651   5.387   3.860  0.8686  0.1419  0.1039
18614TIP3    H177333   0.732   5.349   3.894 -0.5053 -1.8269  1.2746
18614TIP3    H277334   0.601   5.312   3.828 -0.2584  1.3989 -1.1673
18615TIP3   OH277335   3.108   4.824  13.557  0.3320  0.4939  0.6298
18615TIP3    H177336   3.111   4.908  13.510  1.9445 -0.9121 -1.9044
18615TIP3    H277337   3.200   4.799  13.567 -0.1652 -2.9064 -2.3363
18616TIP3   OH277338   3.964   6.552  11.305  0.1390 -0.7390  0.0767
18616TIP3    H177339   3.899   6.496  11.349  0.0169  0.3811  1.3778
18616TIP3    H277340   4.000   6.605  11.376  1.1648 -0.0644 -0.9449
18617TIP3   OH277341   1.375   5.541  10.815 -0.6293 -0.1008 -0.2331
18617TIP3    H177342   1.427   5.463  10.838 -2.1787  0.0420  4.2462
18617TIP3    H277343   1.288   5.506  10.793 -0.8450  0.2529  0.0685
18618TIP3   OH277344   2.033   3.992  13.369  0.3947 -0.1830  0.1417
18618TIP3    H177345   2.115   4.034  13.342  2.5659 -2.9294  2.1392
18618TIP3    H277346   2.001   3.949  13.289  0.6677  1.2720 -0.7554
18619TIP3   OH277347   4.868   4.444  12.947 -0.3122 -0.2172  0.1603
18619TIP3    H177348   4.871   4.539  12.933  0.8356 -0.0574  1.4264
18619TIP3    H277349   4.854   4.408  12.859 -1.0442  1.1300 -0.3010
18620TIP3   OH277350   6.328   6.630  12.489 -0.4297  0.7229 -0.1384
18620TIP3    H177351   6.267   6.650  12.418 -1.3125  2.4878  1.0791
18620TIP3    H277352   6.415   6.643  12.451 -0.8870  1.2757 -0.9926
18621TIP3   OH277353   6.305   1.901   5.310 -0.7519 -0.2568  0.0946
18621TIP3    H177354   6.243   1.921   5.240 -1.8771  0.1023  1.1671
18621TIP3    H277355   6.284   1.812   5.337 -1.4862  0.2273  1.1450
18622TIP3   OH277356   2.485   0.064  14.544  0.0522 -0.2155 -0.1118
18622TIP3    H177357   2.570   0.105  14.559 -0.7731  1.3463  0.3942
18622TIP3    H277358   2.458   0.032  14.631 -1.2673  2.0425  0.3300
18623TIP3   OH277359   1.778   2.724   2.261  0.1654 -0.0152 -0.0576
18623TIP3    H177360   1.819   2.647   2.221  1.2499 -0.0208  1.0521
18623TIP3    H277361   1.743   2.773   2.187  1.0635 -0.6541 -0.9181
18624TIP3   OH277362   2.894   0.666  10.952  0.7818 -0.2220  0.0505
18624TIP3    H177363   2.947   0.745  10.961 -1.2152  1.3273 -1.2792
18624TIP3    H277364   2.915   0.634  10.864 -0.9215  0.7706 -0.7448
18625TIP3   OH277365   4.716   6.653  16.819  0.7150 -0.1965 -0.0943
18625TIP3    H177366   4.675   6.736  16.797  0.4573 -0.0315  0.9673
18625TIP3    H277367   4.684   6.591  16.754 -1.2359 -0.0688  0.7283
18626TIP3   OH277368   0.042   1.533   3.727 -0.3514 -0.2832  0.4604
18626TIP3    H177369   0.064   1.497   3.641  0.4713  0.0568  0.5218
18626TIP3    H277370   0.121   1.520   3.780 -0.4247  0.6010  0.8029
18627TIP3   OH277371   6.239   1.379   2.747 -0.2234  0.1444 -0.6641
18627TIP3    H177372   6.252   1.318   2.820 -0.4362 -0.4673 -1.1320
18627TIP3    H277373   6.225   1.463   2.789 -0.6937 -0.2656  0.0208
18628TIP3   OH277374   2.528   2.859   5.090 -0.3055  0.0761  0.3708
18628TIP3    H177375   2.503   2.867   4.998 -1.7830  0.2655  0.7758
18628TIP3    H277376   2.575   2.775   5.094 -1.6007 -0.6879 -0.2628
18629TIP3   OH277377   1.120   6.597  16.760  0.1383 -0.2738  0.3037
18629TIP3    H177378   1.203   6.643  16.774 -0.6748  1.0304  0.9364
18629TIP3    H277379   1.142   6.505  16.768  1.7826 -0.0081 -0.8453
18630TIP3   OH277380   2.599   6.397  15.100  0.5530 -0.0348 -0.0682
18630TIP3    H177381   2.505   6.383  15.087  0.4099 -1.6573  2.2660
18630TIP3    H277382   2.641   6.341  15.035 -0.0228  2.4590 -2.7184
18631TIP3   OH277383   0.271   1.150  14.432  0.1667 -0.0237 -0.2642
18631TIP3    H177384   0.196   1.199  14.398  0.4543  1.4956  1.1884
18631TIP3    H277385   0.294   1.089  14.362 -1.0140  1.0366 -1.6147
18632TIP3   OH277386   4.711   6.789   4.616 -0.2335 -0.1150  0.2222
18632TIP3    H177387   4.676   6.730   4.683  1.3064 -1.9495 -0.5342
18632TIP3    H277388   4.666   6.762   4.536  1.0940 -0.8754 -0.2916
18633TIP3   OH277389   2.390   2.639  11.309 -0.2234  0.1886  0.3882
18633TIP3    H177390   2.416   2.658  11.399 -1.0816  2.7473  0.1324
18633TIP3    H277391   2.467   2.658  11.256  0.4839 -1.9247  0.6070
18634TIP3   OH277392   0.922   1.329   5.472  0.1247  0.4854 -0.4209
18634TIP3    H177393   0.848   1.333   5.411 -0.0390  0.6199 -0.2156
18634TIP3    H277394   0.953   1.419   5.478  0.6446  0.3363 -0.9211
18635TIP3   OH277395   1.953   4.150  14.100  0.0541  0.2794  0.3202
18635TIP3    H177396   1.872   4.101  14.087  0.4379 -0.7291  1.6695
18635TIP3    H277397   2.014   4.087  14.139  1.0518  1.3938  0.6077
18636TIP3   OH277398   3.540   6.073   0.399  0.1560 -0.2297 -0.4509
18636TIP3    H177399   3.537   6.147   0.459  0.5544 -1.5254  1.2132
18636TIP3    H277400   3.461   6.081   0.346  0.7226  1.9503 -0.9932
18637TIP3   OH277401   5.257   6.487  12.249 -0.5588 -0.1376  0.0505
18637TIP3    H177402   5.226   6.469  12.338 -1.1514 -0.0470 -0.1435
18637TIP3    H277403   5.315   6.413  12.229  0.5814  0.4781  0.9925
18638TIP3   OH277404   0.729   2.605   1.679  0.2486  0.0155 -0.3518
18638TIP3    H177405   0.643   2.596   1.721  1.0644 -1.7821  0.9884
18638TIP3    H277406   0.717   2.567   1.592 -0.3635 -0.0125 -0.2595
18639TIP3   OH277407   0.516   0.238  16.293  0.5741  0.0709  0.3551
18639TIP3    H177408   0.424   0.213  16.305  0.0797  2.1314  0.9229
18639TIP3    H277409   0.513   0.317  16.240  2.0421  0.1242  0.3434
18640TIP3   OH277410   6.481   2.968   3.039 -0.2500  0.0095  0.1649
18640TIP3    H177411   6.538   3.044   3.049  1.5734 -0.6995 -3.7928
18640TIP3    H277412   6.536   2.894   3.063 -0.7730 -0.3808  0.1642
18641TIP3   OH277413   3.125   4.934   4.696 -0.3843  0.1047 -0.7528
18641TIP3    H177414   3.151   5.016   4.740  1.0173  0.2397 -1.8116
18641TIP3    H277415   3.085   4.963   4.614 -0.1233 -0.2521 -1.0086
18642TIP3   OH277416   4.612   6.341  16.988  0.1000 -0.6508  0.6432
18642TIP3    H177417   4.608   6.387  16.904 -0.3686  0.9203  1.5083
18642TIP3    H277418   4.639   6.408  17.051 -2.9842 -0.9405  2.3657
18643TIP3   OH277419   2.004   4.020   2.343 -0.5772  0.5223  0.1666
18643TIP3    H177420   2.074   4.008   2.279 -0.0362  1.8208  0.4939
18643TIP3    H277421   2.046   4.064   2.417 -1.9598  2.5068 -0.1672
18644TIP3   OH277422   1.008   0.577  14.527  0.6851 -0.3746  0.1747
18644TIP3    H177423   1.068   0.511  14.562 -1.2180 -1.7685  0.8819
18644TIP3    H277424   0.933   0.575  14.586 -0.8409  0.1007 -1.6987
18645TIP3   OH277425   3.166   4.526  12.934  0.4978 -0.5503  0.9208
18645TIP3    H177426   3.229   4.454  12.929  1.1803  0.1125 -0.7368
18645TIP3    H277427   3.080   4.483  12.930  0.8549 -1.4022  2.2327
18646TIP3   OH277428   0.944   5.709  12.549  0.2238 -0.0968 -0.2868
18646TIP3    H177429   0.917   5.771  12.617  2.2343  0.6177 -0.1087
18646TIP3    H277430   0.893   5.735  12.472 -1.2548 -0.2079  0.6333
18647TIP3   OH277431   5.691   3.234   1.707  0.4079 -0.0996 -0.1435
18647TIP3    H177432   5.722   3.272   1.790 -1.0877 -0.7423  0.7157
18647TIP3    H277433   5.613   3.285   1.685  0.3705 -0.4277 -0.7796
18648TIP3   OH277434   1.094   0.490   0.852 -0.3996  0.3565  0.3376
18648TIP3    H177435   1.049   0.574   0.863 -0.0119  0.4527  1.1966
18648TIP3    H277436   1.159   0.506   0.784 -0.6310  0.6323  0.1824
18649TIP3   OH277437   1.912   3.102  16.113 -0.7362 -0.0405 -0.4923
18649TIP3    H177438   1.850   3.068  16.177  0.4249 -1.3979 -0.0770
18649TIP3    H277439   1.877   3.074  16.028 -0.1220 -1.8010 -0.1927
18650TIP3   OH277440   1.806   4.435   0.693 -0.1266 -0.3429 -0.4223
18650TIP3    H177441   1.758   4.384   0.628  1.2463  0.6805 -2.2811
18650TIP3    H277442   1.771   4.406   0.777 -2.2896 -1.3472 -1.6250
18651TIP3   OH277443   6.119   0.492   3.203 -0.2995 -0.3113  0.5065
18651TIP3    H177444   6.209   0.518   3.224 -0.1919 -1.4175  1.4482
18651TIP3    H277445   6.101   0.534   3.119  2.5464 -3.4285 -1.8171
18652TIP3   OH277446   4.099   1.025  12.497  0.4405  0.2567  0.5143
18652TIP3    H177447   4.141   1.043  12.413  1.0290 -0.9330  0.5420
18652TIP3    H277448   4.116   1.103  12.550  4.7799 -1.1448  1.3694
18653TIP3   OH277449   1.469   3.295   4.377 -0.0220 -0.2730 -0.3821
18653TIP3    H177450   1.411   3.363   4.411  1.8786  1.2369 -0.0980
18653TIP3    H277451   1.410   3.225   4.348 -1.9511  1.0928  0.1952
18654TIP3   OH277452   5.813   1.019  12.028  0.3337 -0.0218  0.0740
18654TIP3    H177453   5.845   1.102  12.063  2.5682 -0.6427 -0.3465
18654TIP3    H277454   5.840   0.954  12.094  1.3262 -0.7484 -1.0179
18655TIP3   OH277455   6.172   3.153   6.066  0.5064 -0.5477  0.2891
18655TIP3    H177456   6.233   3.223   6.088 -0.5439  0.8791 -1.2850
18655TIP3    H277457   6.090   3.179   6.108 -0.4279  0.1953 -1.9501
18656TIP3   OH277458   3.943   2.986  13.078  0.1434 -0.9069 -0.1469
18656TIP3    H177459   3.983   2.973  12.992 -2.2840  0.0324 -1.4784
18656TIP3    H277460   3.955   2.903  13.124  4.3863 -0.3761 -0.0901
18657TIP3   OH277461   0.051   6.331  15.305 -0.1984  0.5017  0.3926
18657TIP3    H177462  -0.029   6.321  15.356 -0.7913 -1.9673 -0.9334
18657TIP3    H277463   0.020   6.357  15.218  0.3452 -1.3574 -0.3741
18658TIP3   OH277464   1.591   2.809   1.483  0.1889  0.1703 -0.1085
18658TIP3    H177465   1.626   2.843   1.401  0.2794 -0.3586 -0.2884
18658TIP3    H277466   1.654   2.743   1.511  0.0240  0.1641  0.2538
18659TIP3   OH277467   0.612   0.679  14.858 -0.5510  0.5014 -0.2383
18659TIP3    H177468   0.589   0.741  14.789  0.2414  1.5459  0.4203
18659TIP3    H277469   0.544   0.691  14.925 -0.7432  0.2148 -0.3803
18660TIP3   OH277470   0.969   2.813   0.382  0.6569  0.2500  0.4221
18660TIP3    H177471   0.879   2.790   0.408 -0.4575  0.6223 -2.8475
18660TIP3    H277472   1.021   2.736   0.404 -0.7606 -0.6020  0.8762
18661TIP3   OH277473   1.245   2.777   5.528 -0.4581 -0.4890  0.4700
18661TIP3    H177474   1.274   2.823   5.449  1.4876 -1.3386  0.6467
18661TIP3    H277475   1.285   2.690   5.521 -1.1929 -0.9495  1.8493
18662TIP3   OH277476   6.737   2.706   4.905  0.3145 -0.0566 -0.3555
18662TIP3    H177477   6.686   2.647   4.849 -1.1781  0.3517  0.5651
18662TIP3    H277478   6.701   2.793   4.888 -1.1626 -0.0930  2.3007
18663TIP3   OH277479   0.910   4.484  12.928  0.3430 -0.4678  0.3089
18663TIP3    H177480   0.815   4.482  12.939  0.3232  1.0324  0.4890
18663TIP3    H277481   0.933   4.393  12.908 -1.1825 -0.7524 -0.2502
18664TIP3   OH277482   0.878   6.635  16.602 -0.0919 -0.4424 -0.8560
18664TIP3    H177483   0.927   6.611  16.681 -1.5351  0.0434  0.2186
18664TIP3    H277484   0.937   6.693  16.554  1.4091 -1.9731 -0.9190
18665TIP3   OH277485   6.595   3.398  14.989  0.1173  0.1133  0.7088
18665TIP3    H177486   6.509   3.437  14.979  0.9986  1.4062 -2.7886
18665TIP3    H277487   6.629   3.432  15.072 -1.8319  1.3431  1.0140
18666TIP3   OH277488   2.435   5.318  11.153  0.1578  0.1330 -0.0828
18666TIP3    H177489   2.381   5.312  11.232  2.2931  1.0213  1.5072
18666TIP3    H277490   2.508   5.257  11.169 -0.4918 -1.3017 -2.3305
18667TIP3   OH277491   1.315   3.255   1.174 -0.0454  0.2190  0.1561
18667TIP3    H177492   1.247   3.240   1.108  0.5102  0.7453 -0.5520
18667TIP3    H277493   1.310   3.179   1.232 -0.3233 -0.4042 -0.6787
18668TIP3   OH277494   2.829   3.641   3.536 -0.4852  0.2132 -0.3230
18668TIP3    H177495   2.815   3.558   3.582 -2.2036  0.3291 -0.6078
18668TIP3    H277496   2.745   3.660   3.494  0.3800  1.2759 -1.6203
18669TIP3   OH277497   3.229   4.337   4.640  0.1222  0.6858  0.4054
18669TIP3    H177498   3.174   4.407   4.673  0.9920  1.5961 -0.0569
18669TIP3    H277499   3.253   4.287   4.718 -0.3544  1.0010  0.7568
18670TIP3   OH277500   2.448   5.575  14.307 -0.3839 -0.2833  0.6282
18670TIP3    H177501   2.485   5.493  14.340 -0.9683 -1.0566 -0.5872
18670TIP3    H277502   2.522   5.621  14.268  0.1373  0.2312  2.2078
18671TIP3   OH277503   3.869   0.003   2.389 -0.3522 -0.2997  0.2218
18671TIP3    H177504   3.839   0.063   2.321 -0.9722 -0.5435  0.2829
18671TIP3    H277505   3.935   0.053   2.438 -0.6948  0.2470  0.1258
18672TIP3   OH277506   5.928   6.794  14.458  0.5214 -0.0269 -0.2555
18672TIP3    H177507   5.965   6.713  14.493  0.7000  0.3693  0.4683
18672TIP3    H277508   5.987   6.818  14.386 -0.8210 -1.7828 -2.0132
18673TIP3   OH277509   5.464   1.771  13.719  0.2473 -0.6117 -0.0597
18673TIP3    H177510   5.467   1.676  13.729  0.4393 -0.5910  0.0911
18673TIP3    H277511   5.394   1.799  13.779 -0.2346 -0.7177 -0.5726
18674TIP3   OH277512   4.697   4.790   2.880  0.3525 -0.5865 -0.8068
18674TIP3    H177513   4.630   4.755   2.821 -1.0020  2.2990 -1.0639
18674TIP3    H277514   4.744   4.713   2.912 -4.5652 -2.9550  1.1663
18675TIP3   OH277515   2.933   4.715  14.408 -0.6701 -0.4237 -0.0373
18675TIP3    H177516   2.975   4.801  14.405  0.5259 -1.0370 -1.7157
18675TIP3    H277517   2.851   4.726  14.360 -0.6168 -0.1806 -0.0688
18676TIP3   OH277518   0.859   4.792   4.983 -0.8641  0.0362 -0.0699
18676TIP3    H177519   0.789   4.726   4.983 -0.2748 -0.6038 -0.3286
18676TIP3    H277520   0.927   4.754   5.038  0.2638 -0.4300 -1.7327
18677TIP3   OH277521   4.885   2.104   4.854 -0.0472  0.1527  0.3139
18677TIP3    H177522   4.795   2.091   4.884  0.1345  0.7895  1.1482
18677TIP3    H277523   4.899   2.198   4.863  0.6858  0.0584  0.1405
18678TIP3   OH277524   2.840   0.064   1.977 -0.2625 -0.5905  0.3907
18678TIP3    H177525   2.891   0.059   1.896 -0.3629 -0.8447  0.3418
18678TIP3    H277526   2.895   0.115   2.037 -0.5593  0.3436 -0.1166
18679TIP3   OH277527   0.496   3.092  15.715 -0.4599  0.0575  0.0946
18679TIP3    H177528   0.586   3.110  15.688 -0.0562 -0.0113  1.3598
18679TIP3    H277529   0.442   3.145  15.655  0.3985 -0.0861 -0.8211
18680TIP3   OH277530   4.528   0.501  12.814  0.0061  0.5924 -0.1594
18680TIP3    H177531   4.438   0.494  12.785  0.4435 -0.2024 -1.3645
18680TIP3    H277532   4.529   0.577  12.872 -1.4550  0.5167 -0.0278
18681TIP3   OH277533   1.348   0.844  17.171 -0.1618 -0.0860  0.2960
18681TIP3    H177534   1.418   0.827  17.108  0.0105 -0.5051  0.6022
18681TIP3    H277535   1.304   0.760  17.181 -0.7778  0.2013  0.0206
18682TIP3   OH277536   5.227   1.416  12.232  0.1599 -0.1551 -0.1612
18682TIP3    H177537   5.301   1.410  12.293 -0.4813  0.2312  0.6537
18682TIP3    H277538   5.248   1.351  12.164  1.1955 -0.1264  0.1154
18683TIP3   OH277539   0.380   6.778  13.799 -0.0446  0.7157  0.3068
18683TIP3    H177540   0.461   6.759  13.752  0.9788 -0.9089  2.6742
18683TIP3    H277541   0.385   6.872  13.818  0.2807  1.0565 -1.3356
18684TIP3   OH277542   5.047   6.737  14.275 -0.1963 -0.0900  0.7802
18684TIP3    H177543   5.027   6.715  14.184  0.8080  0.6759  0.3546
18684TIP3    H277544   4.962   6.744  14.318 -0.5959 -3.7025  0.7192
18685TIP3   OH277545   6.551   5.144   3.771 -0.4973 -0.6013  0.3079
18685TIP3    H177546   6.602   5.189   3.704  0.1641  0.1506  1.2873
18685TIP3    H277547   6.498   5.214   3.811 -0.9847 -1.0609  0.4700
18686TIP3   OH277548   5.965   0.679   0.535  0.1337  0.2602 -0.4371
18686TIP3    H177549   6.052   0.688   0.575  1.3212 -1.7755 -2.4336
18686TIP3    H277550   5.980   0.693   0.441 -1.9864  1.3843 -0.6494
18687TIP3   OH277551   4.569   2.041  15.867  0.3425 -0.4151 -0.2243
18687TIP3    H177552   4.527   2.079  15.790  0.4422  1.9237  0.8431
18687TIP3    H277553   4.515   2.069  15.941 -0.3242 -3.4508  0.5412
18688TIP3   OH277554   1.841   0.251   5.018  0.3517 -0.4824  0.2955
18688TIP3    H177555   1.765   0.244   5.076  0.3360 -0.8063  0.2358
18688TIP3    H277556   1.912   0.208   5.065  0.9237  1.2789  1.0715
18689TIP3   OH277557   0.385   4.701  16.959  0.0662  0.0508 -0.0023
18689TIP3    H177558   0.327   4.625  16.961 -0.6456  0.6118  2.2261
18689TIP3    H277559   0.471   4.666  16.938 -0.6704 -1.0613 -1.2587
18690TIP3   OH277560   0.927   1.693  13.390  0.6447  0.4090 -0.3448
18690TIP3    H177561   0.889   1.610  13.418  1.1056 -0.3991 -2.0397
18690TIP3    H277562   0.860   1.733  13.336 -0.1492  1.8456  1.6709
18691TIP3   OH277563   5.833   3.666  14.870  0.0835  0.4163  0.4876
18691TIP3    H177564   5.829   3.757  14.899  1.1961  0.3096  1.0019
18691TIP3    H277565   5.805   3.615  14.946  0.2357  0.2816  0.4536
18692TIP3   OH277566   2.435   4.388   1.013 -0.3433  0.0657  0.1268
18692TIP3    H177567   2.439   4.451   0.941  0.9032  1.6836  1.5579
18692TIP3    H277568   2.343   4.363   1.018 -0.4595  0.0022 -1.9566
18693TIP3   OH277569   4.698   5.494   0.409  0.0783 -0.8159  0.3579
18693TIP3    H177570   4.708   5.547   0.330 -0.7158 -0.1701  0.6715
18693TIP3    H277571   4.751   5.416   0.394 -1.4224 -1.5067 -1.5295
18694TIP3   OH277572   2.244   2.844   2.339  0.5092 -0.1158  0.3075
18694TIP3    H177573   2.244   2.787   2.262 -0.7281  0.1240  0.1353
18694TIP3    H277574   2.241   2.783   2.413  3.1563 -0.4066  0.2358
18695TIP3   OH277575   6.018   0.134   1.176 -0.6874 -0.0718  0.6201
18695TIP3    H177576   5.984   0.049   1.205 -1.0103  0.7508  2.6634
18695TIP3    H277577   5.999   0.135   1.082  0.8508 -2.9785  0.2201
18696TIP3   OH277578   5.392   5.544   4.954 -0.0102 -0.1339  0.7266
18696TIP3    H177579   5.340   5.564   4.876  0.0160 -1.1048  0.4516
18696TIP3    H277580   5.357   5.460   4.985  0.9554 -0.4742  0.9146
18697TIP3   OH277581   6.011   1.837   1.534  0.2058 -0.3305  0.1052
18697TIP3    H177582   6.056   1.807   1.613  0.9584 -1.2480 -0.6668
18697TIP3    H277583   6.019   1.932   1.537 -0.5735 -0.2955  1.6048
18698TIP3   OH277584   3.068   2.843   1.875  0.5177 -0.0436 -0.6247
18698TIP3    H177585   3.070   2.938   1.870 -0.8798  0.0250 -0.0588
18698TIP3    H277586   2.977   2.821   1.893  0.5742 -1.5651 -2.0023
18699TIP3   OH277587   1.189   3.414   3.607 -0.2293 -0.6376 -0.1456
18699TIP3    H177588   1.260   3.372   3.654  1.8378  2.5340 -0.3037
18699TIP3    H277589   1.160   3.485   3.664 -2.1424 -0.8399 -0.8078
18700TIP3   OH277590   5.627   3.811  11.258  0.8357  0.6591  0.4387
18700TIP3    H177591   5.569   3.865  11.204 -0.5265  2.7915  3.8781
18700TIP3    H277592   5.691   3.873  11.295  1.2522 -0.5917  1.8968
18701TIP3   OH277593   0.590   3.312  13.145  0.3802 -0.5355  0.0923
18701TIP3    H177594   0.594   3.304  13.241  0.5139 -0.7258  0.0714
18701TIP3    H277595   0.677   3.286  13.116  1.1314  1.9001  0.0806
18702TIP3   OH277596   4.749   2.891   3.826 -0.0624 -0.1725  0.0054
18702TIP3    H177597   4.755   2.796   3.816 -0.0341 -0.2720  0.8918
18702TIP3    H277598   4.803   2.926   3.755  0.2952 -0.8274 -0.0520
18703TIP3   OH277599   6.354   0.866  12.618 -0.0153  0.2419 -0.3315
18703TIP3    H177600   6.358   0.958  12.593 -0.1972  0.0309 -1.1616
18703TIP3    H277601   6.445   0.838  12.625  0.0390  0.4748 -0.1184
18704TIP3   OH277602   5.767   3.549  13.283 -0.0119 -0.4406  0.0643
18704TIP3    H177603   5.822   3.627  13.286  0.8030 -1.0157  0.1851
18704TIP3    H277604   5.827   3.477  13.302 -0.5732 -1.1946 -0.9981
18705TIP3   OH277605   2.758   1.084   5.663 -0.0705 -0.7156 -0.2601
18705TIP3    H177606   2.669   1.084   5.627  0.6996 -0.6103 -2.2434
18705TIP3    H277607   2.806   1.145   5.608  1.4416 -1.3827  0.2838
18706TIP3   OH277608   3.645   1.158  16.244 -0.0848 -0.0494 -0.0790
18706TIP3    H177609   3.661   1.239  16.197 -0.6078  0.9864  1.4694
18706TIP3    H277610   3.665   1.088  16.181 -0.1051  1.2759 -1.5725
18707TIP3   OH277611   0.272   3.935   2.852  0.0362  0.1576 -0.0527
18707TIP3    H177612   0.295   4.028   2.844 -0.9849  0.5779  1.7704
18707TIP3    H277613   0.296   3.898   2.767  0.3247  2.1142 -0.8613
18708TIP3   OH277614   3.435   2.817   2.474  0.2569 -0.1834 -0.4690
18708TIP3    H177615   3.425   2.766   2.394 -0.1256 -0.9655  0.0724
18708TIP3    H277616   3.496   2.766   2.527  1.1519  0.7448 -0.5993
18709TIP3   OH277617   0.968   5.139  13.503 -0.4427  0.3243 -0.1565
18709TIP3    H177618   0.892   5.093  13.539  0.1366 -0.9223 -0.5039
18709TIP3    H277619   0.965   5.121  13.409  1.8443 -2.1066  0.1848
18710TIP3   OH277620   0.636   0.082  16.906  0.0699 -0.3210 -0.2608
18710TIP3    H177621   0.676   0.154  16.955  1.2879  0.1833 -1.9439
18710TIP3    H277622   0.594   0.028  16.973  0.1074  1.3405  1.1413
18711TIP3   OH277623   1.223   6.183  16.466  0.4024 -1.0517  0.4410
18711TIP3    H177624   1.282   6.111  16.489 -0.2613 -1.2156  1.6491
18711TIP3    H277625   1.278   6.262  16.470  0.7052 -1.2830  0.8523
18712TIP3   OH277626   5.350   0.068  13.395 -0.2695  0.1607 -0.0892
18712TIP3    H177627   5.303   0.079  13.478  1.5194  1.2063  0.8032
18712TIP3    H277628   5.313   0.136  13.338  0.3912  1.1901  0.7093
18713TIP3   OH277629   1.662   0.366  12.490 -0.3593  0.1438  0.0124
18713TIP3    H177630   1.589   0.353  12.550 -1.0360 -0.6405 -0.9608
18713TIP3    H277631   1.731   0.405  12.543 -1.5976  1.1702  0.8701
18714TIP3   OH277632   2.652   4.667   4.623  0.2372 -0.1041  0.3116
18714TIP3    H177633   2.668   4.629   4.709 -2.2894 -1.3335  0.2759
18714TIP3    H277634   2.624   4.593   4.569  0.1304  0.9481 -1.1026
18715TIP3   OH277635   6.512   5.231   5.244  0.0660 -0.6080  0.2944
18715TIP3    H177636   6.537   5.254   5.154  1.7717 -2.3097  0.2973
18715TIP3    H277637   6.417   5.242   5.246  0.2422  1.4418 -1.1235
18716TIP3   OH277638   4.986   4.188   5.374 -0.1112  0.1343 -0.7954
18716TIP3    H177639   5.081   4.186   5.363  0.2412  1.4703  1.5278
18716TIP3    H277640   4.955   4.107   5.334  2.2474 -1.4581  0.4590
18717TIP3   OH277641   5.172   3.842   2.550 -0.1641  0.9360 -0.6256
18717TIP3    H177642   5.077   3.849   2.557 -0.4393 -0.9316 -2.2632
18717TIP3    H277643   5.188   3.750   2.527  2.3093 -0.0166  4.1832
18718TIP3   OH277644   1.062   3.036   5.871  0.2298  0.7211  0.3518
18718TIP3    H177645   1.026   3.090   5.942 -1.0209 -0.5718  0.7122
18718TIP3    H277646   1.069   3.096   5.797  0.6430  1.8530  1.2764
18719TIP3   OH277647   3.584   3.702  12.266 -0.8044 -0.3991 -0.8172
18719TIP3    H177648   3.622   3.746  12.342 -2.6587 -0.7121  0.3150
18719TIP3    H277649   3.659   3.668  12.218  0.4582  0.8895  0.1964
18720TIP3   OH277650   0.751   6.637  15.607  0.6268  0.1870  0.1393
18720TIP3    H177651   0.744   6.640  15.703  0.4371 -0.3830  0.1477
18720TIP3    H277652   0.716   6.721  15.577  1.0104  0.5091  0.5885
18721TIP3   OH277653   5.378   4.629  15.054  0.3686  0.1562  0.1037
18721TIP3    H177654   5.344   4.546  15.022 -0.2188  0.1184  0.7994
18721TIP3    H277655   5.301   4.685  15.063  0.7084  0.6369  0.0382
18722TIP3   OH277656   3.048   1.925  15.180  0.0581 -0.2405  0.3507
18722TIP3    H177657   3.096   1.945  15.100 -0.8796  0.1312 -0.1288
18722TIP3    H277658   3.029   1.831  15.174  3.4355 -1.1113  2.0464
18723TIP3   OH277659   2.470   4.834  11.306  0.3393 -0.1432  0.9648
18723TIP3    H177660   2.392   4.805  11.354 -2.5539  2.7677 -1.7129
18723TIP3    H277661   2.497   4.915  11.351  0.5788 -0.0482  0.6500
18724TIP3   OH277662   5.159   2.422  13.627 -0.6625  0.1871  0.0390
18724TIP3    H177663   5.069   2.403  13.653 -1.1597 -0.4860 -2.0924
18724TIP3    H277664   5.211   2.402  13.705 -2.3247  0.4161  1.2339
18725TIP3   OH277665   3.951   1.506   6.434  0.2414  1.0376  0.1222
18725TIP3    H177666   4.034   1.492   6.390  0.1391 -0.3465  0.3315
18725TIP3    H277667   3.905   1.570   6.380  1.2363  1.4356 -0.2628
18726TIP3   OH277668   3.865   2.271   1.882  0.1895  0.1486 -0.3403
18726TIP3    H177669   3.897   2.345   1.934  0.2792  0.1585 -0.4088
18726TIP3    H277670   3.781   2.301   1.848  1.1836  1.0558 -2.1288
18727TIP3   OH277671   4.004   0.331   2.036  0.5795  0.5130  0.3453
18727TIP3    H177672   3.954   0.249   2.045  1.4107  0.1138  1.4542
18727TIP3    H277673   3.972   0.369   1.954 -0.9263 -0.1563  0.5938
18728TIP3   OH277674   6.209   6.160   6.107  0.1662 -0.3720  0.0920
18728TIP3    H177675   6.164   6.221   6.166 -0.0593  1.8881 -2.3274
18728TIP3    H277676   6.284   6.209   6.075  0.8566 -1.9322 -0.7138
18729TIP3   OH277677   4.301   2.795   4.389 -0.4056  0.5251 -0.4067
18729TIP3    H177678   4.287   2.702   4.368  2.8754 -0.2093  0.3243
18729TIP3    H277679   4.321   2.835   4.304 -0.3581  0.2723 -0.5176
18730TIP3   OH277680   3.015   2.712  11.954  0.2531 -0.2845 -0.0558
18730TIP3    H177681   2.925   2.743  11.964  0.3791 -0.3490  1.3632
18730TIP3    H277682   3.007   2.625  11.915 -0.1900  0.6429 -2.1044
18731TIP3   OH277683   2.682   6.339   2.423  0.7928 -0.8090 -0.7820
18731TIP3    H177684   2.711   6.342   2.332 -1.8875 -0.8979 -1.6846
18731TIP3    H277685   2.632   6.257   2.430  0.7559 -0.6869  0.7245
18732TIP3   OH277686   2.826   0.275   5.140 -0.3143 -0.9127 -0.3391
18732TIP3    H177687   2.764   0.202   5.145 -1.4404  0.0284 -0.4521
18732TIP3    H277688   2.812   0.312   5.053  1.3674 -1.5204 -0.8932
18733TIP3   OH277689   3.949   5.474   0.095 -0.2146 -0.1766 -0.1823
18733TIP3    H177690   4.034   5.481   0.051  0.7919  1.4852  1.9767
18733TIP3    H277691   3.946   5.384   0.126  0.3109 -0.5414 -1.1551
18734TIP3   OH277692   1.121   1.377  13.710 -0.3529  0.1947  0.8778
18734TIP3    H177693   1.120   1.427  13.628  0.7985 -1.2611 -0.0500
18734TIP3    H277694   1.151   1.440  13.776  0.5551  0.8750 -0.1674
18735TIP3   OH277695   6.026   1.378  11.173 -0.2708  0.2241  0.5206
18735TIP3    H177696   6.120   1.386  11.156 -0.4731 -0.4584 -0.9451
18735TIP3    H277697   6.004   1.289  11.146 -0.9541 -0.3351  2.7882
18736TIP3   OH277698   2.026   1.671   0.419 -0.3395  0.3647 -0.5061
18736TIP3    H177699   1.933   1.672   0.395 -0.2959 -0.4959 -0.7206
18736TIP3    H277700   2.032   1.606   0.489 -0.2389  1.8880  0.9308
18737TIP3   OH277701   1.686   6.723  13.290  0.2902 -0.3503  0.2208
18737TIP3    H177702   1.682   6.711  13.195  0.8426 -0.4232  0.2061
18737TIP3    H277703   1.692   6.634  13.325  1.6107 -0.2595  0.2474
18738TIP3   OH277704   6.193   3.268   5.209  0.3690  0.0572  0.4192
18738TIP3    H177705   6.113   3.217   5.217 -0.2333  0.9152 -0.2105
18738TIP3    H277706   6.251   3.232   5.277  0.3021 -2.0957 -0.6247
18739TIP3   OH277707   3.241   0.871  12.907 -0.3070  0.0156  0.2691
18739TIP3    H177708   3.326   0.868  12.950 -0.1972 -0.4945  0.0200
18739TIP3    H277709   3.183   0.913  12.971 -0.2506 -1.1286  1.0943
18740TIP3   OH277710   5.091   3.352  11.871  0.1795  0.2327 -0.2344
18740TIP3    H177711   5.138   3.301  11.938 -1.3075 -0.5174  0.2560
18740TIP3    H277712   5.032   3.289  11.831  0.8536  0.7543 -2.0774
18741TIP3   OH277713   3.960   0.613  12.839  0.3743 -0.0378 -0.6405
18741TIP3    H177714   3.929   0.523  12.850 -0.7555  0.3289 -0.7148
18741TIP3    H277715   3.897   0.652  12.778 -1.0111  1.7166  1.8493
18742TIP3   OH277716   0.201   0.992   0.855 -0.5977 -0.2706  0.0925
18742TIP3    H177717   0.175   1.076   0.817  2.1401  0.6925  0.2042
18742TIP3    H277718   0.244   1.016   0.937  2.2434 -1.5802 -0.9564
18743TIP3   OH277719   0.606   4.414   0.054  0.4114 -0.1774  0.6114
18743TIP3    H177720   0.559   4.370  -0.016  2.4268  0.5176 -1.2277
18743TIP3    H277721   0.603   4.507   0.031  0.6335  0.1182  1.7372
18744TIP3   OH277722   4.076   2.489   0.607 -0.6405 -0.3919  0.1926
18744TIP3    H177723   4.129   2.471   0.685 -0.7388 -1.3792  0.0350
18744TIP3    H277724   3.996   2.439   0.620 -1.0858  0.2338 -0.0843
18745TIP3   OH277725   5.326   3.894  13.116  0.9162 -0.4089 -1.1006
18745TIP3    H177726   5.249   3.906  13.061 -1.2045 -0.0536  1.8615
18745TIP3    H277727   5.317   3.806  13.151  0.8596  0.2993  0.7175
18746TIP3   OH277728   0.231   0.449  16.589 -0.0223 -0.4923 -0.1530
18746TIP3    H177729   0.142   0.428  16.617  0.1281  0.5395  1.1260
18746TIP3    H277730   0.284   0.374  16.619 -0.6668 -1.7638 -2.1427
18747TIP3   OH277731   0.657   4.428   1.605 -0.2927  0.6474  0.2954
18747TIP3    H177732   0.596   4.499   1.624 -2.1303 -1.1021  1.0939
18747TIP3    H277733   0.692   4.402   1.690 -1.1088 -0.6999  0.2216
18748TIP3   OH277734   4.995   1.010  14.580 -0.5567  0.0481  0.6177
18748TIP3    H177735   4.941   0.952  14.525 -0.4333 -0.6196  1.1980
18748TIP3    H277736   5.082   1.004  14.541 -0.2503 -1.2002  1.4749
18749TIP3   OH277737   2.413   3.121   3.034  0.0287 -0.8989 -0.2048
18749TIP3    H177738   2.457   3.156   2.957  2.0709 -2.8137  0.0512
18749TIP3    H277739   2.327   3.164   3.034  1.9882  3.2576 -0.4834
18750TIP3   OH277740   0.437   3.992   0.993  0.1180  0.0354 -0.3980
18750TIP3    H177741   0.524   4.028   0.979 -0.2543  0.4450 -1.7831
18750TIP3    H277742   0.418   4.008   1.085  2.0597 -1.3015  0.2542
18751TIP3   OH277743   0.364   3.827  15.546  0.3727  0.0502 -0.2577
18751TIP3    H177744   0.414   3.813  15.467 -0.2748  0.3680 -0.7324
18751TIP3    H277745   0.335   3.919  15.540  0.9849  0.3110  0.7218
18752TIP3   OH277746   5.278   3.434   1.449  0.0823  0.4532 -0.0186
18752TIP3    H177747   5.269   3.454   1.356  1.0978 -0.2440 -0.2707
18752TIP3    H277748   5.363   3.390   1.457  0.1000  0.6805  1.2638
18753TIP3   OH277749   0.768   4.226  13.684 -0.5352 -0.5027 -0.0778
18753TIP3    H177750   0.736   4.147  13.640 -2.2173  0.7152 -1.1029
18753TIP3    H277751   0.728   4.222  13.771 -1.2670 -0.3721 -0.4057
18754TIP3   OH277752   0.313   6.184   0.167  0.4166 -0.4693  1.1395
18754TIP3    H177753   0.246   6.234   0.212 -1.1495 -1.3235 -0.1624
18754TIP3    H277754   0.347   6.243   0.099 -0.0725 -0.5242  0.8453
18755TIP3   OH277755   0.215   0.996   2.576 -1.2093  0.1655 -0.2603
18755TIP3    H177756   0.250   0.924   2.629 -0.6998  0.4131 -0.2553
18755TIP3    H277757   0.156   1.042   2.635  0.6299  1.4402  0.6489
18756TIP3   OH277758   5.062   2.274   4.546  0.1500 -0.4234  0.3965
18756TIP3    H177759   5.076   2.295   4.638  0.1595  1.7156 -0.0710
18756TIP3    H277760   5.136   2.217   4.523  0.7840 -0.0109  1.4090
18757TIP3   OH277761   2.488   2.439  16.291  0.3408 -0.1134  0.5402
18757TIP3    H177762   2.515   2.347  16.282 -0.1706 -0.2437  0.3185
18757TIP3    H277763   2.392   2.436  16.286  0.3691  0.5392 -0.3330
18758TIP3   OH277764   4.150   4.658   0.308  0.4577 -0.2637  0.3430
18758TIP3    H177765   4.243   4.678   0.301  0.5847 -1.0524 -0.1635
18758TIP3    H277766   4.110   4.705   0.234  0.5724 -0.6701  0.0198
18759TIP3   OH277767   1.656   3.948  16.731  0.0435  0.2048  0.0512
18759TIP3    H177768   1.723   3.982  16.789  0.9370 -2.3629  0.5880
18759TIP3    H277769   1.574   3.988  16.763  1.0151  1.7760  0.6381
18760TIP3   OH277770   0.719   0.431   5.824 -0.5102 -0.0251  0.2440
18760TIP3    H177771   0.804   0.386   5.823 -0.6473 -0.3347  1.5272
18760TIP3    H277772   0.690   0.429   5.733  0.3942 -0.8000 -0.0383
18761TIP3   OH277773   0.839   5.759   6.362 -0.0911  0.2892  0.2304
18761TIP3    H177774   0.849   5.736   6.454  0.5783 -0.4202 -0.0160
18761TIP3    H277775   0.832   5.854   6.361  0.3600  0.3251  0.9665
18762TIP3   OH277776   5.250   4.468  13.407  0.4106 -0.1356 -0.0275
18762TIP3    H177777   5.188   4.533  13.440  1.9171  0.7305  1.1553
18762TIP3    H277778   5.309   4.519  13.351  0.4309 -0.8430 -0.6464
18763TIP3   OH277779   2.537   5.177  16.611 -0.8160  0.1812 -0.6220
18763TIP3    H177780   2.599   5.110  16.583 -2.5140 -0.4934 -2.9584
18763TIP3    H277781   2.591   5.245  16.651  1.2696 -1.0262 -1.2974
18764TIP3   OH277782   0.728   4.286  14.563 -0.4233  0.0195  0.4633
18764TIP3    H177783   0.660   4.301  14.629 -0.7523  0.6386 -0.0109
18764TIP3    H277784   0.809   4.316  14.604 -0.2508 -1.7350  1.4412
18765TIP3   OH277785   0.752   6.269   0.587  0.3668 -0.4055 -0.1304
18765TIP3    H177786   0.681   6.325   0.557 -0.6607 -1.4178  0.3953
18765TIP3    H277787   0.784   6.311   0.667 -0.0841 -0.3181  0.0002
18766TIP3   OH277788   5.047   0.495  12.767 -0.1431  0.4115 -0.2311
18766TIP3    H177789   5.053   0.493  12.863 -0.8097 -2.3059 -0.2199
18766TIP3    H277790   5.129   0.458  12.737  0.7576  2.7730 -0.7822
18767TIP3   OH277791   4.293   4.748  13.715 -0.1854  0.4840  0.2381
18767TIP3    H177792   4.361   4.689  13.747 -0.4714  0.2926  0.4990
18767TIP3    H277793   4.280   4.722  13.623  1.0714  1.4415 -0.2148
18768TIP3   OH277794   3.297   6.643   2.836  0.3475 -1.0375 -0.0580
18768TIP3    H177795   3.249   6.598   2.767  1.2511 -1.6883 -0.2720
18768TIP3    H277796   3.249   6.624   2.916 -0.7325 -0.2378 -0.5148
18769TIP3   OH277797   3.657   6.750  10.722 -0.4173  1.0589  0.1296
18769TIP3    H177798   3.751   6.753  10.702 -0.2251 -1.1548  0.4727
18769TIP3    H277799   3.650   6.792  10.808  0.4881 -0.0416  0.7596
18770TIP3   OH277800   1.577   0.132   3.157 -0.0389  0.6490 -0.6520
18770TIP3    H177801   1.562   0.057   3.099 -1.4748  0.1833  0.2941
18770TIP3    H277802   1.490   0.155   3.189  0.7749  0.6640  1.6097
18771TIP3   OH277803   4.459   5.847  10.928 -0.4365 -0.4673 -0.2946
18771TIP3    H177804   4.433   5.930  10.890  0.3696  0.2146  0.6184
18771TIP3    H277805   4.459   5.863  11.022  0.8305 -1.1615 -0.1636
18772TIP3   OH277806   3.749   4.554  11.187 -0.2578  0.4783 -0.3995
18772TIP3    H177807   3.721   4.507  11.108 -0.5486  1.2265 -0.7456
18772TIP3    H277808   3.678   4.543  11.249  0.2213 -0.5964 -0.0389
18773TIP3   OH277809   1.885   4.134  10.795  0.4702  0.5680  0.0806
18773TIP3    H177810   1.979   4.128  10.811  0.5669  3.0984  0.6897
18773TIP3    H277811   1.871   4.087  10.713  2.1962 -0.1688  0.2010
18774TIP3   OH277812   1.893   2.688   4.326 -0.1367  0.1254  0.2493
18774TIP3    H177813   1.879   2.678   4.420 -1.8547  1.0940  0.1265
18774TIP3    H277814   1.825   2.750   4.299  0.4727  0.0090 -1.5937
18775TIP3   OH277815   5.291   3.905  15.151 -0.0811  0.6499 -0.6762
18775TIP3    H177816   5.285   3.984  15.098  0.5203 -0.0949 -1.8688
18775TIP3    H277817   5.202   3.872  15.156 -0.2539  1.1179 -0.5885
18776TIP3   OH277818   0.546   4.701  17.267  0.1173 -0.0420  0.6712
18776TIP3    H177819   0.476   4.751  17.225  0.1085 -1.4378 -1.0504
18776TIP3    H277820   0.504   4.654  17.338 -0.7601 -1.1123 -0.5484
18777TIP3   OH277821   3.393   3.215   6.812  0.1252  0.2330  0.5632
18777TIP3    H177822   3.392   3.311   6.812 -0.1113  0.2734  2.9194
18777TIP3    H277823   3.453   3.191   6.742  2.3431  2.1698  1.7375
18778TIP3   OH277824   5.497   6.639   2.181  0.2302  0.5670  0.1811
18778TIP3    H177825   5.525   6.645   2.272 -0.1635  2.1701  0.2057
18778TIP3    H277826   5.513   6.726   2.144 -0.7735  0.2980 -0.9424
18779TIP3   OH277827   1.683   4.995   2.587 -0.6117  0.9517 -0.5487
18779TIP3    H177828   1.619   4.945   2.637 -1.1623  1.1351 -1.0709
18779TIP3    H277829   1.692   5.078   2.635  0.9261  0.0526  0.7914
18780TIP3   OH277830   2.718   3.514  10.870  0.2354 -0.2447  0.6747
18780TIP3    H177831   2.693   3.496  10.779  0.2356  1.5882  0.2992
18780TIP3    H277832   2.643   3.486  10.922  0.2571 -1.3581  0.1349
18781TIP3   OH277833   1.404   1.565   0.195 -0.3628  0.1710 -0.0395
18781TIP3    H177834   1.493   1.530   0.196 -0.3206  0.2867  1.4001
18781TIP3    H277835   1.380   1.573   0.288 -0.8881  2.6382 -0.3606
18782TIP3   OH277836   1.841   5.390  11.744  0.7861 -0.4009  0.7206
18782TIP3    H177837   1.753   5.420  11.771  1.5020 -0.1315  2.8971
18782TIP3    H277838   1.824   5.330  11.672 -1.0266  1.4818 -0.5165
18783TIP3   OH277839   5.924   2.841  16.464  0.3661 -0.0976 -0.6994
18783TIP3    H177840   5.909   2.884  16.548 -1.9891  0.2959 -1.2782
18783TIP3    H277841   6.012   2.804  16.472  0.9680  1.5918  1.2019
18784TIP3   OH277842   0.750   1.686  12.285  0.2407 -0.2995 -0.5211
18784TIP3    H177843   0.736   1.634  12.205  0.8623 -0.8831 -0.2534
18784TIP3    H277844   0.844   1.704  12.286  0.1524  0.1728 -0.1982
18785TIP3   OH277845   1.384   4.988   6.528  0.1630  0.7237 -0.0366
18785TIP3    H177846   1.365   4.905   6.571  0.5924  1.3624  1.4205
18785TIP3    H277847   1.412   4.964   6.440  0.0895 -0.6526  0.3057
18786TIP3   OH277848   6.269   3.435  16.298  0.1328  0.3496 -0.1904
18786TIP3    H177849   6.318   3.356  16.276  2.3874  1.3947  0.8996
18786TIP3    H277850   6.261   3.482  16.216 -1.2820 -1.0305 -0.8606
18787TIP3   OH277851   5.352   5.877   2.859 -0.5132 -0.0631 -0.3212
18787TIP3    H177852   5.279   5.847   2.914  1.3175 -2.1649  1.0506
18787TIP3    H277853   5.390   5.950   2.909 -0.6283 -0.0771 -0.2107
18788TIP3   OH277854   2.700   1.316   3.887 -0.2130  0.3390  0.3579
18788TIP3    H177855   2.732   1.226   3.896 -0.0464  0.4916  1.3319
18788TIP3    H277856   2.628   1.322   3.949 -1.6045  0.2588 -1.2106
18789TIP3   OH277857   1.373   5.509  14.303 -0.0721  0.2315  0.6049
18789TIP3    H177858   1.444   5.446  14.315  0.3004  0.5503  0.0868
18789TIP3    H277859   1.296   5.455  14.283  0.6539  0.0314 -1.7009
18790TIP3   OH277860   0.673   3.573  14.885  0.2749  0.7141 -0.2443
18790TIP3    H177861   0.631   3.654  14.855  0.9473  1.1328 -0.0562
18790TIP3    H277862   0.755   3.568  14.836  1.5243  1.5642  1.7267
18791TIP3   OH277863   4.008   5.913   3.030 -0.1296  0.4236  0.4305
18791TIP3    H177864   3.994   5.819   3.019 -0.1005  0.4002  0.5871
18791TIP3    H277865   4.099   5.920   3.060 -0.6461  0.3798  2.0690
18792TIP3   OH277866   5.308   1.146   0.475  0.3655  0.0820 -0.9521
18792TIP3    H177867   5.316   1.147   0.380  0.4286  0.5577 -0.9403
18792TIP3    H277868   5.300   1.238   0.500 -0.2547 -0.0757 -0.5497
18793TIP3   OH277869   5.180   5.321  13.164 -0.3791 -0.1146 -0.3447
18793TIP3    H177870   5.252   5.293  13.220 -1.8270 -0.9349  1.1464
18793TIP3    H277871   5.109   5.258  13.182 -2.2231  1.9604 -0.1058
18794TIP3   OH277872   3.732   3.350   5.356  0.5546  0.4767 -0.2079
18794TIP3    H177873   3.644   3.314   5.372  0.4620  0.5227 -0.5972
18794TIP3    H277874   3.749   3.406   5.431 -0.9625  2.7700 -1.5205
18795TIP3   OH277875   4.041   3.115  16.565  0.1795 -0.0397  0.4168
18795TIP3    H177876   4.077   3.186  16.618 -0.8135 -0.3376  1.4993
18795TIP3    H277877   4.056   3.143  16.475 -1.3322  2.1546  0.8081
18796TIP3   OH277878   4.848   2.544  13.966 -0.1967 -0.1497  0.3969
18796TIP3    H177879   4.917   2.480  13.950 -0.2734 -0.8707  2.7582
18796TIP3    H277880   4.830   2.537  14.060 -1.7921  1.7385  0.2630
18797TIP3   OH277881   3.078   4.525   5.552  0.4867 -0.2484  0.0239
18797TIP3    H177882   3.163   4.536   5.509  0.8222  1.0806  0.9839
18797TIP3    H277883   3.099   4.520   5.645 -0.5667  1.2713  0.3557
18798TIP3   OH277884   3.571   4.111  13.072 -0.0438 -0.2398 -0.0001
18798TIP3    H177885   3.654   4.117  13.118 -0.8469  0.5507  1.3491
18798TIP3    H277886   3.594   4.069  12.989  1.3012 -2.3184  1.3649
18799TIP3   OH277887   2.634   5.044  12.492 -0.4207  0.0609  0.1263
18799TIP3    H177888   2.682   4.964  12.468 -0.9856 -0.4154  0.5653
18799TIP3    H277889   2.542   5.023  12.473 -0.7663  0.0201  1.8115
18800TIP3   OH277890   3.793   3.647   4.023  0.3806  0.1599 -0.1256
18800TIP3    H177891   3.781   3.563   3.979 -1.0636 -0.0891  0.7157
18800TIP3    H277892   3.887   3.652   4.041  0.5491 -1.0097 -0.6816
18801TIP3   OH277893   3.235   1.960   1.357  0.5221 -0.3354 -0.4328
18801TIP3    H177894   3.233   1.886   1.296 -1.4975 -1.1596  0.5488
18801TIP3    H277895   3.264   2.034   1.304 -0.0287 -1.2701 -2.1017
18802TIP3   OH277896   3.096   0.272   0.974  0.6191  0.2197 -0.1099
18802TIP3    H177897   3.014   0.251   0.929  0.5791  1.7467 -0.7596
18802TIP3    H277898   3.158   0.291   0.904  0.6899  2.1436  0.4513
18803TIP3   OH277899   5.116   6.208  12.338  0.3291  0.3361  0.2695
18803TIP3    H177900   5.087   6.120  12.315  1.2736 -0.2022  1.0999
18803TIP3    H277901   5.211   6.206  12.324  0.6759  0.5291  2.4276
18804TIP3   OH277902   4.841   5.718  15.589 -0.0289  0.1495 -0.6651
18804TIP3    H177903   4.902   5.791  15.601 -0.2164  0.5431 -2.0047
18804TIP3    H277904   4.866   5.679  15.506 -2.0447  0.7699 -1.6177
18805TIP3   OH277905   5.077   6.440   5.151  0.0281 -0.7701 -0.0366
18805TIP3    H177906   4.997   6.389   5.138 -0.0250 -0.8796  0.7113
18805TIP3    H277907   5.060   6.523   5.108 -0.1897 -1.0829 -0.5612
18806TIP3   OH277908   5.752   6.206   6.661  0.2737  0.0254  0.7334
18806TIP3    H177909   5.807   6.283   6.647 -0.1200  0.5611  2.0453
18806TIP3    H277910   5.665   6.233   6.633 -0.0719  0.4026  2.1256
18807TIP3   OH277911   2.796   0.039   1.046 -0.7095  1.1391 -0.1367
18807TIP3    H177912   2.760  -0.030   0.989 -0.6188 -1.5865  2.9231
18807TIP3    H277913   2.890   0.030   1.037 -0.6985  2.7764 -1.8637
18808TIP3   OH277914   2.156   0.237   3.672 -0.5057  0.2737  0.5318
18808TIP3    H177915   2.211   0.267   3.744  0.5582 -2.7098  1.0598
18808TIP3    H277916   2.103   0.167   3.710 -2.3483  0.9249 -0.7770
18809TIP3   OH277917   3.435   4.401  15.455 -0.3910  0.3263  0.1186
18809TIP3    H177918   3.358   4.413  15.398  0.8438  4.0680 -0.8741
18809TIP3    H277919   3.506   4.377  15.395  0.1419  0.9227  0.5085
18810TIP3   OH277920   5.230   2.275  15.928 -0.0932  0.1971  0.6527
18810TIP3    H177921   5.293   2.298  15.860 -1.0366  0.6615 -0.0646
18810TIP3    H277922   5.158   2.337  15.917 -0.3606  0.1326  1.9264
18811TIP3   OH277923   5.118   3.859  16.076  0.4428  0.0424 -0.6426
18811TIP3    H177924   5.200   3.834  16.119  0.6848  1.8727  0.0301
18811TIP3    H277925   5.105   3.793  16.008  1.7049 -1.1117  0.2108
18812TIP3   OH277926   3.597   3.804  11.374 -0.4583  0.0900  0.0654
18812TIP3    H177927   3.545   3.872  11.416 -1.8995 -1.1548  0.3285
18812TIP3    H277928   3.596   3.731  11.435  1.9326  0.1672  0.2329
18813TIP3   OH277929   5.218   3.501  16.207  0.0746 -0.9660  0.2715
18813TIP3    H177930   5.266   3.568  16.256  1.8824 -1.2037 -1.0726
18813TIP3    H277931   5.134   3.493  16.252  0.0359  1.7871  0.8142
18814TIP3   OH277932   6.765   2.862  15.885  0.2766  0.6323  0.1448
18814TIP3    H177933   6.734   2.915  15.959 -0.8045 -1.0866  0.9802
18814TIP3    H277934   6.850   2.899  15.863 -0.9505  3.4455 -0.0841
18815TIP3   OH277935   3.666   0.186  12.319  0.4947  0.3448  0.3165
18815TIP3    H177936   3.694   0.271  12.353  1.0447 -0.2063  1.2578
18815TIP3    H277937   3.676   0.126  12.393  0.0678 -0.5322 -0.3310
18816TIP3   OH277938   1.535   6.148  12.211  0.7003  0.6431 -0.3334
18816TIP3    H177939   1.513   6.106  12.294  2.2831 -2.0755 -1.2183
18816TIP3    H277940   1.535   6.242  12.230  2.2078  0.0113  3.0146
18817TIP3   OH277941   1.576   5.182  13.348  0.0518 -0.0976  0.2435
18817TIP3    H177942   1.492   5.137  13.339 -0.1598  0.4469 -0.6662
18817TIP3    H277943   1.619   5.171  13.263  0.8296 -0.2364  0.6518
18818TIP3   OH277944   6.595   3.624   0.411 -0.0602  0.1634 -0.3993
18818TIP3    H177945   6.614   3.566   0.337  0.6064  0.6074 -0.5737
18818TIP3    H277946   6.675   3.621   0.465 -0.2143  0.5333 -0.1519
18819TIP3   OH277947   4.696   1.447   5.132 -0.3347 -0.1340 -0.4544
18819TIP3    H177948   4.647   1.485   5.205  1.3994  1.5052 -0.1008
18819TIP3    H277949   4.754   1.383   5.173 -1.8546 -1.7660 -0.8209
18820TIP3   OH277950   4.370   2.859   2.608  0.6258  0.7391 -0.9794
18820TIP3    H177951   4.393   2.942   2.566 -0.9144  0.7490 -1.8581
18820TIP3    H277952   4.308   2.819   2.547 -0.1026 -0.1693  0.3551
18821TIP3   OH277953   1.999   2.379  12.315 -0.1529  0.1480  0.1636
18821TIP3    H177954   2.062   2.341  12.376  1.6059 -0.2626 -1.8571
18821TIP3    H277955   1.915   2.338  12.338  0.4088  0.1670  2.4097
18822TIP3   OH277956   5.230   1.923   3.136  0.6281  0.7501 -0.9541
18822TIP3    H177957   5.288   1.931   3.061  0.5204  1.9643 -0.9138
18822TIP3    H277958   5.142   1.920   3.098  0.5645  1.5207 -0.8667
18823TIP3   OH277959   1.519   3.224   3.109  0.1806 -0.5342  0.0004
18823TIP3    H177960   1.465   3.251   3.184 -0.3079  0.0676 -0.5682
18823TIP3    H277961   1.473   3.259   3.033  1.0132 -0.6235 -0.5390
18824TIP3   OH277962   0.243   6.074   5.621  0.1479 -0.0573 -0.2869
18824TIP3    H177963   0.338   6.075   5.606  0.4378  1.8664  1.3986
18824TIP3    H277964   0.231   6.018   5.698  0.2781  2.1907  1.4141
18825TIP3   OH277965   1.774   0.672   0.836  0.2276 -0.4848 -0.2546
18825TIP3    H177966   1.841   0.712   0.780 -0.7889 -0.6909 -1.6350
18825TIP3    H277967   1.694   0.677   0.784 -0.4835 -1.7695  0.7112
18826TIP3   OH277968   4.080   3.448  11.213  0.1381 -0.2297  0.2301
18826TIP3    H177969   4.058   3.466  11.121 -0.9912 -1.7245  0.1893
18826TIP3    H277970   4.173   3.467  11.220  0.5200 -1.3838 -1.5516
18827TIP3   OH277971   6.691   5.942  12.979  0.2795 -0.1515 -0.4453
18827TIP3    H177972   6.620   5.983  12.930 -0.2497 -0.6246 -0.0873
18827TIP3    H277973   6.727   5.876  12.919 -1.0251 -1.4267  0.1431
18828TIP3   OH277974   0.962   3.427  15.726  0.2161 -0.0471  0.0256
18828TIP3    H177975   1.003   3.384  15.800  0.7478 -0.3701 -0.4497
18828TIP3    H277976   0.949   3.357  15.661  1.8225  0.6444 -1.0663
18829TIP3   OH277977   2.714   3.249   1.739 -0.1102  0.2646 -0.4546
18829TIP3    H177978   2.736   3.156   1.750 -1.4699  0.2490  2.7527
18829TIP3    H277979   2.729   3.287   1.825 -2.2874  2.4264 -0.9743
18830TIP3   OH277980   0.727   2.198   1.474  0.6699 -0.2087 -0.2982
18830TIP3    H177981   0.663   2.127   1.473  0.3691  0.0419 -3.7234
18830TIP3    H277982   0.812   2.155   1.483  0.3342 -0.8695 -0.3187
18831TIP3   OH277983   0.661   0.756   0.744 -0.1080 -0.4794 -0.4963
18831TIP3    H177984   0.686   0.804   0.823 -1.0252  0.4289 -0.7450
18831TIP3    H277985   0.570   0.731   0.759 -0.2432 -0.4187 -1.2137
18832TIP3   OH277986   1.610   1.683   1.881  0.1178 -0.5405  0.0057
18832TIP3    H177987   1.570   1.739   1.947 -0.2625 -0.4765 -0.2807
18832TIP3    H277988   1.644   1.608   1.931 -1.3994 -1.1713  0.1089
18833TIP3   OH277989   0.651   0.470  11.745  0.3887  0.2218 -0.8581
18833TIP3    H177990   0.714   0.409  11.783  2.3146  4.0900  2.5605
18833TIP3    H277991   0.695   0.503  11.666  0.6999 -0.4458 -0.9688
18834TIP3   OH277992   1.438   6.255  17.250 -0.1504 -0.1675  0.2824
18834TIP3    H177993   1.439   6.209  17.166  0.5652  0.3375  0.0102
18834TIP3    H277994   1.353   6.234  17.288 -0.4892 -0.3620 -0.5854
18835TIP3   OH277995   3.351   5.928  15.527 -0.7140  0.3990 -0.4172
18835TIP3    H177996   3.362   5.932  15.432 -0.7237 -0.5458 -0.4655
18835TIP3    H277997   3.438   5.945  15.562 -0.3519 -0.9710 -0.6428
18836TIP3   OH277998   2.472   3.581   4.374 -0.8744 -0.1987  0.3679
18836TIP3    H177999   2.423   3.511   4.417 -3.0366  0.8140 -0.3656
18836TIP3    H278000   2.497   3.640   4.445 -2.4749  0.3033  0.5347
18837TIP3   OH278001   6.578   1.249   0.787  0.1986 -0.1726  0.7260
18837TIP3    H178002   6.571   1.155   0.803  1.1586 -0.1025  1.5388
18837TIP3    H278003   6.568   1.257   0.692 -0.7609 -1.0065  0.7394
18838TIP3   OH278004   2.731   2.123  14.782  0.6846 -0.0093 -0.2642
18838TIP3    H178005   2.697   2.212  14.795 -0.0307  0.0493 -2.4432
18838TIP3    H278006   2.806   2.134  14.724  0.7184 -0.8158 -0.3694
18839TIP3   OH278007   2.526   2.346   2.536  0.0777 -0.5095  0.1271
18839TIP3    H178008   2.540   2.385   2.623  0.3403 -0.3783  0.0270
18839TIP3    H278009   2.507   2.254   2.554  2.1186 -0.9431  0.2197
18840TIP3   OH278010   2.120   4.218   2.528 -0.1004 -0.4822  0.1403
18840TIP3    H178011   2.179   4.187   2.597 -1.1237 -1.9407  0.3930
18840TIP3    H278012   2.041   4.246   2.575 -1.1981 -2.4357 -0.4630
18841TIP3   OH278013   3.630   1.924   4.931 -0.1821 -0.1594 -0.1260
18841TIP3    H178014   3.536   1.904   4.932 -0.1298 -0.5517 -2.0341
18841TIP3    H278015   3.672   1.840   4.909  0.6600 -0.1247  1.2889
18842TIP3   OH278016   1.295   4.547  17.231  0.5576 -0.0341 -0.0968
18842TIP3    H178017   1.341   4.625  17.199 -2.2628  2.7399  2.2566
18842TIP3    H278018   1.349   4.514  17.302  1.1663  0.5341 -0.2942
18843TIP3   OH278019   0.221   2.069  16.435 -0.1469 -0.1114  0.9196
18843TIP3    H178020   0.310   2.035  16.425 -0.1927 -0.9807  3.1169
18843TIP3    H278021   0.171   2.024  16.367  0.5654 -1.6869  1.3989
18844TIP3   OH278022   4.301   4.350  15.222  0.2160  0.0322 -0.0368
18844TIP3    H178023   4.380   4.403  15.212  0.3549 -0.0189  0.7722
18844TIP3    H278024   4.331   4.266  15.255 -0.1655 -0.0021  0.2351
18845TIP3   OH278025   6.324   5.460  12.146  0.3867  0.0710  0.0305
18845TIP3    H178026   6.378   5.431  12.072 -0.0284  1.1151 -0.6915
18845TIP3    H278027   6.359   5.545  12.170 -0.4967  0.4561 -0.0059
18846TIP3   OH278028   0.205   0.246   5.466 -0.3310 -0.4780 -0.0068
18846TIP3    H178029   0.170   0.215   5.550 -1.0513 -2.5474 -1.0290
18846TIP3    H278030   0.232   0.336   5.483  0.5753 -1.2155  2.7433
18847TIP3   OH278031   2.653   0.748  10.775  0.9422 -0.5134 -0.5626
18847TIP3    H178032   2.683   0.667  10.816  1.8866 -0.3046 -0.8105
18847TIP3    H278033   2.704   0.817  10.819  1.4988 -0.2280 -1.6324
18848TIP3   OH278034   5.232   6.598   5.677 -0.3132  0.0127  0.4975
18848TIP3    H178035   5.267   6.523   5.628 -0.4926  0.1363  0.1746
18848TIP3    H278036   5.177   6.643   5.613  1.0817  1.3309  0.2002
18849TIP3   OH278037   0.471   0.676   5.621  0.4388  0.2663  0.2679
18849TIP3    H178038   0.507   0.705   5.705  1.0941  1.4815 -0.4113
18849TIP3    H278039   0.511   0.735   5.556  1.3919 -1.8160 -1.1151
18850TIP3   OH278040   1.414   1.111   2.283  0.1513 -0.0718 -0.1916
18850TIP3    H178041   1.477   1.080   2.219 -0.3140 -1.5086  0.0247
18850TIP3    H278042   1.433   1.058   2.362 -1.0529 -0.2353 -0.0103
18851TIP3   OH278043   6.581   1.601   6.052 -0.1070 -0.2046 -0.0692
18851TIP3    H178044   6.604   1.597   6.145  1.7706  0.9506 -0.4603
18851TIP3    H278045   6.489   1.575   6.049  0.0142 -0.9500  2.0248
18852TIP3   OH278046   6.050   3.178  11.912 -0.0360  0.4412 -0.5814
18852TIP3    H178047   6.144   3.165  11.926  0.1566 -0.1435 -2.3335
18852TIP3    H278048   6.012   3.172  12.000  1.3074 -1.5594 -0.1003
18853TIP3   OH278049   1.501   5.956   2.509  0.1000  0.2222  0.0152
18853TIP3    H178050   1.479   5.954   2.416  1.0201  0.0582 -0.2142
18853TIP3    H278051   1.476   5.869   2.541  0.6324 -0.0570 -0.3012
18854TIP3   OH278052   5.362   1.114   1.149  0.1703 -0.0116  0.6622
18854TIP3    H178053   5.381   1.074   1.234 -1.9182  0.3436  1.3337
18854TIP3    H278054   5.302   1.054   1.106  1.9794 -0.6755 -1.0164
18855TIP3   OH278055   4.616   0.394  13.195  0.7700  0.1055 -0.8857
18855TIP3    H178056   4.605   0.376  13.102 -1.3727 -0.7694 -0.5058
18855TIP3    H278057   4.529   0.421  13.224  1.1918 -0.5460  1.0523
18856TIP3   OH278058   5.524   3.684  11.498 -0.1151  0.2590  0.5800
18856TIP3    H178059   5.503   3.599  11.460 -0.2841  0.2786  0.6336
18856TIP3    H278060   5.559   3.734  11.424  2.5926 -0.7528  1.0918
18857TIP3   OH278061   6.789   4.909   4.421  0.6172 -0.0225  0.2307
18857TIP3    H178062   6.756   4.970   4.487 -1.2537 -0.2755 -0.4460
18857TIP3    H278063   6.809   4.829   4.470 -0.4340 -0.0948  0.5559
18858TIP3   OH278064   3.351   0.078   4.836 -0.0864  0.7923 -0.1892
18858TIP3    H178065   3.327   0.167   4.862 -0.6632 -0.2966  3.2359
18858TIP3    H278066   3.267   0.034   4.822  0.1365  0.2019  0.3026
18859TIP3   OH278067   1.120   6.015  16.064  0.2811 -0.1722 -0.0141
18859TIP3    H178068   1.145   5.928  16.093  2.2237  1.4752  3.5932
18859TIP3    H278069   1.189   6.042  16.003  0.1856 -0.7541 -0.3810
18860TIP3   OH278070   2.094   3.753  14.966  0.0788 -0.0979  0.1864
18860TIP3    H178071   2.136   3.700  15.034 -0.1309  0.4129  0.7296
18860TIP3    H278072   2.002   3.729  14.971  0.0323  0.0844  0.2271
18861TIP3   OH278073   2.487   6.121   5.003 -0.3703  0.0681 -0.4032
18861TIP3    H178074   2.409   6.124   4.948 -1.7859  1.7348  1.5928
18861TIP3    H278075   2.560   6.117   4.941 -1.9705  0.1007 -2.3453
18862TIP3   OH278076   5.272   5.559   0.765 -0.4598 -0.0267 -0.5606
18862TIP3    H178077   5.198   5.602   0.809  0.0493 -0.2781  0.5589
18862TIP3    H278078   5.231   5.500   0.702 -1.2082  0.0859 -0.1890
18863TIP3   OH278079   1.685   3.255   5.897  0.1741 -0.1804  0.3477
18863TIP3    H178080   1.628   3.186   5.931  0.8570 -1.0539 -0.2468
18863TIP3    H278081   1.646   3.336   5.928  0.8105 -0.9433  3.2638
18864TIP3   OH278082   4.927   0.667  12.374  0.1643 -0.3959 -0.1090
18864TIP3    H178083   4.866   0.604  12.336 -0.7497 -0.8236  1.9652
18864TIP3    H278084   4.891   0.753  12.350 -0.2318 -0.6556 -0.4519
18865TIP3   OH278085   1.070   3.779   3.496  0.3317  0.2775 -0.2782
18865TIP3    H178086   1.136   3.710   3.487 -0.5154 -0.4712 -0.7285
18865TIP3    H278087   1.040   3.796   3.407 -0.3416  0.3864 -0.0289
18866TIP3   OH278088   3.849   4.526  12.505  0.2630 -0.2962 -0.5065
18866TIP3    H178089   3.833   4.603  12.559  0.6628  0.5802 -1.6256
18866TIP3    H278090   3.944   4.512  12.510  0.3684  0.0861 -1.3699
18867TIP3   OH278091   3.172   2.327   3.014 -0.0783 -0.1288 -0.0743
18867TIP3    H178092   3.106   2.310   2.948 -0.5945  1.4447  0.0281
18867TIP3    H278093   3.144   2.275   3.090  0.4814 -1.8808 -1.0184
18868TIP3   OH278094   0.310   0.643  15.000  0.3666  0.6770 -0.3477
18868TIP3    H178095   0.250   0.716  14.983 -0.2060 -0.2518 -2.5556
18868TIP3    H278096   0.310   0.634  15.095 -2.0267  1.5137 -0.2280
18869TIP3   OH278097   5.359   1.149   2.017 -0.4453  0.5453 -0.2012
18869TIP3    H178098   5.271   1.127   2.047 -1.0956  4.3169  0.9234
18869TIP3    H278099   5.412   1.149   2.096 -0.4983  2.9075 -0.1244
18870TIP3   OH278100   6.468   2.436  16.731 -0.1792 -1.0772 -0.0305
18870TIP3    H178101   6.477   2.509  16.792 -2.2274 -1.6526  1.0281
18870TIP3    H278102   6.451   2.361  16.787 -2.1752 -1.5994 -1.2885
18871TIP3   OH278103   3.585   5.663   6.277 -0.4710 -0.3958  0.4166
18871TIP3    H178104   3.511   5.720   6.259 -1.2426 -0.9494  1.7558
18871TIP3    H278105   3.551   5.574   6.269  1.1071 -0.7379 -3.2174
18872TIP3   OH278106   6.720   3.458  11.901 -0.1140 -0.4190  0.2781
18872TIP3    H178107   6.759   3.393  11.960  1.7531  1.1523  0.8106
18872TIP3    H278108   6.752   3.433  11.814  0.4380 -0.3464  0.4561
18873TIP3   OH278109   2.203   2.976   1.056  0.1194  0.4726  0.3207
18873TIP3    H178110   2.261   3.020   1.118 -0.0011 -2.2236  2.4284
18873TIP3    H278111   2.119   2.970   1.102 -0.2886 -0.5851 -0.5412
18874TIP3   OH278112   2.415   6.180   0.914 -0.1889  0.0006 -0.1778
18874TIP3    H178113   2.428   6.116   0.844 -1.4836 -0.9695  0.4466
18874TIP3    H278114   2.430   6.129   0.994  0.7458  0.9730  0.2761
18875TIP3   OH278115   5.920   2.858   4.665  0.2082 -0.8720 -0.5442
18875TIP3    H178116   5.959   2.945   4.671  3.3831 -2.0446 -3.0630
18875TIP3    H278117   5.871   2.859   4.583  0.8842 -1.6967 -0.9609
18876TIP3   OH278118   6.759   4.364  12.406 -0.3980  0.2528  0.6647
18876TIP3    H178119   6.843   4.357  12.360 -0.7423 -1.9737  0.3520
18876TIP3    H278120   6.706   4.421  12.350 -0.3824 -1.4299 -1.0909
18877TIP3   OH278121   4.758   1.173   5.927  0.0343  0.2513  0.1378
18877TIP3    H178122   4.824   1.108   5.952  0.1063  0.6092  0.9240
18877TIP3    H278123   4.682   1.122   5.899 -0.4283 -0.2098  2.1077
18878TIP3   OH278124   1.979   2.763  12.727 -0.2486 -0.1241 -0.1041
18878TIP3    H178125   2.002   2.679  12.764 -0.2103  0.0976  0.3758
18878TIP3    H278126   1.961   2.819  12.802  1.3369  0.7588 -0.3712
18879TIP3   OH278127   0.884   2.789   0.112  0.2336 -1.0162 -0.0744
18879TIP3    H178128   0.911   2.697   0.116  1.1360 -0.6672  3.6758
18879TIP3    H278129   0.895   2.821   0.202 -3.7855  1.7121 -0.4355
18880TIP3   OH278130   5.052   3.574   4.053  0.1091 -0.2329  0.0514
18880TIP3    H178131   4.963   3.594   4.024  0.7323  1.5282 -0.6949
18880TIP3    H278132   5.090   3.659   4.075  1.9312 -0.8610 -0.5725
18881TIP3   OH278133   6.721   3.361   6.834  0.2305  0.1226 -0.5033
18881TIP3    H178134   6.729   3.289   6.897 -0.6664  1.0775  0.7335
18881TIP3    H278135   6.626   3.369   6.818  0.3306  0.9409 -0.7249
18882TIP3   OH278136   3.588   6.354   3.503  0.2344 -0.5174  0.4218
18882TIP3    H178137   3.590   6.386   3.413  0.5333 -0.3293  0.4901
18882TIP3    H278138   3.500   6.319   3.515 -0.3796  1.0213  0.5858
18883TIP3   OH278139   0.857   3.679  17.191  0.7330 -0.5144  0.4597
18883TIP3    H178140   0.852   3.663  17.285  0.8170  0.3528  0.6149
18883TIP3    H278141   0.792   3.621  17.153  1.1681 -1.3651  0.9884
18884TIP3   OH278142   2.176   3.857  13.772 -0.9828 -0.3754  0.3308
18884TIP3    H178143   2.128   3.939  13.781 -0.1914 -0.0159  1.3765
18884TIP3    H278144   2.113   3.789  13.797 -1.3354 -0.0177  0.4199
18885TIP3   OH278145   1.601   5.437   2.896 -0.8227  0.2158  0.4671
18885TIP3    H178146   1.578   5.399   2.811 -0.8225 -0.2201  0.6601
18885TIP3    H278147   1.520   5.430   2.948 -0.6485 -0.0639  0.6994
18886TIP3   OH278148   0.063   0.057  15.014  0.3382 -0.4665 -0.1769
18886TIP3    H178149   0.071   0.058  14.919  0.1128  1.9781 -0.2000
18886TIP3    H278150   0.009  -0.020  15.033 -0.1771 -0.5987 -2.0666
18887TIP3   OH278151   3.339   0.879   6.666 -0.1176  0.5802  0.0638
18887TIP3    H178152   3.407   0.897   6.731 -0.4519  0.3752  0.4755
18887TIP3    H278153   3.363   0.796   6.627 -0.2922  0.3573  0.4259
18888TIP3   OH278154   1.384   3.581  14.502 -0.6126 -0.0765  0.3681
18888TIP3    H178155   1.455   3.645  14.488 -1.6899  1.3729  1.4298
18888TIP3    H278156   1.424   3.511  14.554  0.6336 -0.3824 -0.9715
18889TIP3   OH278157   0.191   3.104  12.277 -0.2353  0.3226 -0.1422
18889TIP3    H178158   0.183   3.162  12.353 -2.1863 -0.3641  0.2037
18889TIP3    H278159   0.196   3.016  12.314 -0.1311  0.0688 -0.7617
18890TIP3   OH278160   5.508   1.926  16.593 -0.0699 -0.1714  0.1181
18890TIP3    H178161   5.523   1.834  16.570 -1.5854 -0.3388 -0.2560
18890TIP3    H278162   5.425   1.947  16.552 -0.6900  0.8077  1.8290
18891TIP3   OH278163   3.669   0.312  13.765  0.1429  0.0800  0.6292
18891TIP3    H178164   3.702   0.390  13.809 -0.5487  0.7169  0.0266
18891TIP3    H278165   3.704   0.317  13.676 -0.8212  0.2910  0.2548
18892TIP3   OH278166   3.453   0.665  12.021  0.3025  0.1894  0.4450
18892TIP3    H178167   3.444   0.576  12.057  0.5341  0.2943  0.7702
18892TIP3    H278168   3.371   0.681  11.975  0.6715 -0.5990 -0.5102
18893TIP3   OH278169   6.439   0.574  17.227  0.0062  0.1269 -0.1312
18893TIP3    H178170   6.447   0.662  17.189  2.1026 -0.9602 -2.2958
18893TIP3    H278171   6.490   0.579  17.308 -0.1234  0.9749 -0.0934
18894TIP3   OH278172   4.515   5.879  14.216  0.1958 -0.5642 -0.3309
18894TIP3    H178173   4.599   5.867  14.170 -0.5867  4.5245 -3.3940
18894TIP3    H278174   4.467   5.798  14.198  2.6406 -1.6140 -2.5794
18895TIP3   OH278175   6.635   1.263  13.776 -0.4369  0.1861 -0.1141
18895TIP3    H178176   6.600   1.183  13.815 -1.2401  1.0178  0.9119
18895TIP3    H278177   6.730   1.257  13.789 -0.4612 -0.7635 -0.3605
18896TIP3   OH278178   3.037   1.940   3.503  0.3454  0.3422 -0.3707
18896TIP3    H178179   2.983   1.885   3.560 -0.6619  0.5303 -1.1206
18896TIP3    H278180   3.114   1.962   3.556 -0.5809  0.5262  0.9292
18897TIP3   OH278181   2.804   5.284  16.158 -0.1242 -0.1348  0.4871
18897TIP3    H178182   2.862   5.348  16.199  1.4876  0.0666 -2.0523
18897TIP3    H278183   2.863   5.220  16.118 -1.6717 -0.6320 -1.0380
18898TIP3   OH278184   6.291   1.742   2.653 -0.1525  0.2194  0.1640
18898TIP3    H178185   6.300   1.698   2.568 -1.7442  1.3575 -0.6262
18898TIP3    H278186   6.349   1.817   2.648  0.3260 -0.1346  0.3771
18899TIP3   OH278187   4.011   1.537   3.712 -0.2761  0.2335 -0.0709
18899TIP3    H178188   4.020   1.631   3.704 -1.4781  0.3331 -0.4028
18899TIP3    H278189   3.927   1.524   3.756  0.1476 -0.6743  0.5138
18900TIP3   OH278190   3.234   4.190   6.724 -0.7188 -0.1847 -0.6488
18900TIP3    H178191   3.188   4.109   6.703 -1.0695  0.1962 -1.3813
18900TIP3    H278192   3.178   4.259   6.688  0.5548  0.2699 -1.7747
18901TIP3   OH278193   2.199   6.276  15.494  0.3837 -0.6504  0.0751
18901TIP3    H178194   2.191   6.247  15.585  1.0037 -3.4948 -0.7416
18901TIP3    H278195   2.119   6.327  15.478 -0.6612 -1.7691  1.6195
18902TIP3   OH278196   1.471   2.532   3.059  0.0302 -0.2400  0.3594
18902TIP3    H178197   1.515   2.447   3.067  1.9544  0.8566  1.6067
18902TIP3    H278198   1.430   2.528   2.972  0.7841 -2.1273  0.0486
18903TIP3   OH278199   4.762   0.378  11.750 -0.3682 -0.1975  0.2791
18903TIP3    H178200   4.803   0.464  11.754  0.4589 -0.6337  1.4367
18903TIP3    H278201   4.826   0.318  11.788 -0.4757 -1.5175 -1.5150
18904TIP3   OH278202   3.937   3.594   0.079  0.7581  0.2392  0.1649
18904TIP3    H178203   3.921   3.501   0.063  1.2075  0.3735 -1.1432
18904TIP3    H278204   3.917   3.636  -0.005 -3.2191  1.8325  1.7966
18905TIP3   OH278205   1.490   3.354   5.657  0.3065  0.3306 -0.3788
18905TIP3    H178206   1.483   3.399   5.741  1.3509  0.3374 -0.2893
18905TIP3    H278207   1.569   3.390   5.616  0.6387 -0.7388 -0.7144
18906TIP3   OH278208   6.307   3.650   0.808  0.3086 -0.0159  0.1526
18906TIP3    H178209   6.335   3.559   0.795  2.6908  0.8156 -0.9131
18906TIP3    H278210   6.363   3.682   0.879 -0.2966  0.7088  0.3125
18907TIP3   OH278211   3.360   1.558   0.451 -0.3138 -0.1247  0.4139
18907TIP3    H178212   3.446   1.549   0.410 -0.6760 -0.7140 -0.2168
18907TIP3    H278213   3.316   1.626   0.400 -0.4539 -0.2717  0.3369
18908TIP3   OH278214   6.417   1.926  15.308 -0.0347 -0.4791  0.0133
18908TIP3    H178215   6.371   1.979  15.243  0.9953  2.3713  1.5406
18908TIP3    H278216   6.494   1.894  15.262  0.6732  1.4849 -0.2189
18909TIP3   OH278217   0.016   2.878  12.238 -0.0117 -0.5141 -0.1949
18909TIP3    H178218   0.043   2.953  12.184  1.0669  0.3736  1.5609
18909TIP3    H278219  -0.010   2.812  12.174 -1.6950  1.5813 -1.7987
18910TIP3   OH278220   5.585   5.009   1.899  0.5807  0.0309 -0.0386
18910TIP3    H178221   5.549   5.067   1.965  0.0687 -0.7493  0.3685
18910TIP3    H278222   5.679   5.028   1.900  0.7064 -0.5994  1.5317
18911TIP3   OH278223   2.014   4.933  11.699  0.0720 -0.4338 -0.0269
18911TIP3    H178224   2.108   4.916  11.707  0.2009  0.0961 -0.4003
18911TIP3    H278225   2.006   5.028  11.704 -0.3834 -0.4365 -0.5803
18912TIP3   OH278226   4.317   2.942  11.391 -0.1078  0.0789 -0.2960
18912TIP3    H178227   4.244   3.004  11.393 -0.6818 -0.4942 -2.3720
18912TIP3    H278228   4.381   2.981  11.331  0.7862  0.0260  0.6136
18913TIP3   OH278229   3.683   0.514  14.567 -0.0418  0.0405 -0.6628
18913TIP3    H178230   3.714   0.565  14.492 -0.7552 -0.6588 -1.4415
18913TIP3    H278231   3.609   0.564  14.602  1.7873  1.6156  1.0838
18914TIP3   OH278232   3.143   3.070  14.902  0.2444 -0.0771 -0.0319
18914TIP3    H178233   3.169   3.154  14.864 -0.5093  0.4639  0.6542
18914TIP3    H278234   3.194   3.063  14.982 -0.6405  0.3191  0.5703
18915TIP3   OH278235   2.285   2.922   5.759 -0.3248  0.2550 -0.6867
18915TIP3    H178236   2.219   2.852   5.759 -1.8145  1.6171  0.0527
18915TIP3    H278237   2.255   2.982   5.691  0.1529  0.8910 -0.3415
18916TIP3   OH278238   2.691   2.298   3.872 -0.9567  0.1118  0.5769
18916TIP3    H178239   2.760   2.359   3.847 -0.3702 -1.3550 -1.4949
18916TIP3    H278240   2.611   2.336   3.836 -0.4411 -0.8436 -1.6411
18917TIP3   OH278241   5.735   5.610   4.500  0.2726  0.2330  0.0183
18917TIP3    H178242   5.703   5.520   4.505  0.6210  0.1840  1.6886
18917TIP3    H278243   5.661   5.664   4.525  0.0840  0.4092 -0.9151
18918TIP3   OH278244   2.331   4.061  17.291  0.2085  0.1195  0.5586
18918TIP3    H178245   2.360   4.101  17.373  0.1381  0.5241  0.3886
18918TIP3    H278246   2.390   3.987  17.278  0.4042  0.2278  0.8267
18919TIP3   OH278247   4.555   4.305  11.473  0.6429 -0.0593  0.7300
18919TIP3    H178248   4.577   4.251  11.548  0.9260 -0.8230  0.0982
18919TIP3    H278249   4.465   4.281  11.451  0.3472  0.6086  1.2055
18920TIP3   OH278250   3.567   6.476   4.744 -0.3327 -0.1658 -0.2049
18920TIP3    H178251   3.620   6.411   4.697 -1.0792 -1.5149  0.7508
18920TIP3    H278252   3.505   6.508   4.679  0.1897 -0.2607 -0.7522
18921TIP3   OH278253   6.194   3.062  12.965 -0.1526  0.7576  0.2020
18921TIP3    H178254   6.124   3.104  13.015  1.0709  1.4341  1.3548
18921TIP3    H278255   6.212   2.980  13.011 -0.5793  0.3051 -0.4286
18922TIP3   OH278256   1.208   4.187  16.081 -0.3622  0.1439  0.4014
18922TIP3    H178257   1.291   4.218  16.045 -0.6359 -1.5909 -1.8442
18922TIP3    H278258   1.142   4.246  16.043 -0.2441  1.1995  1.7761
18923TIP3   OH278259   4.231   4.065   2.000  0.7043 -0.4566 -0.6352
18923TIP3    H178260   4.245   4.137   2.062 -0.8246  0.7585 -1.6601
18923TIP3    H278261   4.247   3.986   2.051  2.2557  0.5871  0.5632
18924TIP3   OH278262   2.294   3.303   4.290 -0.5437 -0.6406  0.4607
18924TIP3    H178263   2.342   3.240   4.236 -1.5004 -0.7826 -0.2451
18924TIP3    H278264   2.266   3.253   4.366 -1.4030 -1.1069 -0.1549
18925TIP3   OH278265   3.660   3.503  14.488  0.0895  0.3462  0.2366
18925TIP3    H178266   3.734   3.528  14.542  0.0235 -2.3613  1.6562
18925TIP3    H278267   3.690   3.426  14.440 -1.7556 -0.7526  0.7918
18926TIP3   OH278268   5.047   4.496  11.850  0.0895 -0.1468 -0.3323
18926TIP3    H178269   4.979   4.458  11.796  0.6450 -0.4375 -0.8300
18926TIP3    H278270   5.087   4.564  11.795 -0.9576  1.2438  0.5742
18927TIP3   OH278271   6.592   3.649  14.346  0.4945  0.2217  0.0753
18927TIP3    H178272   6.502   3.670  14.320  0.5900 -0.5800 -0.9204
18927TIP3    H278273   6.592   3.661  14.441 -0.9940 -0.9504  0.2508
18928TIP3   OH278274   2.951   2.328   6.417 -0.2360 -0.0455  1.0543
18928TIP3    H178275   2.956   2.393   6.488  1.1961  0.4126  0.5696
18928TIP3    H278276   2.945   2.381   6.338 -0.6655 -0.5430  0.7555
18929TIP3   OH278277   2.125   5.615  14.979  0.2140  0.1503 -0.0048
18929TIP3    H178278   2.172   5.554  14.922  1.0656 -0.2283  1.0796
18929TIP3    H278279   2.194   5.665  15.022 -0.4110  0.3578  0.7647
18930TIP3   OH278280   0.559   6.448  15.211 -0.1258 -0.2149  0.9626
18930TIP3    H178281   0.648   6.417  15.193  1.1591  3.2138  1.0397
18930TIP3    H278282   0.520   6.460  15.124  0.1751  0.1432  0.8749
18931TIP3   OH278283   6.268   5.677  16.951 -0.1526 -0.2621  0.0365
18931TIP3    H178284   6.224   5.648  17.032 -1.6160 -0.5930 -0.8635
18931TIP3    H278285   6.203   5.731  16.907  1.1594  1.0902 -0.2497
18932TIP3   OH278286   2.517   6.091  16.451  0.1800  0.0143  0.6267
18932TIP3    H178287   2.438   6.044  16.476 -1.3373  2.7099  1.1255
18932TIP3    H278288   2.485   6.170  16.407  2.6176  0.8014  0.1661
18933TIP3   OH278289   0.140   5.490  16.663 -0.3061  0.0286  0.3608
18933TIP3    H178290   0.216   5.502  16.720 -0.7482  0.1223  0.9351
18933TIP3    H278291   0.099   5.576  16.659 -0.9973 -0.2701  0.9307
18934TIP3   OH278292   6.021   5.275   4.418  0.0761 -0.3756 -0.4937
18934TIP3    H178293   5.992   5.196   4.374  1.1654 -0.2684 -1.4572
18934TIP3    H278294   6.108   5.253   4.451 -0.6939 -0.4136  1.5238
18935TIP3   OH278295   1.885   5.203  14.651  0.0583 -0.1445  0.1172
18935TIP3    H178296   1.924   5.143  14.588 -0.6853 -1.3120  0.7609
18935TIP3    H278297   1.884   5.287  14.606  1.5352 -0.4970 -0.6167
18936TIP3   OH278298   1.563   0.133   2.450  0.1057 -0.6874 -0.6603
18936TIP3    H178299   1.641   0.165   2.496 -0.9242 -1.3448  1.6318
18936TIP3    H278300   1.593   0.056   2.402  1.0694 -0.3767 -0.5545
18937TIP3   OH278301   4.376   3.076  10.657  0.2531 -0.6473  0.0799
18937TIP3    H178302   4.431   3.129  10.599 -0.3881  1.0277  0.9664
18937TIP3    H278303   4.287   3.089  10.626 -0.0339 -0.2238  1.0434
18938TIP3   OH278304   1.889   1.458   4.029 -0.7123  0.5418 -0.0467
18938TIP3    H178305   1.884   1.398   4.104 -1.1570  0.3652 -0.2176
18938TIP3    H278306   1.843   1.412   3.959  0.2230  0.4520 -0.6036
18939TIP3   OH278307   1.238   3.006  13.336  0.0837 -0.2545  0.5742
18939TIP3    H178308   1.248   2.930  13.393  0.6904 -1.5183 -1.1799
18939TIP3    H278309   1.251   2.972  13.247  0.9784  2.0071 -0.2018
18940TIP3   OH278310   4.780   0.157  14.269 -0.2676 -0.5156 -0.2849
18940TIP3    H178311   4.853   0.207  14.234 -0.4702  0.6279  0.8603
18940TIP3    H278312   4.820   0.077  14.303  0.5670  0.3526  0.8498
18941TIP3   OH278313   5.980   0.309   5.449  0.2973 -0.3734 -0.2024
18941TIP3    H178314   6.066   0.347   5.433  0.6264 -0.8193  0.4724
18941TIP3    H278315   5.949   0.351   5.529  0.3024 -0.9029  0.0837
18942TIP3   OH278316   4.456   1.594   1.817  0.2066 -1.0669  0.2605
18942TIP3    H178317   4.404   1.514   1.814  0.5308 -1.2545 -0.5623
18942TIP3    H278318   4.412   1.655   1.758 -0.9296 -0.0738  2.0845
18943TIP3   OH278319   6.631   5.072   1.587 -0.5664 -0.7850  0.2970
18943TIP3    H178320   6.557   5.047   1.642 -1.3396 -0.2558 -0.4943
18943TIP3    H278321   6.694   5.111   1.648 -1.2114 -0.6323  0.8736
18944TIP3   OH278322   1.978   4.631  11.120  0.3199  0.5150  0.2631
18944TIP3    H178323   1.910   4.690  11.088 -0.2208 -1.1943 -1.8756
18944TIP3    H278324   1.930   4.557  11.157  0.9456 -1.0420 -1.9116
18945TIP3   OH278325   6.529   5.082   3.244  1.2652  0.6107  0.0229
18945TIP3    H178326   6.457   5.140   3.267 -0.2875 -1.5188  0.7007
18945TIP3    H278327   6.503   5.043   3.160  1.8999  0.2672 -0.0223
18946TIP3   OH278328   2.553   0.591  13.479  0.1026  0.6185 -0.0635
18946TIP3    H178329   2.620   0.606  13.546  0.6965 -0.5411 -0.3782
18946TIP3    H278330   2.543   0.675  13.434  1.1553  0.8608  0.1567
18947TIP3   OH278331   1.717   2.309  15.916 -0.4468 -0.1741  0.1853
18947TIP3    H178332   1.658   2.384  15.923 -1.3114 -0.8114 -0.0939
18947TIP3    H278333   1.722   2.290  15.823 -0.0718 -0.3422  0.2361
18948TIP3   OH278334   4.704   1.245   2.514  0.4374 -0.3420 -0.2050
18948TIP3    H178335   4.676   1.154   2.500 -1.0238  0.1965 -0.9230
18948TIP3    H278336   4.693   1.286   2.429 -0.4845  0.9009  0.4912
18949TIP3   OH278337   4.420   3.010  15.856  0.0128  0.0915 -0.2647
18949TIP3    H178338   4.436   3.098  15.889 -2.6954  1.3289 -2.1358
18949TIP3    H278339   4.447   3.012  15.764 -1.0696 -0.6906 -0.6220
18950TIP3   OH278340   0.967   5.249  12.286 -0.1593 -0.0058  0.8100
18950TIP3    H178341   1.025   5.173  12.295 -0.4845 -0.1845  1.4006
18950TIP3    H278342   1.024   5.324  12.304  0.4870 -0.0100 -1.1291
18951TIP3   OH278343   4.717   6.792  15.339  0.1271 -0.4272 -0.2277
18951TIP3    H178344   4.625   6.793  15.312  0.4255 -1.2174 -1.3005
18951TIP3    H278345   4.725   6.866  15.399 -1.2493 -0.4578  0.0132
18952TIP3   OH278346   3.712   4.591  17.167 -0.5747  0.4162  0.3293
18952TIP3    H178347   3.786   4.612  17.110 -0.3364 -1.7805 -0.2103
18952TIP3    H278348   3.682   4.676  17.199  2.4772  1.3044  0.9567
18953TIP3   OH278349   2.434   3.297   2.843 -0.2624  0.0458  0.1684
18953TIP3    H178350   2.352   3.308   2.794  0.7103  0.4883 -1.3818
18953TIP3    H278351   2.446   3.380   2.889 -0.6204  0.0217  0.3093
18954TIP3   OH278352   1.321   1.199  14.403 -0.0823 -0.3503 -0.2271
18954TIP3    H178353   1.318   1.283  14.448 -0.8126 -0.9232  0.8213
18954TIP3    H278354   1.354   1.138  14.469  2.9534 -0.4165 -1.7519
18955TIP3   OH278355   5.507   4.180   3.267 -0.5661  0.0226 -0.4542
18955TIP3    H178356   5.591   4.157   3.307 -0.9350 -0.4486  0.0561
18955TIP3    H278357   5.526   4.191   3.174  0.5960  2.4769  0.0225
18956TIP3   OH278358   6.777   0.851  11.510 -0.4995 -0.1993  0.1784
18956TIP3    H178359   6.797   0.945  11.506 -0.0868 -0.3619 -2.0748
18956TIP3    H278360   6.707   0.839  11.446 -0.9705 -1.3475  0.8992
18957TIP3   OH278361   4.683   6.703  14.808 -0.5576  0.0543  0.0603
18957TIP3    H178362   4.734   6.622  14.802 -0.9046 -0.2109  0.6271
18957TIP3    H278363   4.592   6.674  14.800 -0.7426  0.2723  1.3558
18958TIP3   OH278364   1.730   5.141   5.959  0.2326  0.0908 -0.0536
18958TIP3    H178365   1.645   5.105   5.933 -0.4629  0.3812  1.7684
18958TIP3    H278366   1.791   5.067   5.948 -0.6021 -0.6928  0.5175
18959TIP3   OH278367   1.711   3.352  13.549  0.0809 -0.6193 -0.2653
18959TIP3    H178368   1.657   3.317  13.478  0.4533 -1.9371  0.0799
18959TIP3    H278369   1.665   3.324  13.629 -0.3488  0.8632  0.0301
18960TIP3   OH278370   1.478   3.869   1.105 -0.2329 -0.3672 -0.8275
18960TIP3    H178371   1.391   3.831   1.110 -0.5644  0.4659 -0.0293
18960TIP3    H278372   1.469   3.943   1.046 -0.6775  1.2567  1.2042
18961TIP3   OH278373   3.044   4.298  11.799  0.2035  0.1189 -0.4872
18961TIP3    H178374   3.007   4.320  11.885  0.3067  0.3364 -0.4982
18961TIP3    H278375   2.977   4.242  11.758 -0.1229  0.5235 -0.5104
18962TIP3   OH278376   6.228   1.451  11.926 -0.0435  0.3301 -0.6367
18962TIP3    H178377   6.266   1.539  11.922 -0.0368  0.2703 -2.7717
18962TIP3    H278378   6.303   1.392  11.920  0.0412  0.1477  1.8788
18963TIP3   OH278379   4.126   5.951  12.419  0.1293 -0.0629  0.8315
18963TIP3    H178380   4.163   5.865  12.440 -2.2011 -1.0945  0.8484
18963TIP3    H278381   4.040   5.931  12.382 -0.3107  2.2617  0.5740
18964TIP3   OH278382   1.049   5.477  13.489  0.6743 -0.0180 -0.5599
18964TIP3    H178383   1.069   5.426  13.410  1.2428  0.9724 -1.0702
18964TIP3    H278384   1.027   5.564  13.456  0.1934  0.2037  0.3336
18965TIP3   OH278385   6.762   4.288  15.257  0.1732 -0.0219 -0.8225
18965TIP3    H178386   6.722   4.374  15.243 -0.4683 -0.1591  0.0763
18965TIP3    H278387   6.777   4.254  15.169  0.4871  1.0304 -1.1857
18966TIP3   OH278388   4.610   4.466  11.033  0.0268 -0.2159 -0.2723
18966TIP3    H178389   4.633   4.390  11.087 -0.2434 -1.5087 -1.9568
18966TIP3    H278390   4.517   4.481  11.050  0.3755  0.5644  1.0470
18967TIP3   OH278391   0.439   0.643   0.863 -0.3668  0.3230 -0.2362
18967TIP3    H178392   0.395   0.700   0.927  1.4372  0.5339  0.8649
18967TIP3    H278393   0.511   0.604   0.912  0.0828 -0.7777 -1.7399
18968TIP3   OH278394   5.061   4.995   4.240  0.0933  0.1087  0.5765
18968TIP3    H178395   5.053   5.070   4.181  0.3761 -0.4448 -0.1804
18968TIP3    H278396   5.024   4.922   4.190  0.8260 -0.4773  0.8835
18969TIP3   OH278397   5.044   4.599   5.066 -0.1266  0.2172  0.3975
18969TIP3    H178398   5.017   4.663   5.000  1.8047 -1.3716 -2.0345
18969TIP3    H278399   4.967   4.543   5.078 -0.2151 -0.0154 -1.2042
18970TIP3   OH278400   0.319   5.554  10.374 -0.3675  0.1965  0.6226
18970TIP3    H178401   0.332   5.504  10.293 -1.8374  0.9902 -0.1178
18970TIP3    H278402   0.252   5.619  10.352  2.5020  3.4538  1.1466
18971TIP3   OH278403   1.289   1.379   2.957  0.9311 -0.2264  0.1959
18971TIP3    H178404   1.366   1.326   2.936  0.6124 -0.8137  0.4992
18971TIP3    H278405   1.301   1.459   2.907  1.0615 -0.8733 -0.8257
18972TIP3   OH278406   1.096   3.370   3.349  0.2898 -0.2464  0.7100
18972TIP3    H178407   1.043   3.291   3.339 -1.0755  0.6883  0.4099
18972TIP3    H278408   1.117   3.373   3.443 -2.6662  0.8987  1.3951
18973TIP3   OH278409   4.358   2.711   5.792  0.2971 -0.5745 -0.3830
18973TIP3    H178410   4.427   2.707   5.726  0.0458  0.9870 -0.7780
18973TIP3    H278411   4.290   2.767   5.752  0.3908  0.8672  1.3958
18974TIP3   OH278412   5.224   6.553   6.476  0.7127  0.6758  0.3215
18974TIP3    H178413   5.249   6.473   6.522  1.7579  1.4071  1.0580
18974TIP3    H278414   5.130   6.561   6.491  0.6377 -0.3356  0.3744
18975TIP3   OH278415   2.561   5.420  15.143 -0.4401  0.8318  0.5367
18975TIP3    H178416   2.637   5.402  15.198 -1.2336  0.7061  1.6094
18975TIP3    H278417   2.562   5.515  15.131  1.1051  0.6206 -1.2684
18976TIP3   OH278418   2.907   0.296  16.919 -0.2732 -0.3864  0.4450
18976TIP3    H178419   2.992   0.302  16.964 -0.6441  0.9074  1.0123
18976TIP3    H278420   2.902   0.206  16.888  1.1153 -0.5937  0.8068
18977TIP3   OH278421   0.898   5.571   2.039 -0.0117 -0.1446 -0.3406
18977TIP3    H178422   0.853   5.523   1.970 -0.3570  0.5081 -0.5670
18977TIP3    H278423   0.921   5.655   1.999  0.4515 -0.0558  0.1034
18978TIP3   OH278424   2.537   3.732   4.587 -0.9781 -0.1766 -0.0208
18978TIP3    H178425   2.594   3.797   4.544 -0.4230 -0.6600 -0.0297
18978TIP3    H278426   2.593   3.692   4.653 -1.2167 -0.8872 -0.2453
18979TIP3   OH278427   6.110   2.343  14.004  0.1723 -0.1438  0.5755
18979TIP3    H178428   6.072   2.293  14.077 -0.2542 -0.0528  0.4165
18979TIP3    H278429   6.205   2.332  14.014  0.0664 -1.5729  0.1247
18980TIP3   OH278430   2.362   3.422  15.526  0.2889  0.0635 -0.6894
18980TIP3    H178431   2.406   3.429  15.610 -1.1818 -1.8544  0.2820
18980TIP3    H278432   2.339   3.513  15.503 -0.9740  0.4636  1.9079
18981TIP3   OH278433   5.361   4.968   5.755 -0.5420 -0.2800 -0.1422
18981TIP3    H178434   5.380   4.929   5.670 -0.3277  0.5660 -0.4900
18981TIP3    H278435   5.447   4.992   5.790 -0.5170 -1.7925  0.8935
18982TIP3   OH278436   0.951   1.248  17.163  0.5063 -0.0463  0.4679
18982TIP3    H178437   1.034   1.294  17.174  1.2001 -0.9349 -0.9246
18982TIP3    H278438   0.974   1.156  17.161 -0.4793 -0.2945 -0.1887
18983TIP3   OH278439   4.446   6.461  16.728  0.0338  0.0398 -0.8691
18983TIP3    H178440   4.465   6.402  16.655  0.6943  2.3376 -2.6045
18983TIP3    H278441   4.386   6.526  16.691  1.8536  2.3137  0.0777
18984TIP3   OH278442   1.597   2.736   5.061 -0.0468 -0.2808  0.0562
18984TIP3    H178443   1.512   2.711   5.025 -0.4319 -0.0169  0.7864
18984TIP3    H278444   1.625   2.660   5.113 -1.3356  0.8472  2.4927
18985TIP3   OH278445   5.275   4.392  14.917 -0.4318 -0.0274 -0.3341
18985TIP3    H178446   5.191   4.355  14.943 -0.7913  1.4419  0.6075
18985TIP3    H278447   5.257   4.435  14.833 -0.5511  0.0483 -0.2694
18986TIP3   OH278448   1.670   5.072   2.155  0.1007 -0.4051 -0.7687
18986TIP3    H178449   1.653   4.994   2.207 -0.2563  0.7369  0.8875
18986TIP3    H278450   1.730   5.124   2.209 -1.1957  1.3297 -0.9494
18987TIP3   OH278451   0.684   3.789  15.583 -0.3590  0.1530 -0.2233
18987TIP3    H178452   0.602   3.821  15.620  1.4685  1.7605  2.6018
18987TIP3    H278453   0.711   3.717  15.640  0.8180  0.4691 -0.3591
18988TIP3   OH278454   2.624   4.088   5.177 -0.2127  0.0107  0.2652
18988TIP3    H178455   2.636   4.123   5.265 -1.4331 -2.2638  1.3586
18988TIP3    H278456   2.710   4.055   5.152 -0.1647 -0.5142  1.1233
18989TIP3   OH278457   2.635   4.896  13.796  0.2218 -0.0990  0.1970
18989TIP3    H178458   2.641   4.844  13.875 -0.7131  0.7803  0.8509
18989TIP3    H278459   2.546   4.930  13.795  0.0849 -0.4731 -1.4704
18990TIP3   OH278460   3.254   5.867   2.831 -0.0333  0.2253  0.6673
18990TIP3    H178461   3.161   5.865   2.857 -0.6093  0.2679 -1.3172
18990TIP3    H278462   3.291   5.940   2.880 -1.8860  2.5000 -1.1547
18991TIP3   OH278463   3.242   3.445   3.182  0.1032 -1.0455  0.3619
18991TIP3    H178464   3.336   3.439   3.167  0.6070  1.7334  2.0991
18991TIP3    H278465   3.205   3.468   3.097  1.2282 -0.1679  0.1024
18992TIP3   OH278466   0.351   3.322  16.916 -0.0406 -0.4845  0.7790
18992TIP3    H178467   0.266   3.338  16.958  0.4382  2.2173  0.8165
18992TIP3    H278468   0.403   3.399  16.938  1.5714 -0.8999 -1.4280
18993TIP3   OH278469   6.425   2.642   0.012 -0.1218 -0.5654 -0.0844
18993TIP3    H178470   6.376   2.576  -0.038  0.5466 -1.4774  0.4531
18993TIP3    H278471   6.366   2.717   0.016 -1.1212 -1.3290 -0.2272
18994TIP3   OH278472   5.276   3.578  12.166 -0.4288 -0.0285  0.0333
18994TIP3    H178473   5.327   3.654  12.193  1.1468 -0.8978 -0.4512
18994TIP3    H278474   5.264   3.528  12.246 -1.5998  0.7785  0.3836
18995TIP3   OH278475   4.547   5.397   4.847  0.0226  0.0735 -0.3385
18995TIP3    H178476   4.620   5.456   4.825 -1.2703  2.5157  1.6457
18995TIP3    H278477   4.473   5.430   4.797 -0.6062 -0.1322  0.4321
18996TIP3   OH278478   3.154   1.407  10.788  0.3580  0.5175 -0.1541
18996TIP3    H178479   3.095   1.445  10.723  2.0574  4.3177  0.4527
18996TIP3    H278480   3.104   1.408  10.870 -0.0761  0.1257 -0.4070
18997TIP3   OH278481   2.265   5.600  12.803  0.6528 -0.8500 -0.2220
18997TIP3    H178482   2.355   5.620  12.777  1.1215 -1.9440  0.5339
18997TIP3    H278483   2.268   5.509  12.832 -0.5004 -0.5899  0.7533
18998TIP3   OH278484   0.406   5.402   0.448  0.7092  0.9631 -0.0409
18998TIP3    H178485   0.468   5.385   0.519  1.0793  0.0956 -0.5754
18998TIP3    H278486   0.333   5.447   0.491  0.3348 -0.7422  1.1362
18999TIP3   OH278487   6.594   3.776  11.574 -0.3457  0.4231  0.4912
18999TIP3    H178488   6.506   3.740  11.585 -0.6961  1.7831  2.5798
18999TIP3    H278489   6.633   3.769  11.661  1.0287  1.3200 -0.0386
19000TIP3   OH278490   2.829   3.552   4.582  0.0504  0.2926  0.1042
19000TIP3    H178491   2.839   3.577   4.674 -2.0598  0.4678  0.3016
19000TIP3    H278492   2.857   3.630   4.534  0.3173  0.5189  0.6176
19001TIP3   OH278493   1.237   5.640  12.279 -0.2128 -0.1867 -0.0414
19001TIP3    H178494   1.305   5.573  12.282  0.3931  0.3207 -1.7774
19001TIP3    H278495   1.164   5.602  12.329  0.6713 -1.5064  0.2711
19002TIP3   OH278496   6.650   0.214  16.916 -0.0516 -0.5761  0.2293
19002TIP3    H178497   6.729   0.162  16.906 -0.4079 -0.6816 -2.5000
19002TIP3    H278498   6.680   0.305  16.913 -0.1071 -0.5945 -2.1714
19003TIP3   OH278499   6.645   6.659  16.866  0.2302  0.0328 -0.4801
19003TIP3    H178500   6.617   6.705  16.788 -1.1426 -0.1242 -0.0960
19003TIP3    H278501   6.623   6.567  16.849  0.1725 -0.0398 -0.0197
19004TIP3   OH278502   0.496   3.233  13.747  0.2018 -0.6223 -0.3893
19004TIP3    H178503   0.515   3.218  13.655  1.8325 -2.1169  0.1646
19004TIP3    H278504   0.419   3.178  13.765 -0.6061  0.2762 -1.0173
19005TIP3   OH278505   5.889   5.523  16.075 -0.2854  0.3584 -0.4097
19005TIP3    H178506   5.925   5.443  16.037  0.2911  0.5170 -0.1905
19005TIP3    H278507   5.851   5.495  16.159 -0.7460  0.1798 -0.6729
19006TIP3   OH278508   2.237   0.893  11.886  0.0661  0.2223 -0.0223
19006TIP3    H178509   2.172   0.939  11.939  1.5076  0.1504  1.8707
19006TIP3    H278510   2.186   0.853  11.815 -1.8509  0.7419  1.0249
19007TIP3   OH278511   0.228   0.964  15.367 -0.2059 -0.2459 -0.3900
19007TIP3    H178512   0.276   0.941  15.287 -0.6553 -2.7199  0.0315
19007TIP3    H278513   0.293   1.010  15.420  0.2328  0.9995 -1.9577
19008TIP3   OH278514   0.336   0.847  12.609  0.3860 -0.5311  0.5858
19008TIP3    H178515   0.391   0.887  12.542 -0.7416  0.9618  0.5220
19008TIP3    H278516   0.384   0.769  12.636  0.8430 -1.2085 -1.9976
19009TIP3   OH278517   1.950   6.235   5.796 -0.1612  0.0149 -0.4336
19009TIP3    H178518   2.039   6.272   5.791  0.7421 -1.7613  1.6869
19009TIP3    H278519   1.962   6.143   5.772 -1.3980 -0.3006  0.1737
19010TIP3   OH278520   6.814   6.437   5.808 -0.2239 -0.0602  0.2815
19010TIP3    H178521   6.866   6.495   5.863  0.7418  1.0326 -1.7211
19010TIP3    H278522   6.757   6.390   5.869 -0.9747  2.9400  1.9770
19011TIP3   OH278523   2.129   2.173  14.807 -0.3675 -0.2169 -0.2473
19011TIP3    H178524   2.143   2.081  14.826 -0.2660 -0.0386  0.5408
19011TIP3    H278525   2.148   2.218  14.889 -3.2269  0.2334  0.2209
19012TIP3   OH278526   5.116   4.311   0.041  0.2798  0.4437 -0.9255
19012TIP3    H178527   5.197   4.274   0.076  0.9023  2.1941 -0.4319
19012TIP3    H278528   5.122   4.298  -0.053  1.6205  1.4389 -0.9999
19013TIP3   OH278529   4.520   1.620  15.842  0.1536  0.0127 -0.7419
19013TIP3    H178530   4.602   1.665  15.820  1.2168 -1.6998 -0.3292
19013TIP3    H278531   4.502   1.565  15.766  0.4054 -1.0436 -0.0462
19014TIP3   OH278532   3.414   1.999  13.717 -0.2397  0.3897  0.3807
19014TIP3    H178533   3.350   1.928  13.725  0.3526 -0.0765  0.9962
19014TIP3    H278534   3.400   2.034  13.629 -0.5690 -0.4520  0.0995
19015TIP3   OH278535   0.123   3.357   5.549  0.1062 -0.1926  0.0992
19015TIP3    H178536   0.196   3.416   5.533  1.1377 -1.7529 -1.0352
19015TIP3    H278537   0.164   3.275   5.577 -1.1615 -1.3773 -1.4553
19016TIP3   OH278538   1.327   2.135   4.217 -0.4548  0.3388  0.1250
19016TIP3    H178539   1.241   2.104   4.190  0.6933 -1.6242 -1.4603
19016TIP3    H278540   1.334   2.223   4.179 -1.7876  0.5606  0.3739
19017TIP3   OH278541   3.587   3.725  11.990 -0.0722 -0.1723  0.1385
19017TIP3    H178542   3.578   3.775  11.910  1.7906 -1.5794 -1.0125
19017TIP3    H278543   3.562   3.785  12.060  0.4785  1.7944 -1.3218
19018TIP3   OH278544   6.783   5.400  15.183 -0.0116  0.1221 -0.0180
19018TIP3    H178545   6.703   5.417  15.232 -0.3521  0.5413 -0.6989
19018TIP3    H278546   6.765   5.436  15.095  1.0971  0.6697 -0.0339
19019TIP3   OH278547   3.380   1.466   4.391  0.2294 -0.5548 -0.1261
19019TIP3    H178548   3.340   1.407   4.329 -2.9366  0.6701  0.6436
19019TIP3    H278549   3.365   1.425   4.477  1.5702 -0.5956  0.0963
19020TIP3   OH278550   4.915   1.314  14.971  0.1839 -0.2844 -0.1144
19020TIP3    H178551   4.975   1.338  14.900 -0.5666 -1.2931 -1.1082
19020TIP3    H278552   4.844   1.377  14.964  0.3183 -0.1198  0.0083
19021TIP3   OH278553   1.811   5.106  14.312 -0.1649  1.1381 -0.0723
19021TIP3    H178554   1.886   5.166  14.315  1.3433 -0.7014 -0.2127
19021TIP3    H278555   1.850   5.019  14.311 -2.2502  0.1742 -2.3295
19022TIP3   OH278556   1.814   0.681  16.803  0.4986 -0.0315  0.2067
19022TIP3    H178557   1.870   0.621  16.853  0.3746  0.2195  0.6470
19022TIP3    H278558   1.776   0.626  16.735  1.3461 -0.1824 -0.1472
19023TIP3   OH278559   2.465   0.692  13.020  0.3237  0.4426  0.9029
19023TIP3    H178560   2.483   0.742  12.940 -1.2299 -2.2148 -1.1942
19023TIP3    H278561   2.523   0.616  13.015 -1.7500 -1.1904  0.8415
19024TIP3   OH278562   0.582   2.040  13.420 -0.4182 -0.4121  0.2537
19024TIP3    H178563   0.563   2.131  13.396  1.4730  0.3799  1.6843
19024TIP3    H278564   0.614   2.045  13.509 -0.1975 -2.5039  0.3151
19025TIP3   OH278565   3.465   3.979   1.329  0.3865  0.2318 -0.0808
19025TIP3    H178566   3.549   3.937   1.349  1.2413  2.3588  0.9373
19025TIP3    H278567   3.450   4.039   1.402 -1.1056  1.2239 -1.1783
19026TIP3   OH278568   4.983   0.612   4.426  0.3635 -0.4237 -0.5307
19026TIP3    H178569   4.912   0.601   4.362  0.8085  1.1800 -1.3246
19026TIP3    H278570   4.945   0.669   4.493  0.4764 -0.6496 -0.2772
19027TIP3   OH278571   1.282   3.136  14.493 -0.4411 -0.7062  0.2216
19027TIP3    H178572   1.214   3.069  14.491  0.2703 -1.4274 -0.1050
19027TIP3    H278573   1.337   3.116  14.417  0.3511 -0.3606  0.6964
19028TIP3   OH278574   3.429   5.876   4.460  0.2092  0.3143  0.2270
19028TIP3    H178575   3.443   5.967   4.487 -0.2931  0.8080 -1.1505
19028TIP3    H278576   3.362   5.844   4.522 -1.4879  1.6708 -0.8530
19029TIP3   OH278577   0.474   2.557   3.622 -0.5274 -0.0553 -0.2143
19029TIP3    H178578   0.514   2.613   3.557 -2.3700  3.0064  1.1601
19029TIP3    H278579   0.399   2.607   3.655 -0.6263 -2.1519  3.0791
19030TIP3   OH278580   0.654   4.363  15.902  0.0776 -0.0203 -0.1128
19030TIP3    H178581   0.563   4.365  15.872  0.2182  0.4281 -0.5193
19030TIP3    H278582   0.690   4.284  15.864 -0.3649 -0.6248  0.7081
19031TIP3   OH278583   1.548   4.379   2.633  0.0935 -0.5787 -1.0029
19031TIP3    H178584   1.509   4.343   2.712  0.8731 -1.6681 -1.0944
19031TIP3    H278585   1.489   4.449   2.606  0.0136  0.0457  0.7437
19032TIP3   OH278586   5.361   2.035  13.940 -0.3883 -0.3355  0.4398
19032TIP3    H178587   5.314   2.045  13.858 -0.5987 -0.9043  0.4926
19032TIP3    H278588   5.364   1.941  13.956  0.5943 -0.3000  0.5321
19033TIP3   OH278589   0.769   3.939   3.181 -0.2321 -0.2331  1.0148
19033TIP3    H178590   0.674   3.946   3.177 -0.1836 -0.3058 -0.4208
19033TIP3    H278591   0.800   4.030   3.183 -0.2379 -0.1664 -1.1730
19034TIP3   OH278592   2.884   0.272  15.240  0.1429 -0.0576  0.1354
19034TIP3    H178593   2.916   0.248  15.327  0.2768  0.1771  0.1509
19034TIP3    H278594   2.824   0.201  15.216 -1.8783  1.1325  1.4844
19035TIP3   OH278595   1.804   4.292  12.668 -0.3412  0.0575  0.5623
19035TIP3    H178596   1.790   4.302  12.762 -0.9513 -2.5360  0.8072
19035TIP3    H278597   1.728   4.241  12.639  2.1128 -3.1845 -0.4502
19036TIP3   OH278598   4.785   5.479  11.071 -0.1265  0.2666  0.9053
19036TIP3    H178599   4.859   5.441  11.118  0.0664  1.9105  1.9709
19036TIP3    H278600   4.815   5.486  10.981  0.6829  0.0919  1.1560
19037TIP3   OH278601   2.710   2.876   4.015 -0.9872 -0.3741  0.4544
19037TIP3    H178602   2.796   2.899   3.982 -1.1747  0.4428  0.5194
19037TIP3    H278603   2.700   2.783   3.996 -0.1975 -0.4090  0.2231
19038TIP3   OH278604   2.926   5.916  11.550  1.1561  0.0676  0.5857
19038TIP3    H178605   2.838   5.895  11.578  1.1023 -1.0144 -0.3666
19038TIP3    H278606   2.966   5.832  11.528  1.2315  0.8039 -2.3957
19039TIP3   OH278607   5.416   4.194  16.063 -0.0188  0.4397 -0.0721
19039TIP3    H178608   5.329   4.193  16.022  1.3678  1.7308 -3.2341
19039TIP3    H278609   5.457   4.273  16.028  2.0169  0.4826  2.3300
19040TIP3   OH278610   0.492   4.145   2.803  0.1752 -0.0549 -0.2410
19040TIP3    H178611   0.502   4.104   2.717 -0.2788  1.1220 -0.8737
19040TIP3    H278612   0.546   4.224   2.798 -1.0287  0.7949  0.0202
19041TIP3   OH278613   5.049   3.169   3.890  0.1838  0.1598 -0.3241
19041TIP3    H178614   5.075   3.087   3.847 -0.1797 -0.0683 -0.1203
19041TIP3    H278615   5.042   3.145   3.983 -0.7798  0.1999 -0.3781
19042TIP3   OH278616   1.695   0.629   6.494 -0.2305 -0.2520 -0.1983
19042TIP3    H178617   1.682   0.550   6.547 -0.1341  0.0824  0.3304
19042TIP3    H278618   1.627   0.625   6.427  0.9027 -1.7138 -1.2970
19043TIP3   OH278619   2.887   1.840   1.151 -0.0398 -0.1649 -0.1532
19043TIP3    H178620   2.885   1.852   1.246 -0.9750 -0.9840 -0.0638
19043TIP3    H278621   2.803   1.873   1.120  0.3721  0.3615 -0.7323
19044TIP3   OH278622   5.340   1.711  15.434 -0.2126  0.1605  0.0536
19044TIP3    H178623   5.286   1.733  15.510  1.1312  2.8340  0.3274
19044TIP3    H278624   5.430   1.730  15.463  0.3111  1.2100 -2.1898
19045TIP3   OH278625   3.628   4.999  11.523  0.0386 -0.2001  0.0499
19045TIP3    H178626   3.670   5.084  11.513  1.0654 -0.7223 -0.1587
19045TIP3    H278627   3.698   4.941  11.555 -0.4886 -1.1113 -0.4262
19046TIP3   OH278628   2.292   1.290   5.354 -0.0857 -0.1846 -0.5592
19046TIP3    H178629   2.358   1.358   5.370  0.9271 -1.6025  1.6085
19046TIP3    H278630   2.221   1.311   5.414  1.2128 -2.2527  1.8093
19047TIP3   OH278631   6.760   1.124   5.356  0.0506  0.3052  0.2956
19047TIP3    H178632   6.704   1.088   5.425  0.1593  0.8919  0.6883
19047TIP3    H278633   6.842   1.143   5.400  0.2549  0.3060 -0.0864
19048TIP3   OH278634   3.049   5.696  10.741  0.0180  0.4065 -0.2291
19048TIP3    H178635   3.031   5.731  10.653  1.1035  1.9686  0.1468
19048TIP3    H278636   3.144   5.683  10.743  0.1237  1.2194  0.9858
19049TIP3   OH278637   2.932   3.514   4.127 -0.1748  0.4002  0.4858
19049TIP3    H178638   3.004   3.535   4.186 -0.4425 -1.3617  1.4634
19049TIP3    H278639   2.901   3.600   4.096  1.6173  1.2169  0.8914
19050TIP3   OH278640   5.568   1.642  16.542 -0.2298 -0.1353  0.2549
19050TIP3    H178641   5.494   1.639  16.603 -0.8075  0.7737 -0.3781
19050TIP3    H278642   5.536   1.597  16.464  0.4021 -1.0213  0.4925
19051TIP3   OH278643   1.053   6.175   4.203  0.6688  0.0523  0.6762
19051TIP3    H178644   1.068   6.267   4.225  0.0502  0.5024 -0.7214
19051TIP3    H278645   1.048   6.131   4.288  1.3516  1.2369  1.3555
19052TIP3   OH278646   4.378   2.071   6.353  0.4584 -0.3382 -0.1343
19052TIP3    H178647   4.416   2.153   6.321  2.1965  0.0282  2.7245
19052TIP3    H278648   4.453   2.022   6.387 -0.9445 -1.9183  0.7265
19053TIP3   OH278649   2.070   2.675   0.712  0.0500 -0.0219  0.1628
19053TIP3    H178650   2.016   2.623   0.772 -1.4267 -0.4371 -1.4891
19053TIP3    H278651   2.010   2.702   0.642  2.1028 -1.1359 -2.1226
19054TIP3   OH278652   0.776   4.415  13.245  0.7077  0.4329  0.5201
19054TIP3    H178653   0.767   4.328  13.207 -0.4712  0.4668  0.6973
19054TIP3    H278654   0.869   4.436  13.235  1.0780 -0.9893  0.8104
19055TIP3   OH278655   1.977   3.367   3.964  0.8783 -0.3184 -0.4950
19055TIP3    H178656   1.967   3.276   3.935  1.2304 -0.0116 -1.6162
19055TIP3    H278657   1.890   3.391   3.997  0.6702 -0.9265 -0.5878
19056TIP3   OH278658   3.941   2.539  15.468  0.4129 -0.0404 -0.7285
19056TIP3    H178659   4.007   2.560  15.535  1.9979 -0.4536 -2.1410
19056TIP3    H278660   3.905   2.624  15.443  0.6538  0.2217 -0.1968
19057TIP3   OH278661   1.271   5.698   4.702  0.6535  0.0597 -0.1482
19057TIP3    H178662   1.290   5.622   4.646 -1.2775  1.6341 -3.0719
19057TIP3    H278663   1.214   5.663   4.770  2.0650 -1.6772  0.1978
19058TIP3   OH278664   3.604   1.544  14.375  0.7318  0.2045  0.0394
19058TIP3    H178665   3.543   1.528  14.303  2.1429  0.1257 -1.1816
19058TIP3    H278666   3.549   1.555  14.452 -0.8021  0.0013 -1.0078
19059TIP3   OH278667   0.686   4.839  11.427 -0.4100 -0.0977 -0.2485
19059TIP3    H178668   0.655   4.890  11.352 -0.4944  0.2706  0.0348
19059TIP3    H278669   0.780   4.831  11.413 -0.5069 -0.5029 -0.6788
19060TIP3   OH278670   2.807   2.822  16.752 -0.7827 -0.6197  0.2726
19060TIP3    H178671   2.896   2.802  16.722 -0.7697  1.6264 -1.3295
19060TIP3    H278672   2.751   2.792  16.680 -0.9304  2.6015 -1.0130
19061TIP3   OH278673   3.010   0.860  12.741  0.1102  0.0193  0.6630
19061TIP3    H178674   2.948   0.919  12.785 -0.1255  0.4814 -0.2699
19061TIP3    H278675   3.068   0.829  12.811 -2.1147 -1.6406  1.8381
19062TIP3   OH278676   3.765   0.735   3.567  0.4585 -0.3319  0.3552
19062TIP3    H178677   3.738   0.782   3.488  0.1495  0.2432  0.7958
19062TIP3    H278678   3.860   0.738   3.565  0.4496 -0.1633  0.0904
19063TIP3   OH278679   4.989   2.080   5.655  0.2000 -0.1441 -0.1225
19063TIP3    H178680   4.914   2.120   5.699  0.6307 -2.0462  2.4924
19063TIP3    H278681   4.950   2.026   5.586 -0.8494 -0.6689  0.8453
19064TIP3   OH278682   3.679   5.383  11.796 -0.6004  0.2921  0.3111
19064TIP3    H178683   3.731   5.434  11.734  0.1457 -0.6124  0.1641
19064TIP3    H278684   3.732   5.381  11.876  1.1124 -3.2061 -0.7912
19065TIP3   OH278685   1.693   1.305   3.900 -0.1399  0.0762 -0.5170
19065TIP3    H178686   1.662   1.393   3.880  0.2154  0.2506 -0.2924
19065TIP3    H278687   1.616   1.249   3.885 -0.6968  0.5651  0.4813
19066TIP3   OH278688   0.577   5.558  16.781 -0.1490 -0.4222 -0.2218
19066TIP3    H178689   0.603   5.534  16.870  1.5272 -1.4610 -0.9753
19066TIP3    H278690   0.596   5.652  16.776  0.4275 -0.5056  0.2870
19067TIP3   OH278691   2.375   4.353  14.945 -0.7611 -0.0598 -0.1044
19067TIP3    H178692   2.390   4.346  15.039  2.4140  0.3690 -0.5135
19067TIP3    H278693   2.325   4.434  14.934  0.5956  0.9646  1.0732
19068TIP3   OH278694   2.424   6.536  12.344  0.3758  0.0651  0.2634
19068TIP3    H178695   2.497   6.597  12.338  0.7532 -0.6288 -2.5607
19068TIP3    H278696   2.465   6.450  12.351 -0.1766 -0.2834 -0.7857
19069TIP3   OH278697   2.730   1.008   3.707 -0.1925 -0.2059  0.1485
19069TIP3    H178698   2.641   1.017   3.672  0.5924  0.5111 -1.7466
19069TIP3    H278699   2.776   1.084   3.673  0.7571  0.2350  2.4005
19070TIP3   OH278700   1.304   0.989   2.821 -0.2163 -0.4400  0.6373
19070TIP3    H178701   1.290   0.965   2.730 -2.4155 -0.2546  0.9011
19070TIP3    H278702   1.280   0.911   2.871  0.2069 -0.2867  1.0861
19071TIP3   OH278703   2.834   2.861   0.702  0.2622  0.2083 -0.1228
19071TIP3    H178704   2.756   2.855   0.647  1.0976 -1.5509 -1.1961
19071TIP3    H278705   2.810   2.818   0.784 -0.5831  1.6727  0.4058
19072TIP3   OH278706   5.508   1.861   2.633  0.4923  0.1496  0.2643
19072TIP3    H178707   5.578   1.804   2.600 -0.2874 -0.2474 -0.7278
19072TIP3    H278708   5.458   1.885   2.555 -2.0286 -1.6525  1.2739
19073TIP3   OH278709   2.458   0.058   0.938  0.3364 -0.0042  0.3885
19073TIP3    H178710   2.525   0.001   0.901 -0.3117 -1.1472  0.9243
19073TIP3    H278711   2.456   0.036   1.032  0.7787  1.6297  0.7929
19074TIP3   OH278712   1.435   1.389  10.674 -0.4246  0.0368  0.1851
19074TIP3    H178713   1.362   1.376  10.734 -0.6171 -1.7638 -0.3963
19074TIP3    H278714   1.396   1.383  10.587  0.5488 -1.9816 -0.1421
19075TIP3   OH278715   3.034   6.634  13.991  0.2044  0.0123  0.4324
19075TIP3    H178716   3.044   6.672  14.078 -2.8504 -0.3845  1.0024
19075TIP3    H278717   3.032   6.539  14.006  0.3109 -0.0853 -0.1307
19076TIP3   OH278718   6.350   4.539  11.840 -0.4658  0.1039  0.3478
19076TIP3    H178719   6.417   4.545  11.771 -0.7023  2.2968  0.2728
19076TIP3    H278720   6.267   4.539  11.793 -0.5767 -0.1765  0.5474
19077TIP3   OH278721   6.458   0.615   4.452  0.6074  0.1753  0.0657
19077TIP3    H178722   6.366   0.612   4.426  0.8393  1.3628 -0.9827
19077TIP3    H278723   6.457   0.644   4.543 -0.1244 -1.6622  0.6619
19078TIP3   OH278724   5.486   2.916  14.235  0.1440  0.1778  0.2445
19078TIP3    H178725   5.573   2.952  14.256  0.0495  1.5097 -1.5127
19078TIP3    H278726   5.504   2.846  14.172 -0.0617  0.7272 -0.4388
19079TIP3   OH278727   4.778   2.215  12.454  0.1025  0.1326 -0.1917
19079TIP3    H178728   4.845   2.265  12.501  0.6299  0.0942 -0.8897
19079TIP3    H278729   4.695   2.251  12.485  0.4706  1.1171 -0.3311
19080TIP3   OH278730   6.233   1.498   5.223 -0.6788 -0.0635  0.1221
19080TIP3    H178731   6.201   1.438   5.156 -1.8059 -2.6948  2.8794
19080TIP3    H278732   6.240   1.582   5.179 -0.5296 -1.8602 -3.4972
19081TIP3   OH278733   6.551   3.240   0.518 -0.3691 -0.1351 -0.5606
19081TIP3    H178734   6.489   3.168   0.506 -0.7653  0.0813  0.1310
19081TIP3    H278735   6.636   3.203   0.496 -0.6353 -0.6738 -0.6855
19082TIP3   OH278736   0.110   5.777   2.749  0.2631 -0.3634 -0.0960
19082TIP3    H178737   0.073   5.850   2.699 -2.3710 -1.0487  0.7433
19082TIP3    H278738   0.135   5.816   2.833  1.9079  0.1929 -0.8268
19083TIP3   OH278739   1.635   2.375  12.976 -0.6362  0.0555  0.0380
19083TIP3    H178740   1.724   2.380  13.009 -0.3172 -1.6989 -0.4645
19083TIP3    H278741   1.641   2.400  12.884 -0.6438 -0.1701 -0.0240
19084TIP3   OH278742   4.398   2.079  16.072 -0.4789 -0.5471  0.4994
19084TIP3    H178743   4.340   2.029  16.014 -0.4531 -0.5083  0.4393
19084TIP3    H278744   4.391   2.035  16.157 -1.6920  0.3053  0.8539
19085TIP3   OH278745   5.118   2.576   4.116 -0.4798 -0.4698  0.0062
19085TIP3    H178746   5.036   2.614   4.147 -1.0682 -3.0545  1.7758
19085TIP3    H278747   5.183   2.644   4.132 -1.8556  0.6671  0.9473
19086TIP3   OH278748   4.788   1.911  10.930  0.1310 -0.0483 -0.0972
19086TIP3    H178749   4.764   1.976  10.863 -0.9831 -1.8655 -1.4873
19086TIP3    H278750   4.715   1.850  10.932  1.1377 -1.2479  1.2402
19087TIP3   OH278751   4.008   1.686  15.683 -0.2176  0.1229  0.0997
19087TIP3    H178752   3.986   1.779  15.676 -1.1651 -0.0249  1.0441
19087TIP3    H278753   3.926   1.644  15.709  0.9054 -0.6018  2.5642
19088TIP3   OH278754   5.526   3.080   0.958  0.3932  0.3482 -0.1798
19088TIP3    H178755   5.588   3.071   1.030  0.9780 -0.6069 -0.8020
19088TIP3    H278756   5.565   3.146   0.900  2.1921 -2.1884 -1.9567
19089TIP3   OH278757   2.236   3.574  16.827 -0.4195 -0.4371  0.1775
19089TIP3    H178758   2.150   3.545  16.797 -0.2636  2.2448 -3.2272
19089TIP3    H278759   2.298   3.523  16.774  0.1331 -2.0239  2.2857
19090TIP3   OH278760   0.504   5.103   1.889  0.2937 -0.0140  0.2417
19090TIP3    H178761   0.585   5.151   1.872 -0.0796  0.8750  0.9851
19090TIP3    H278762   0.447   5.125   1.815 -0.2943  1.6068  1.1570
19091TIP3   OH278763   0.403   4.103   1.285  0.1585  0.2937  0.4935
19091TIP3    H178764   0.408   4.193   1.318 -1.3563  0.7082 -0.3267
19091TIP3    H278765   0.359   4.055   1.355  2.4078 -0.1712  1.6038
19092TIP3   OH278766   1.703   1.826  11.351 -0.5874  0.4548  0.4966
19092TIP3    H178767   1.615   1.816  11.388 -0.2052  0.1322  1.3184
19092TIP3    H278768   1.722   1.741  11.311 -1.0660  0.8529 -0.6141
19093TIP3   OH278769   2.904   6.445   5.009  0.0470 -0.5591  0.2615
19093TIP3    H178770   2.830   6.476   4.957  0.6389 -0.4667 -0.5397
19093TIP3    H278771   2.865   6.390   5.076 -0.7403 -0.5812 -0.2085
19094TIP3   OH278772   1.276   2.616   0.453 -0.1792  0.0829  0.1433
19094TIP3    H178773   1.279   2.576   0.366  1.5313 -1.2326  0.7848
19094TIP3    H278774   1.327   2.697   0.443 -0.6542  0.3350 -0.2700
19095TIP3   OH278775   5.775   4.238  14.964 -0.3370 -0.0346  0.3406
19095TIP3    H178776   5.810   4.258  15.051 -0.9728  0.5331  0.4720
19095TIP3    H278777   5.683   4.265  14.969 -1.3565 -3.3131  0.6191
19096TIP3   OH278778   1.897   1.029   3.245  0.0988  0.2353 -0.2563
19096TIP3    H178779   1.930   0.960   3.304 -0.4912 -0.0486 -0.2556
19096TIP3    H278780   1.826   1.070   3.294 -0.1168  0.2749 -0.6025
19097TIP3   OH278781   1.682   5.620  11.544  0.1939  0.1042  0.2703
19097TIP3    H178782   1.613   5.666  11.496 -0.0219  0.6532  1.0855
19097TIP3    H278783   1.758   5.677  11.537  0.5184 -0.4266 -0.4966
19098TIP3   OH278784   2.076   5.291   1.413  0.0849 -0.0212  0.4556
19098TIP3    H178785   2.019   5.233   1.362  1.1886  0.8769 -1.9184
19098TIP3    H278786   2.022   5.369   1.429 -0.0140  0.0212 -0.0720
19099TIP3   OH278787   2.870   4.019  16.497 -0.3088  0.3541 -0.1089
19099TIP3    H178788   2.932   4.074  16.546 -1.0697  0.3428  0.8844
19099TIP3    H278789   2.822   3.972  16.564 -0.0126 -1.1675 -0.9430
19100TIP3   OH278790   1.527   4.743   3.291 -0.7032 -0.2544 -0.6347
19100TIP3    H178791   1.586   4.815   3.273 -1.4292  0.3952 -0.4590
19100TIP3    H278792   1.536   4.727   3.385 -0.4505 -0.4784 -0.6960
19101TIP3   OH278793   2.788   2.972   4.483  0.6973 -0.1097  0.1325
19101TIP3    H178794   2.714   2.960   4.423  0.8657 -0.1611 -0.0643
19101TIP3    H278795   2.782   3.063   4.511 -1.0153 -0.8079  2.1800
19102TIP3   OH278796   6.187   1.861  12.547 -0.4838  0.3315 -0.7209
19102TIP3    H178797   6.143   1.777  12.557  1.7400 -0.7822  0.0708
19102TIP3    H278798   6.176   1.883  12.454 -1.1147 -0.7952 -0.9215
19103TIP3   OH278799   2.336   6.397  13.019  0.0361 -0.0487  0.1645
19103TIP3    H178800   2.310   6.358  13.102 -1.2895 -0.9331 -0.6534
19103TIP3    H278801   2.331   6.326  12.955 -1.8977  1.2867 -1.2434
19104TIP3   OH278802   4.777   0.500  16.753  0.8116 -0.0537  0.1536
19104TIP3    H178803   4.696   0.460  16.720  1.6750 -1.6935  0.0129
19104TIP3    H278804   4.798   0.567  16.687 -0.2087  0.1195 -0.0161
19105TIP3   OH278805   2.543   2.873  13.848 -0.1815  0.3321 -0.0889
19105TIP3    H178806   2.457   2.837  13.866 -1.0935  2.0929 -0.8173
19105TIP3    H278807   2.571   2.913  13.930  1.0415 -2.3296  0.8655
19106TIP3   OH278808   3.675   4.552   2.631  0.4328  0.2498 -1.1205
19106TIP3    H178809   3.673   4.461   2.602  0.1043  0.0721 -0.5601
19106TIP3    H278810   3.655   4.603   2.553 -1.2608 -0.2592 -1.0420
19107TIP3   OH278811   0.309   4.157  16.839 -0.0858  0.0259  0.0277
19107TIP3    H178812   0.387   4.107  16.815 -0.9400 -1.6175  0.5964
19107TIP3    H278813   0.333   4.201  16.921 -0.5442 -2.4644  1.5629
19108TIP3   OH278814   0.625   1.287  16.202  0.6088  0.2106 -0.1431
19108TIP3    H178815   0.580   1.272  16.119 -1.8287 -3.4425  1.6873
19108TIP3    H278816   0.579   1.362  16.241  0.7831  0.9711 -1.3738
19109TIP3   OH278817   6.186   2.356   5.005  0.1321  0.0024  0.2976
19109TIP3    H178818   6.093   2.368   4.985  0.1159 -0.2894  0.1975
19109TIP3    H278819   6.212   2.439   5.046 -0.1213  0.1599  0.1397
19110TIP3   OH278820   2.139   0.435  12.930  0.6101  0.3854  0.1975
19110TIP3    H178821   2.115   0.527  12.926  1.8090  0.7298  0.7764
19110TIP3    H278822   2.232   0.433  12.910  0.5914 -0.7021  0.1707
19111TIP3   OH278823   4.129   1.867  15.485 -0.4083 -0.5250  0.2077
19111TIP3    H178824   4.054   1.807  15.479  1.5320 -2.9064 -0.7401
19111TIP3    H278825   4.176   1.839  15.563  1.4616 -1.3968 -1.1962
19112TIP3   OH278826   6.542   3.529  15.228  0.0666  0.2565 -0.5054
19112TIP3    H178827   6.563   3.603  15.285 -3.0730 -0.6814  2.0455
19112TIP3    H278828   6.460   3.554  15.186 -0.3394 -1.2428 -0.6153
19113TIP3   OH278829   6.270   0.306  16.583  0.2252  0.1616  0.3594
19113TIP3    H178830   6.242   0.396  16.567 -1.2572 -0.4098 -0.3440
19113TIP3    H278831   6.196   0.266  16.629 -0.1246 -1.3576 -1.4749
19114TIP3   OH278832   2.470   1.120  13.884  0.5331  0.5039 -0.1902
19114TIP3    H178833   2.396   1.160  13.930  0.3991  1.3759 -1.1367
19114TIP3    H278834   2.482   1.175  13.807  1.0711 -0.6459 -0.9380
19115TIP3   OH278835   4.484   3.517   5.699  0.1119 -0.0382  0.0216
19115TIP3    H178836   4.572   3.482   5.687  0.2354  0.6286 -1.0610
19115TIP3    H278837   4.426   3.450   5.662  0.3605  0.9740 -2.2466
19116TIP3   OH278838   1.729   1.486  17.081  0.3989  0.1941 -0.1957
19116TIP3    H178839   1.710   1.527  16.997  0.4546  0.2729 -0.1685
19116TIP3    H278840   1.643   1.464  17.117  0.4064 -0.9075 -0.8015
19117TIP3   OH278841   3.244   1.199   0.099 -0.0055 -0.1180  0.3981
19117TIP3    H178842   3.282   1.216   0.013  2.2039  2.2391  1.7950
19117TIP3    H278843   3.151   1.181   0.081  0.6890 -1.0304 -2.5667
19118TIP3   OH278844   1.738   4.334  10.586 -0.2408 -0.0662 -0.4385
19118TIP3    H178845   1.794   4.382  10.646 -0.6088 -1.1639  0.8169
19118TIP3    H278846   1.774   4.352  10.499  0.8729  0.7777  0.1915
19119TIP3   OH278847   1.401   0.401   4.401 -0.2721 -0.5809 -0.8278
19119TIP3    H178848   1.474   0.462   4.394  0.0716 -0.7813  0.7946
19119TIP3    H278849   1.366   0.414   4.489 -1.4931 -1.2758 -1.1868
19120TIP3   OH278850   0.999   1.979  12.932 -0.5092  0.1884 -0.2329
19120TIP3    H178851   0.924   1.940  12.978 -2.1265  1.0345 -2.0465
19120TIP3    H278852   1.028   2.050  12.989 -1.4113  0.1707  0.2645
19121TIP3   OH278853   4.894   5.533   0.961  0.9875  0.1576  0.1412
19121TIP3    H178854   4.925   5.450   0.926 -2.3738 -1.0260 -0.2289
19121TIP3    H278855   4.911   5.527   1.055  2.7567  0.0188 -0.1637
19122TIP3   OH278856   5.629   4.260  12.165 -0.3236 -0.3938  0.2956
19122TIP3    H178857   5.582   4.337  12.133 -2.0812 -2.0747 -1.3285
19122TIP3    H278858   5.712   4.294  12.197 -0.4286  1.9866 -1.8086
19123TIP3   OH278859   3.256   3.036   5.936 -0.5476  0.5606 -0.5078
19123TIP3    H178860   3.322   2.997   5.993  0.3193  1.9073 -0.5808
19123TIP3    H278861   3.172   3.007   5.973  0.0297  0.5295  0.7880
19124TIP3   OH278862   5.347   4.604   0.218  0.3351 -0.3204 -0.1584
19124TIP3    H178863   5.347   4.699   0.214 -0.3230 -0.3397 -0.6791
19124TIP3    H278864   5.258   4.580   0.243  0.6874 -0.7724  0.6683
19125TIP3   OH278865   3.497   0.331   0.000  0.1027  0.4358 -0.6356
19125TIP3    H178866   3.552   0.377  -0.063  1.2901 -0.2393 -0.1082
19125TIP3    H278867   3.479   0.396   0.068 -0.8164  1.0323 -1.4251
19126TIP3   OH278868   5.846   5.374   6.637 -0.9328 -0.3418 -0.0595
19126TIP3    H178869   5.889   5.322   6.705 -0.8994  1.0207  0.9818
19126TIP3    H278870   5.900   5.452   6.628 -1.3657 -0.1478 -1.1015
19127TIP3   OH278871   2.062   1.682   6.004  0.0030  0.3371 -0.0467
19127TIP3    H178872   2.088   1.604   6.053 -1.2597 -1.2240 -1.8294
19127TIP3    H278873   2.004   1.729   6.064  0.5286 -0.2414  0.9290
19128TIP3   OH278874   2.200   3.036   0.537 -0.0848  0.2195 -0.1298
19128TIP3    H178875   2.142   3.111   0.549 -1.0491 -0.4540 -0.5374
19128TIP3    H278876   2.222   3.009   0.626 -1.0702 -0.0456  0.0309
19129TIP3   OH278877   6.195   2.742  14.077 -0.4752 -0.1948  0.2883
19129TIP3    H178878   6.168   2.668  14.131 -0.4528 -0.8954 -0.6573
19129TIP3    H278879   6.168   2.819  14.127 -2.2702 -0.8577  0.3857
19130TIP3   OH278880   0.084   4.711   0.877  0.5215  0.3620  0.3995
19130TIP3    H178881   0.035   4.631   0.894  2.2571 -0.7340  0.3158
19130TIP3    H278882   0.166   4.701   0.925  1.0823  1.7515 -0.2261
19131TIP3   OH278883   0.775   1.046   5.964  0.2579  0.5178  0.5381
19131TIP3    H178884   0.724   1.043   5.883 -0.3542  2.2861  0.8304
19131TIP3    H278885   0.732   0.982   6.021 -0.1665  0.2694 -0.0479
19132TIP3   OH278886   2.378   1.760  11.668  0.4729 -0.4677  0.3708
19132TIP3    H178887   2.458   1.813  11.677  0.4499 -0.5305  0.9962
19132TIP3    H278888   2.383   1.723  11.580  0.7815  0.1068  0.1447
19133TIP3   OH278889   3.509   3.523   2.971  0.2922 -0.0860  0.0334
19133TIP3    H178890   3.550   3.470   3.040  1.0189 -1.7116 -1.6061
19133TIP3    H278891   3.578   3.534   2.905  0.3659  3.5178  0.6161
19134TIP3   OH278892   5.113   5.048   5.079  0.5602  0.4332  0.1196
19134TIP3    H178893   5.086   4.969   5.033  0.9132  0.4175 -0.0636
19134TIP3    H278894   5.186   5.021   5.135 -0.1226  0.3694  0.9940
19135TIP3   OH278895   5.336   4.366   2.249  0.2643 -0.0312  0.6691
19135TIP3    H178896   5.252   4.321   2.261  0.8359 -1.6175 -0.9645
19135TIP3    H278897   5.342   4.426   2.323 -0.6452 -2.5151  2.8405
19136TIP3   OH278898   0.347   0.661  16.359  0.3481  0.5751 -0.6299
19136TIP3    H178899   0.273   0.662  16.297  0.9257 -0.1110 -1.3438
19136TIP3    H278900   0.322   0.596  16.425  1.6605 -2.0360 -2.5886
19137TIP3   OH278901   5.046   4.739   2.249 -0.2917 -0.0007 -0.0987
19137TIP3    H178902   5.092   4.666   2.208 -0.7738 -0.8930  0.9340
19137TIP3    H278903   4.957   4.735   2.212  0.2190  1.2270 -1.4786
19138TIP3   OH278904   0.494   5.160   1.453  0.1805 -0.2430  0.5888
19138TIP3    H178905   0.566   5.135   1.397 -1.3020 -4.0685  0.2706
19138TIP3    H278906   0.457   5.239   1.412 -0.4184 -2.5035 -3.4210
19139TIP3   OH278907   0.190   6.342   3.773  0.2074  0.3100 -0.1269
19139TIP3    H178908   0.133   6.348   3.850 -0.6030 -0.0905 -0.6801
19139TIP3    H278909   0.200   6.248   3.758 -0.9152  0.3780 -1.4153
19140TIP3   OH278910   2.554   0.410  14.901  0.2996 -0.0866  0.3179
19140TIP3    H178911   2.630   0.460  14.871  0.3944  0.5896  1.6336
19140TIP3    H278912   2.577   0.383  14.990 -0.4073 -1.1369  0.1991
19141TIP3   OH278913   0.146   6.223  14.967 -0.4376  0.7221 -0.0060
19141TIP3    H178914   0.172   6.173  15.045 -1.9541  1.0831  0.7484
19141TIP3    H278915   0.202   6.189  14.897  1.8082  1.2418  1.4926
19142TIP3   OH278916   4.887   5.322  10.480 -0.9143 -0.0310  0.0613
19142TIP3    H178917   4.938   5.355  10.554 -1.8949 -0.6647  1.0462
19142TIP3    H278918   4.796   5.343  10.503 -1.2448 -0.4268 -0.8686
19143TIP3   OH278919   4.467   6.458   6.911  0.4145  0.1738  0.2758
19143TIP3    H178920   4.477   6.387   6.848  0.9430 -0.1051  0.6781
19143TIP3    H278921   4.531   6.524   6.882  0.9186 -0.1110  0.7389
19144TIP3   OH278922   2.144   4.699  16.781 -0.5708 -0.2174 -0.1596
19144TIP3    H178923   2.116   4.673  16.869  0.5292  0.0945  0.2897
19144TIP3    H278924   2.150   4.794  16.785 -4.3443  0.1691 -1.7284
19145TIP3   OH278925   4.276   3.219   5.277  0.7163 -0.1017 -0.0422
19145TIP3    H178926   4.307   3.231   5.187  0.8460  1.1586  0.1572
19145TIP3    H278927   4.328   3.147   5.310  1.8041  0.4646 -0.4746
19146TIP3   OH278928   5.260   0.469   5.248 -0.4765  0.2983 -0.3397
19146TIP3    H178929   5.335   0.523   5.224 -0.4699 -0.1719 -1.4097
19146TIP3    H278930   5.296   0.382   5.260 -0.5721  0.4141  0.8825
19147TIP3   OH278931   1.513   5.577   3.840  0.0362 -0.2116  0.1873
19147TIP3    H178932   1.419   5.561   3.843 -0.0851  0.3793 -0.3224
19147TIP3    H278933   1.544   5.525   3.766 -0.3062  1.6063 -1.2622
19148TIP3   OH278934   1.421   3.245  15.698 -0.0796 -0.1457  0.4655
19148TIP3    H178935   1.501   3.196  15.718 -0.5298  0.3801  3.8195
19148TIP3    H278936   1.366   3.183  15.651  0.9484 -1.6011  1.1298
19149TIP3   OH278937   0.905   5.956  15.541 -0.2510  0.8160  0.8855
19149TIP3    H178938   0.866   6.043  15.533 -1.4060  0.2698  0.3993
19149TIP3    H278939   0.838   5.897  15.506  1.6926  0.0003 -1.5736
19150TIP3   OH278940   2.278   0.931   4.869  0.5328 -0.1115 -0.0184
19150TIP3    H178941   2.221   0.936   4.946 -0.3020  1.1268 -0.6915
19150TIP3    H278942   2.364   0.908   4.904 -0.3858 -2.0395  1.0047
19151TIP3   OH278943   6.694   3.266  14.025  0.6019  0.1501 -0.2907
19151TIP3    H178944   6.664   3.260  14.116 -1.6075  0.4265 -0.9539
19151TIP3    H278945   6.706   3.359  14.010 -0.2556  0.2117 -0.6346
19152TIP3   OH278946   1.163   4.968  15.488 -0.7546 -0.7751  0.6527
19152TIP3    H178947   1.072   4.986  15.466  0.5227  2.5327 -2.4519
19152TIP3    H278948   1.182   4.884  15.446 -0.9239  1.1849 -3.6322
19153TIP3   OH278949   1.245   5.495   3.755 -0.2776  0.3714 -0.0281
19153TIP3    H178950   1.159   5.482   3.794 -0.0763 -1.0912 -0.0648
19153TIP3    H278951   1.245   5.441   3.676  0.3194  1.1507 -0.5770
19154TIP3   OH278952   0.363   3.202  10.998 -0.3983 -0.2457  0.7980
19154TIP3    H178953   0.297   3.271  10.992 -1.3574 -1.2404 -0.2420
19154TIP3    H278954   0.324   3.127  10.952  1.8324 -0.5536 -0.6329
19155TIP3   OH278955   3.000   2.462  12.338  0.2829 -0.4975  0.0251
19155TIP3    H178956   3.000   2.448  12.433 -1.4278  0.9866  0.2498
19155TIP3    H278957   2.929   2.524  12.322  0.4952 -0.7955 -2.2477
19156TIP3   OH278958   6.090   3.058   4.686  0.0437  0.0063  0.1260
19156TIP3    H178959   6.101   3.117   4.611  0.0219 -1.4321 -1.0391
19156TIP3    H278960   6.176   3.019   4.699 -0.4371 -1.3211 -0.5204
19157TIP3   OH278961   0.497   2.760  14.296  0.3639 -0.0074  0.1405
19157TIP3    H178962   0.561   2.706  14.250 -0.3448 -0.7214 -0.0120
19157TIP3    H278963   0.458   2.701  14.361 -0.6586  0.2246 -0.2588
19158TIP3   OH278964   0.594   2.574  14.140  0.4090 -0.8851 -0.0351
19158TIP3    H178965   0.580   2.480  14.149  0.3052 -1.0049 -1.3147
19158TIP3    H278966   0.517   2.606  14.094  1.5766 -0.5974 -1.8617
19159TIP3   OH278967   5.161   0.196  12.725 -0.1675  0.2326 -0.3634
19159TIP3    H178968   5.204   0.252  12.660 -0.9496  0.4660 -0.6839
19159TIP3    H278969   5.077   0.174  12.685 -0.0633 -0.7860 -0.0316
19160TIP3   OH278970   2.218   1.738   1.919  0.2002  0.1652 -0.5986
19160TIP3    H178971   2.176   1.824   1.927  0.0170  0.0179  0.0721
19160TIP3    H278972   2.145   1.676   1.917  0.3553 -0.0237 -0.4012
19161TIP3   OH278973   3.456   0.809   4.687 -0.5714  0.2712 -0.1075
19161TIP3    H178974   3.371   0.811   4.731 -0.2337 -0.5861  0.5986
19161TIP3    H278975   3.453   0.730   4.633  0.3180 -0.6032  1.0675
19162TIP3   OH278976   2.189   0.699  13.007 -0.5255 -0.2620 -0.3536
19162TIP3    H178977   2.283   0.706  12.988 -0.5706 -0.3173 -0.5924
19162TIP3    H278978   2.185   0.647  13.088 -0.2569  1.1737  0.6090
19163TIP3   OH278979   1.593   6.641   3.561 -0.1043 -0.6849 -0.2615
19163TIP3    H178980   1.575   6.592   3.641  0.1153  0.7693  0.7075
19163TIP3    H278981   1.507   6.663   3.526 -0.2009 -0.8790 -0.1439
19164TIP3   OH278982   0.778   5.748   1.507 -1.0638  0.1518  0.0758
19164TIP3    H178983   0.699   5.718   1.462 -1.3974 -1.4955  1.7598
19164TIP3    H278984   0.818   5.669   1.541  0.3436  1.1795  0.8401
19165TIP3   OH278985   6.031   6.733  14.880  0.0375  0.0069 -0.2315
19165TIP3    H178986   5.982   6.797  14.828  0.2999 -0.5276 -1.1398
19165TIP3    H278987   5.970   6.660  14.891  0.1578 -0.0905 -0.2108
19166TIP3   OH278988   6.241   0.246   1.705  0.2409 -0.0497 -0.3031
19166TIP3    H178989   6.218   0.307   1.775  1.5338  0.3736 -0.2298
19166TIP3    H278990   6.259   0.163   1.750 -1.5649 -0.5119 -0.4076
19167TIP3   OH278991   6.312   0.293  14.850  0.4087  0.4679 -0.1966
19167TIP3    H178992   6.297   0.384  14.877  0.8611  0.2261  0.9201
19167TIP3    H278993   6.231   0.248  14.873  1.6069 -0.2182  3.0337
19168TIP3   OH278994   5.220   4.295  12.933  0.1011  0.3947  0.5615
19168TIP3    H178995   5.214   4.263  13.023 -1.7042  2.0365  1.0533
19168TIP3    H278996   5.273   4.374  12.938  1.0536 -0.2013 -0.0123
19169TIP3   OH278997   4.983   2.075   0.890  0.5232  0.3036 -0.5463
19169TIP3    H178998   4.891   2.086   0.864  0.2938 -0.9494 -0.3060
19169TIP3    H278999   4.987   2.114   0.978  0.0905 -0.1488 -0.3239
19170TIP3   OH279000   6.391   3.013   2.566 -0.3010  0.0151  0.1245
19170TIP3    H179001   6.347   2.978   2.488 -0.0541  0.7698 -0.3603
19170TIP3    H279002   6.471   3.053   2.533  0.3143 -0.5542  0.8969
19171TIP3   OH279003   5.828   3.370   1.210  0.5393 -0.1651  0.2366
19171TIP3    H179004   5.776   3.435   1.163  2.8377  2.6778  1.5042
19171TIP3    H279005   5.769   3.295   1.220 -1.7081  1.1699 -2.4824
19172TIP3   OH279006   5.598   0.842  14.554 -0.4762 -0.5109 -0.1366
19172TIP3    H179007   5.560   0.904  14.493 -0.4366 -0.0319  0.3222
19172TIP3    H279008   5.603   0.889  14.637  1.5922 -0.3624 -0.3009
19173TIP3   OH279009   6.373   1.420   2.088 -0.5825 -0.3171  0.5575
19173TIP3    H179010   6.301   1.429   2.150 -0.8242  2.1399 -0.0118
19173TIP3    H279011   6.412   1.336   2.108 -3.9383 -1.9607  0.5438
19174TIP3   OH279012   6.242   4.882  14.792 -0.1144 -0.2848  0.0441
19174TIP3    H179013   6.179   4.954  14.796 -0.2696 -0.3582 -0.9214
19174TIP3    H279014   6.201   4.812  14.844 -0.6202 -0.1667 -0.1885
19175TIP3   OH279015   4.845   1.677  12.438 -0.2249 -0.3770 -0.2260
19175TIP3    H179016   4.931   1.645  12.464 -0.0997 -0.0275 -0.2052
19175TIP3    H279017   4.847   1.771  12.457 -0.2485 -0.1807 -1.1575
19176TIP3   OH279018   4.198   3.839  12.304 -0.5825  0.2728  0.2408
19176TIP3    H179019   4.138   3.903  12.342 -1.0929  1.2259 -2.0401
19176TIP3    H279020   4.154   3.755  12.314 -1.6152  0.7761 -0.0714
19177TIP3   OH279021   2.568   5.948   3.172  0.2457  0.4073 -0.6316
19177TIP3    H179022   2.608   5.906   3.248 -0.4957 -1.2610 -1.1294
19177TIP3    H279023   2.539   5.875   3.117 -0.1351  1.5884 -2.0368
19178TIP3   OH279024   3.861   6.546  10.653  0.8875 -0.7598  0.5743
19178TIP3    H179025   3.819   6.460  10.644  1.0171 -0.7331 -0.3636
19178TIP3    H279026   3.938   6.540  10.597  1.4574 -0.3778  1.3139
19179TIP3   OH279027   5.430   5.580  14.812  0.0702  0.3519 -0.0835
19179TIP3    H179028   5.425   5.494  14.771  2.8450 -0.0267  0.3082
19179TIP3    H279029   5.345   5.591  14.855 -1.0186 -1.3450 -1.7442
19180TIP3   OH279030   0.622   5.370  16.190  0.2475  0.3856  0.0493
19180TIP3    H179031   0.596   5.459  16.215  0.0262  0.4376 -0.3595
19180TIP3    H279032   0.710   5.381  16.154 -0.4595  0.7140 -1.6280
19181TIP3   OH279033   5.640   0.077   2.599  0.4237  0.1091 -0.1364
19181TIP3    H179034   5.680   0.018   2.663  1.3546 -0.2848 -1.0801
19181TIP3    H279035   5.658   0.165   2.634  1.0321 -0.0978  0.0748
19182TIP3   OH279036   2.873   3.315  13.424 -0.2377  0.4471  0.0983
19182TIP3    H179037   2.779   3.304  13.434 -0.3331  0.1413 -1.0687
19182TIP3    H279038   2.911   3.272  13.501 -0.9723 -1.1548 -0.4030
19183TIP3   OH279039   4.969   6.028   1.041  0.3947  0.1069 -0.2611
19183TIP3    H179040   4.959   6.115   1.078  0.1768 -0.0931  0.1604
19183TIP3    H279041   4.981   5.971   1.117 -1.2110 -0.4621 -0.4020
19184TIP3   OH279042   2.409   0.325   1.061  0.0730 -0.6494  0.0611
19184TIP3    H179043   2.400   0.268   0.984  1.0780  0.8129 -1.1797
19184TIP3    H279044   2.501   0.316   1.086  0.4984  1.1716 -0.7708
19185TIP3   OH279045   0.226   0.460  11.296  0.3965 -0.5813 -0.4103
19185TIP3    H179046   0.307   0.462  11.245  1.7825 -1.8328  1.6656
19185TIP3    H279047   0.225   0.544  11.343  0.7207 -0.7354 -0.1221
19186TIP3   OH279048   1.017   2.555   5.566 -0.3073  0.0872  0.0814
19186TIP3    H179049   1.010   2.647   5.592 -0.4807 -0.2039  1.0822
19186TIP3    H279050   0.997   2.506   5.646 -0.1495 -0.8198 -0.4318
19187TIP3   OH279051   4.370   3.742   6.557  0.2495 -0.3214  0.0948
19187TIP3    H179052   4.452   3.737   6.605  1.4514 -0.2290 -1.8861
19187TIP3    H279053   4.329   3.823   6.586 -0.0142 -1.2636  2.4115
19188TIP3   OH279054   2.930   5.185  15.393  0.0629  0.2693 -0.3463
19188TIP3    H179055   2.949   5.123  15.323  1.7097 -0.4962  0.7403
19188TIP3    H279056   3.012   5.191  15.442 -0.7795  1.5291  0.9396
19189TIP3   OH279057   3.225   2.546  16.280  0.2824  0.1141 -0.1120
19189TIP3    H179058   3.268   2.517  16.360 -0.3268 -0.2097  0.0977
19189TIP3    H279059   3.132   2.545  16.300 -0.0453 -2.0400 -1.4765
19190TIP3   OH279060   0.389   3.510  11.699 -0.0953  0.2480  0.3972
19190TIP3    H179061   0.306   3.495  11.654  0.2796  0.0245 -0.2354
19190TIP3    H279062   0.364   3.545  11.785 -0.8522 -0.1701  0.3564
19191TIP3   OH279063   0.398   3.051  16.640  0.2835 -0.6527 -0.5374
19191TIP3    H179064   0.420   3.002  16.561  1.5215 -0.3442 -0.4084
19191TIP3    H279065   0.316   3.095  16.619 -0.2147 -1.8217 -1.0808
19192TIP3   OH279066   3.062   5.936  16.648 -0.0377 -0.3030 -0.0802
19192TIP3    H179067   3.152   5.963  16.635 -0.0532  0.3699  1.1584
19192TIP3    H279068   3.068   5.845  16.679  0.3147  0.4241  2.0036
19193TIP3   OH279069   1.056   2.928  15.503 -0.0819  0.5499 -0.7480
19193TIP3    H179070   1.033   2.893  15.416 -0.9501  0.0439 -0.3234
19193TIP3    H279071   0.972   2.938  15.547  0.4159  0.0729  0.3232
19194TIP3   OH279072   1.989   5.876  14.723 -0.3285  0.9650  0.1526
19194TIP3    H179073   2.072   5.881  14.677 -0.7796  2.6753 -0.5131
19194TIP3    H279074   1.924   5.904  14.659 -1.4834 -0.8057  0.5203
19195TIP3   OH279075   5.552   4.715   6.086  0.1141  0.1032  0.4197
19195TIP3    H179076   5.572   4.765   6.007 -1.3761  1.0476  0.6306
19195TIP3    H279077   5.507   4.637   6.054  0.3415  0.0341  0.2679
19196TIP3   OH279078   3.510   6.107  13.055  0.1337  0.0665  0.1064
19196TIP3    H179079   3.585   6.048  13.062 -0.4721 -0.8882 -1.3438
19196TIP3    H279080   3.452   6.080  13.126  0.2367 -0.5495 -0.0368
19197TIP3   OH279081   4.600   1.842   5.214 -0.4592 -0.1170  0.2388
19197TIP3    H179082   4.558   1.853   5.129  2.3639  1.8210 -0.9428
19197TIP3    H279083   4.580   1.922   5.262 -0.4457 -0.3966  0.7253
19198TIP3   OH279084   1.108   2.446   1.992  0.3086 -0.1137 -0.7488
19198TIP3    H179085   1.120   2.495   1.911 -1.3926 -0.3470 -1.1625
19198TIP3    H279086   1.070   2.363   1.964 -1.2710  0.2047  0.3478
19199TIP3   OH279087   6.385   1.584   2.446 -1.1599  0.3531 -0.7944
19199TIP3    H179088   6.416   1.512   2.502 -1.2060 -0.8548 -2.2755
19199TIP3    H279089   6.329   1.541   2.381  1.4134  1.2140 -3.7474
19200TIP3   OH279090   4.529   2.619   5.050  0.2755  0.6536 -0.2052
19200TIP3    H179091   4.514   2.603   4.957  1.6364  1.2346 -0.5495
19200TIP3    H279092   4.537   2.715   5.056 -3.2278  0.9055  1.0656
19201TIP3   OH279093   3.230   5.794   4.649  0.2591  0.1913  0.5191
19201TIP3    H179094   3.271   5.745   4.720  0.3522  2.1750  1.8734
19201TIP3    H279095   3.141   5.811   4.679 -0.3099 -0.5910 -0.6750
19202TIP3   OH279096   0.362   4.035  12.629  0.2100  0.3971 -0.7682
19202TIP3    H179097   0.443   4.079  12.655 -0.2005  1.2882 -0.9858
19202TIP3    H279098   0.362   4.037  12.534  0.0616  0.1532 -0.7751
19203TIP3   OH279099   2.095   2.423  11.786 -0.2621  0.0917 -0.2979
19203TIP3    H179100   2.111   2.400  11.878 -1.4112 -0.5748 -0.2545
19203TIP3    H279101   2.148   2.501  11.771  0.8852 -0.5070  0.5828
19204TIP3   OH279102   0.754   3.053   5.669  0.0164 -0.3159  0.1634
19204TIP3    H179103   0.718   2.977   5.713  0.0004 -0.6168 -0.3697
19204TIP3    H279104   0.782   3.021   5.583 -0.4638  0.3891 -0.2607
19205TIP3   OH279105   1.759   5.145   0.578  0.4573  0.5816 -0.0698
19205TIP3    H179106   1.683   5.201   0.593 -0.0980 -0.2774  0.3212
19205TIP3    H279107   1.751   5.075   0.643  1.5848  0.4843 -0.0148
19206TIP3   OH279108   3.261   3.894   3.587 -0.3298 -0.0512 -0.1994
19206TIP3    H179109   3.216   3.979   3.588  0.4439  0.3692 -1.0057
19206TIP3    H279110   3.201   3.836   3.540  0.2337  0.6591 -1.8118
19207TIP3   OH279111   0.223   3.010  12.532  0.0187  0.2407 -0.2806
19207TIP3    H179112   0.273   2.930  12.515 -2.1897 -1.0072 -1.0512
19207TIP3    H279113   0.279   3.061  12.591  0.4990 -2.8605  2.0717
19208TIP3   OH279114   2.612   3.514   2.221  0.1416  0.2023  0.0474
19208TIP3    H179115   2.675   3.577   2.185  0.3508  0.0860  0.2099
19208TIP3    H279116   2.660   3.469   2.291 -0.0413 -0.0623  0.0046
19209TIP3   OH279117   4.590   1.022   3.337 -0.3727  0.0273  0.0496
19209TIP3    H179118   4.682   1.030   3.361 -1.0041  0.6844  2.3627
19209TIP3    H279119   4.551   1.106   3.362 -1.8491 -0.7027  0.2544
19210TIP3   OH279120   2.098   2.397   1.022 -0.1501 -0.2115 -0.0310
19210TIP3    H179121   2.053   2.397   1.106 -0.2476  0.6039 -0.0804
19210TIP3    H279122   2.031   2.419   0.958 -0.3670 -2.1105 -0.5016
19211TIP3   OH279123   2.580   2.226   4.182 -0.2696 -0.0607  0.1987
19211TIP3    H179124   2.622   2.299   4.225 -0.6799  0.5401 -0.4081
19211TIP3    H279125   2.647   2.191   4.123 -0.3437  0.3588 -0.1362
19212TIP3   OH279126   2.329   1.724   6.262 -0.3340 -0.0111  0.2199
19212TIP3    H179127   2.316   1.733   6.356  1.0739 -2.3491  0.6714
19212TIP3    H279128   2.252   1.675   6.232 -0.0526 -0.5860  0.4209
19213TIP3   OH279129   4.035   2.987  14.385 -0.0270  0.3596 -0.1755
19213TIP3    H179130   4.055   3.015  14.474  0.2614  0.2201 -0.1963
19213TIP3    H279131   4.038   2.892  14.388  0.8383  0.3690 -0.5223
19214TIP3   OH279132   1.856   0.340  11.972 -0.5208  0.6376 -0.1953
19214TIP3    H179133   1.898   0.302  12.049 -0.4532 -1.7962 -1.3925
19214TIP3    H279134   1.923   0.394  11.931  0.5779 -0.9797 -0.5450
19215TIP3   OH279135   1.998   1.206   5.908  0.3145  0.4469 -0.0044
19215TIP3    H179136   2.073   1.234   5.855 -1.2918  1.7100 -1.7133
19215TIP3    H279137   2.009   1.251   5.991  1.4207  0.6689 -0.2677
19216TIP3   OH279138   5.036   6.151  13.893  0.5201 -0.6600 -0.0794
19216TIP3    H179139   5.047   6.059  13.917  0.8413 -1.3529 -2.7096
19216TIP3    H279140   5.122   6.177  13.859  0.9536  1.1584  2.3051
19217TIP3   OH279141   1.390   2.365  15.607  0.2299 -0.5684  0.6228
19217TIP3    H179142   1.341   2.413  15.541  1.2201  0.3017  0.5056
19217TIP3    H279143   1.457   2.427  15.637  0.8291 -1.5042  1.2516
19218TIP3   OH279144   4.887   1.132  16.233 -0.0738 -0.0189  0.0549
19218TIP3    H179145   4.800   1.133  16.194 -1.1680  0.4997  2.4482
19218TIP3    H279146   4.924   1.217  16.209 -0.3343 -0.0945 -0.6594
19219TIP3   OH279147   0.729   4.092  16.246  0.4751  0.2555 -0.0046
19219TIP3    H179148   0.638   4.067  16.229  0.6908 -1.6593  1.5602
19219TIP3    H279149   0.724   4.153  16.319  0.4052  0.6970 -0.3733
19220TIP3   OH279150   5.905   4.323   1.402  0.4005 -0.1499 -0.0986
19220TIP3    H179151   5.841   4.255   1.422  0.3922  0.2400  1.2702
19220TIP3    H279152   5.854   4.402   1.388  0.3461 -0.5707 -2.5519
19221TIP3   OH279153   0.555   2.806   3.814  0.3041  0.4329 -0.1184
19221TIP3    H179154   0.543   2.717   3.846 -0.0103  0.4857 -0.0885
19221TIP3    H279155   0.645   2.828   3.837  0.3950  0.1080 -0.1623
19222TIP3   OH279156   0.898   3.602   4.606 -0.2107  0.5629  0.4878
19222TIP3    H179157   0.859   3.689   4.600 -0.7404  0.1852 -1.9927
19222TIP3    H279158   0.826   3.542   4.589  0.4231 -0.3257  0.8900
19223TIP3   OH279159   5.105   0.146   2.722 -0.2392 -0.1897  0.0306
19223TIP3    H179160   5.142   0.066   2.760 -2.5507 -1.1612  0.3306
19223TIP3    H279161   5.035   0.171   2.782  0.3851  2.0442 -0.1130
19224TIP3   OH279162   4.327   0.051   4.801  0.5045 -0.2383  0.0800
19224TIP3    H179163   4.327   0.143   4.774  0.1412  0.1165  1.2250
19224TIP3    H279164   4.328   0.002   4.720  3.5618  0.7644 -0.5398
19225TIP3   OH279165   6.402   2.698  15.013  0.2814  0.0120 -0.1473
19225TIP3    H179166   6.477   2.662  15.061  0.1296 -0.6003 -0.3660
19225TIP3    H279167   6.381   2.779  15.060  1.2593  0.3381 -0.2643
19226TIP3   OH279168   6.746   2.600   3.633  0.0641 -0.2401  0.7549
19226TIP3    H179169   6.837   2.620   3.655  0.3086  0.9917 -1.2886
19226TIP3    H279170   6.728   2.651   3.555 -2.4419 -0.3906  1.1903
19227TIP3   OH279171   0.269   4.939  14.698  0.6291 -0.2141  0.0560
19227TIP3    H179172   0.210   4.864  14.698  0.6520 -0.2512  1.8425
19227TIP3    H279173   0.353   4.903  14.670  0.0812 -0.3878 -1.3690
19228TIP3   OH279174   1.457   2.790   2.617 -0.2647 -0.1036  0.0393
19228TIP3    H179175   1.512   2.868   2.615 -1.1159  0.5466  1.1592
19228TIP3    H279176   1.511   2.723   2.659 -0.5587  0.7356  1.7996
19229TIP3   OH279177   4.537   3.041   5.385 -0.0281 -0.3047 -0.3137
19229TIP3    H179178   4.619   3.052   5.336  0.7828 -0.6063  0.9476
19229TIP3    H279179   4.515   2.948   5.374  0.1624 -0.3755 -0.1180
19230TIP3   OH279180   3.593   0.748   1.318  0.4730  0.5977  0.9190
19230TIP3    H179181   3.617   0.659   1.294  2.5931  0.9562  1.6402
19230TIP3    H279182   3.548   0.740   1.402 -1.5115 -0.0105 -0.1598
19231TIP3   OH279183   3.357   6.359  12.210  0.5762 -0.1282  0.2988
19231TIP3    H179184   3.357   6.423  12.140  4.2131 -0.0344  0.2857
19231TIP3    H279185   3.431   6.302  12.190 -0.4856 -2.2240  2.1765
19232TIP3   OH279186   4.345   2.527  17.012  0.3637 -0.3613 -0.1377
19232TIP3    H179187   4.425   2.505  16.963 -0.1926  0.6613 -1.5491
19232TIP3    H279188   4.277   2.534  16.945  0.2272  4.1967  0.3302
19233TIP3   OH279189   3.886   2.274   0.603  0.4315  0.6372 -0.3425
19233TIP3    H179190   3.899   2.183   0.628  0.5084  0.4164 -1.1762
19233TIP3    H279191   3.802   2.274   0.557  0.5279  0.9524 -0.5188
19234TIP3   OH279192   0.626   2.734  12.825  0.3450  0.0612  0.3564
19234TIP3    H179193   0.669   2.788  12.758  0.4631 -0.4372  0.0270
19234TIP3    H279194   0.599   2.655  12.778 -0.1737  0.0055  0.7539
19235TIP3   OH279195   2.349   2.912   1.385 -0.0959 -0.4955  0.1503
19235TIP3    H179196   2.407   2.961   1.444 -0.6301  0.0671  0.2077
19235TIP3    H279197   2.314   2.978   1.325 -2.0752 -0.5126  1.2490
19236TIP3   OH279198   1.428   5.745   5.428  0.1759 -0.5337 -0.0415
19236TIP3    H179199   1.362   5.682   5.399 -0.0090 -1.0013  1.3482
19236TIP3    H279200   1.431   5.810   5.358 -2.1852 -0.1808  0.1514
19237TIP3   OH279201   2.993   5.628  12.300  0.2008 -0.2724  0.1657
19237TIP3    H179202   2.943   5.562  12.347 -2.1152  1.9560  0.8767
19237TIP3    H279203   2.998   5.703  12.360  0.3963  1.2284 -1.6736
19238TIP3   OH279204   5.423   2.319  13.256  0.6023  0.1897 -0.3076
19238TIP3    H179205   5.393   2.304  13.167  3.3360 -1.0206 -1.0599
19238TIP3    H279206   5.430   2.414  13.264 -0.8587  0.3673 -0.9349
19239TIP3   OH279207   5.918   6.808  12.970 -0.3800 -0.1434  0.3710
19239TIP3    H179208   6.009   6.806  12.999 -0.3620  0.7245  0.3828
19239TIP3    H279209   5.912   6.739  12.904  0.5223  0.3944 -0.2854
19240TIP3   OH279210   3.479   6.427   3.233 -0.7358  0.2551 -0.3028
19240TIP3    H179211   3.389   6.441   3.204 -1.2928  0.8103  1.5884
19240TIP3    H279212   3.531   6.488   3.180 -1.8514  2.0150  0.5834
19241TIP3   OH279213   2.697   6.468  17.194 -0.3154  0.7210 -0.3088
19241TIP3    H179214   2.612   6.507  17.214 -1.5028 -1.9332  0.0099
19241TIP3    H279215   2.700   6.465  17.099 -0.7173  0.5947 -0.3219
19242TIP3   OH279216   4.887   3.767  12.551 -0.0288  0.1117 -0.4481
19242TIP3    H179217   4.963   3.796  12.501 -0.1341 -0.5919 -1.0225
19242TIP3    H279218   4.895   3.812  12.635  1.8718 -1.1844  0.0947
19243TIP3   OH279219   3.627   5.782   0.376 -0.0001  0.1364 -0.0079
19243TIP3    H179220   3.598   5.871   0.357  0.2130 -0.1744 -1.9009
19243TIP3    H279221   3.717   5.779   0.342  0.5068 -0.3958  1.3214
19244TIP3   OH279222   3.092   2.194  12.228 -0.5262  0.1873  0.1866
19244TIP3    H179223   3.078   2.266  12.290  0.1992  2.7373 -2.4737
19244TIP3    H279224   3.035   2.215  12.154  0.1856 -1.6569 -0.9186
19245TIP3   OH279225   2.358   4.363   2.344  0.1833  0.0571 -0.1490
19245TIP3    H179226   2.283   4.409   2.385  0.2839 -0.9469  1.2039
19245TIP3    H279227   2.426   4.366   2.411  0.7387 -0.6461 -0.6822
19246TIP3   OH279228   2.982   5.871  13.999 -0.8872  0.0616  0.2834
19246TIP3    H179229   2.925   5.948  14.000 -0.5426  0.3635 -1.2372
19246TIP3    H279230   2.926   5.800  13.967 -0.9497 -0.0911  0.7396
19247TIP3   OH279231   2.829   1.582  16.907  0.5382  0.2070  0.0737
19247TIP3    H179232   2.855   1.499  16.868  0.7039  0.4678 -0.3705
19247TIP3    H279233   2.774   1.557  16.982 -1.3579 -0.2358 -1.4337
19248TIP3   OH279234   2.272   4.226   4.800 -0.0346  0.2045 -0.3052
19248TIP3    H179235   2.248   4.319   4.806 -3.4598 -0.5568 -1.1689
19248TIP3    H279236   2.204   4.180   4.849  2.0850 -1.8586  0.8388
19249TIP3   OH279237   4.957   5.339  15.801 -0.2579 -0.2257 -0.0297
19249TIP3    H179238   4.976   5.432  15.811  0.0991  0.0440 -2.7867
19249TIP3    H279239   5.040   5.301  15.771 -1.1426 -0.9454 -1.5720
19250TIP3   OH279240   2.427   1.535   4.451 -0.6270 -0.2920 -0.5070
19250TIP3    H179241   2.455   1.622   4.480  0.9492 -1.2562  0.9826
19250TIP3    H279242   2.426   1.541   4.355  0.5699  1.0433 -0.4535
19251TIP3   OH279243   1.443   4.335  13.874  0.1687 -0.8041  0.8902
19251TIP3    H179244   1.381   4.389  13.923  0.5440  2.0299 -1.6208
19251TIP3    H279245   1.427   4.357  13.782  2.2408 -2.9429 -0.0411
19252TIP3   OH279246   3.111   2.792   2.501  0.3067 -0.3704 -0.3141
19252TIP3    H179247   3.075   2.825   2.418 -0.9598 -1.5128 -0.2419
19252TIP3    H279248   3.170   2.861   2.531 -0.0473  0.5232 -1.6324
19253TIP3   OH279249   4.203   2.839  16.318 -0.0951 -0.5976  0.6264
19253TIP3    H179250   4.257   2.805  16.388 -1.1933  1.1751  2.3843
19253TIP3    H279251   4.209   2.934  16.327 -0.8805 -0.3539 -1.1878
19254TIP3   OH279252   6.258   0.336   6.297  0.7657  0.7071 -0.1140
19254TIP3    H179253   6.254   0.322   6.203 -0.2649 -0.3724  0.0755
19254TIP3    H279254   6.249   0.430   6.308 -0.4365  0.7199 -1.0483
19255TIP3   OH279255   0.024   1.101  12.742  0.0236 -0.4378  0.4295
19255TIP3    H179256  -0.024   1.180  12.716  1.1291 -0.0151 -0.3842
19255TIP3    H279257   0.049   1.060  12.659  1.9833 -0.0836  0.8217
19256TIP3   OH279258   4.201   1.580   0.358  0.1808 -0.2661  0.3220
19256TIP3    H179259   4.209   1.652   0.420 -1.5869  1.2775 -1.1815
19256TIP3    H279260   4.142   1.518   0.400 -1.5786  1.1047 -0.0904
19257TIP3   OH279261   0.938   2.470   0.645  0.3661  0.1502  0.2526
19257TIP3    H179262   1.032   2.482   0.631  0.4615  0.3669  1.0583
19257TIP3    H279263   0.912   2.404   0.581  1.3509 -0.9622  0.9840
19258TIP3   OH279264   1.999   0.677   4.456 -0.2514  0.2028  0.2391
19258TIP3    H179265   2.015   0.688   4.550 -0.6552 -2.1206  0.6106
19258TIP3    H279266   1.907   0.650   4.450  0.4415 -2.1048 -0.5967
19259TIP3   OH279267   6.706   5.707  16.740  0.4004  0.3236  0.0586
19259TIP3    H179268   6.783   5.715  16.684  1.3246 -0.1903  1.2342
19259TIP3    H279269   6.727   5.759  16.818 -0.1993 -0.2772  0.6330
19260TIP3   OH279270   4.028   6.007   5.971  0.1137  0.6321 -0.5586
19260TIP3    H179271   4.066   6.043   6.052 -1.4329  0.6977  0.1600
19260TIP3    H279272   4.040   6.076   5.906  0.6161  0.9098 -0.1794
19261TIP3   OH279273   1.681   0.931   0.936  0.2115 -0.4725 -0.1167
19261TIP3    H179274   1.588   0.952   0.934 -0.4600 -3.2285  0.0127
19261TIP3    H279275   1.696   0.881   0.856  1.7593  0.6186 -0.5259
19262TIP3   OH279276   6.055   4.977   5.615 -0.1063  0.0277  0.2570
19262TIP3    H179277   6.078   4.898   5.664 -1.2585 -0.4564  0.0398
19262TIP3    H279278   6.012   5.033   5.680 -0.6853 -0.1719  0.0422
19263TIP3   OH279279   4.318   0.932   0.030 -0.3379 -0.4008 -0.2624
19263TIP3    H179280   4.361   0.974  -0.045  0.2426  1.7779  1.2360
19263TIP3    H279281   4.318   1.000   0.098 -2.0468 -1.9005  1.2676
19264TIP3   OH279282   3.699   0.671   2.449  0.3403  0.0001 -0.0997
19264TIP3    H179283   3.784   0.702   2.480  0.4294 -0.5999  0.2498
19264TIP3    H279284   3.710   0.661   2.354  0.4402  0.6168 -0.1541
19265TIP3   OH279285   6.645   6.687  11.718 -0.1832  0.2692 -0.3046
19265TIP3    H179286   6.721   6.744  11.726  0.7334 -0.9987  0.1473
19265TIP3    H279287   6.647   6.656  11.628 -2.4430  3.3371 -1.5077
19266TIP3   OH279288   4.070   0.936   0.659  0.0710  0.6880  0.0885
19266TIP3    H179289   3.977   0.915   0.650  0.6283 -1.6015 -0.5423
19266TIP3    H279290   4.107   0.862   0.707  1.5450  1.6750  0.5221
19267TIP3   OH279291   1.029   5.131   2.658  0.2233  0.0194  0.1549
19267TIP3    H179292   1.107   5.089   2.623  1.2126 -0.7247  3.1194
19267TIP3    H279293   1.058   5.219   2.683 -0.0816  0.0021  0.5695
19268TIP3   OH279294   1.123   4.450  14.286  0.1269 -0.4160 -0.3757
19268TIP3    H179295   1.043   4.417  14.244 -0.2694  0.8982 -0.6464
19268TIP3    H279296   1.148   4.380  14.346  0.0852 -1.8514 -1.9806
19269TIP3   OH279297   5.131   3.938   4.611 -0.1713  0.1334 -0.2363
19269TIP3    H179298   5.047   3.894   4.626 -1.4612  2.0297 -1.7512
19269TIP3    H279299   5.117   4.028   4.640  2.0264 -0.0529  1.5343
19270TIP3   OH279300   2.321   3.993   0.708  0.0609 -0.2245 -0.5931
19270TIP3    H179301   2.233   4.008   0.742 -0.7012  0.1410 -2.6326
19270TIP3    H279302   2.379   4.041   0.767 -1.2411  0.5875  0.0369
19271TIP3   OH279303   1.791   0.170  11.229  0.1466 -0.2404 -0.4373
19271TIP3    H179304   1.838   0.109  11.288  0.1821 -0.5029 -0.7335
19271TIP3    H279305   1.705   0.181  11.270  0.3319 -0.0595 -0.0898
19272TIP3   OH279306   1.938   5.073  16.454  0.4141 -0.3506  0.5722
19272TIP3    H179307   1.859   5.072  16.507 -0.7616 -2.2640 -1.1336
19272TIP3    H279308   1.994   5.006  16.493 -0.1143 -1.1823 -0.0712
19273TIP3   OH279309   1.556   3.732  15.035 -0.3111  0.0161  0.2879
19273TIP3    H179310   1.594   3.648  15.060 -1.0416 -0.2744  0.4365
19273TIP3    H279311   1.508   3.761  15.113 -0.6256  0.2474  0.0100
19274TIP3   OH279312   1.445   0.457   0.096 -0.6576 -0.2331 -0.1919
19274TIP3    H179313   1.378   0.393   0.121 -1.0878  0.6602  0.9866
19274TIP3    H279314   1.520   0.436   0.152 -0.8908  0.4525  0.3799
19275TIP3   OH279315   0.915   4.654   2.385 -0.1717 -0.2957  0.4451
19275TIP3    H179316   0.903   4.583   2.323  0.1124  0.0207  0.0237
19275TIP3    H279317   0.832   4.703   2.381  0.9787  1.5062 -1.9753
19276TIP3   OH279318   5.957   3.046  11.680 -0.0415  0.5713  0.1369
19276TIP3    H179319   6.012   3.077  11.608  0.0296 -0.2576 -0.1685
19276TIP3    H279320   5.984   3.100  11.755  0.9476  0.4005 -0.0927
19277TIP3   OH279321   5.535   3.482  13.481 -0.0307  0.3759  0.6555
19277TIP3    H179322   5.630   3.472  13.469  0.2427  1.0219  2.1334
19277TIP3    H279323   5.497   3.411  13.430  1.3042 -0.5539  0.9113
19278TIP3   OH279324   0.396   1.302  11.875  0.0875 -1.1280  0.4139
19278TIP3    H179325   0.340   1.266  11.806 -0.4255 -1.3279  0.9374
19278TIP3    H279326   0.384   1.396  11.870 -1.9881 -1.2867  1.9671
19279TIP3   OH279327   5.757   6.602   0.376 -0.3575  0.6313 -0.0913
19279TIP3    H179328   5.751   6.575   0.285  0.6393  1.0196 -0.2807
19279TIP3    H279329   5.674   6.574   0.415 -1.0801  1.0696 -1.2727
19280TIP3   OH279330   4.080   0.175  15.097 -0.2763 -0.0620 -0.4125
19280TIP3    H179331   4.171   0.204  15.101  0.1158 -1.3461 -0.0472
19280TIP3    H279332   4.081   0.100  15.038 -0.8273 -1.1100  0.9143
19281TIP3   OH279333   3.095   6.306   4.584 -0.2789  0.1752 -0.1936
19281TIP3    H179334   3.019   6.339   4.536 -0.4484 -0.7678 -0.5889
19281TIP3    H279335   3.103   6.214   4.556  1.0849  0.3010 -0.2677
19282TIP3   OH279336   4.402   4.174   5.207 -0.2750  0.2000 -0.3296
19282TIP3    H179337   4.317   4.173   5.251 -0.6809 -0.5848 -1.1136
19282TIP3    H279338   4.450   4.244   5.249 -0.3812 -1.0341  1.8962
19283TIP3   OH279339   3.802   6.022  11.343 -0.0518 -0.5869  0.2916
19283TIP3    H179340   3.891   6.047  11.321 -0.7454  1.5344 -0.1695
19283TIP3    H279341   3.761   6.002  11.259 -0.8708  1.3550  0.2208
19284TIP3   OH279342   6.219   0.723  10.885 -0.0569  0.6943  0.6267
19284TIP3    H179343   6.151   0.678  10.834  0.3059  0.5411  0.2697
19284TIP3    H279344   6.237   0.665  10.959  1.9284 -0.8063 -0.9669
19285TIP3   OH279345   1.498   2.496  11.720  0.0481  0.0007  0.2723
19285TIP3    H179346   1.462   2.576  11.757  0.6668 -0.1990  1.3052
19285TIP3    H279347   1.475   2.428  11.783  1.7843 -0.2119  0.6948
19286TIP3   OH279348   4.454   5.845  15.657  0.0724  0.2026  0.2817
19286TIP3    H179349   4.403   5.769  15.627 -0.1258 -0.1034  1.3920
19286TIP3    H279350   4.389   5.913  15.672  0.2357  0.5604 -0.5674
19287TIP3   OH279351   3.497   2.722  14.631 -0.2818  0.5991 -0.2573
19287TIP3    H179352   3.489   2.706  14.537  0.0710  1.7781 -0.4927
19287TIP3    H279353   3.456   2.807  14.645  0.6008  0.9179  0.4779
19288TIP3   OH279354   6.542   1.688   3.911 -0.0712  0.6513  0.3990
19288TIP3    H179355   6.556   1.761   3.971 -1.4197  0.0225  1.5159
19288TIP3    H279356   6.449   1.666   3.921  0.5548 -1.9281  0.9170
19289TIP3   OH279357   5.150   5.511   3.117 -0.4968  0.3428 -0.6535
19289TIP3    H179358   5.158   5.417   3.096 -0.3876 -0.2407  1.8426
19289TIP3    H279359   5.134   5.553   3.033 -0.0638 -1.8740 -1.8799
19290TIP3   OH279360   0.278   0.405   3.405 -0.2959  0.7571  0.3100
19290TIP3    H179361   0.256   0.343   3.475  0.3071  0.0410 -0.1263
19290TIP3    H279362   0.374   0.410   3.407 -0.1909 -0.2948 -1.3261
19291TIP3   OH279363   0.402   4.601   0.179  0.3936  0.2408  0.2864
19291TIP3    H179364   0.367   4.646   0.256 -0.2353  0.2608 -0.0072
19291TIP3    H279365   0.338   4.532   0.160  0.2489  0.5935 -0.5554
19292TIP3   OH279366   0.586   0.551   3.409 -0.1068 -0.2928 -0.2922
19292TIP3    H179367   0.626   0.548   3.323 -0.2910  2.0733 -0.4854
19292TIP3    H279368   0.514   0.613   3.400  0.3668  0.5958  1.7663
19293TIP3   OH279369   0.889   2.882   1.305  0.0653 -0.5829  0.1106
19293TIP3    H179370   0.934   2.952   1.353  0.7816 -0.8292 -0.2096
19293TIP3    H279371   0.832   2.842   1.371  0.8442 -0.7439  0.6978
19294TIP3   OH279372   0.967   3.890   2.146  0.1454  0.2077  0.3890
19294TIP3    H179373   1.019   3.967   2.123  0.1126  0.0267 -0.2940
19294TIP3    H279374   0.919   3.868   2.066  0.1194 -0.4959  0.5928
19295TIP3   OH279375   4.386   3.329   0.563 -0.2568 -0.1800 -0.3456
19295TIP3    H179376   4.439   3.363   0.635 -0.0924 -0.1878 -0.4604
19295TIP3    H279377   4.384   3.234   0.577 -0.5976 -0.1351 -0.1037
19296TIP3   OH279378   4.818   1.747   1.543  0.6222 -0.0405  0.2830
19296TIP3    H179379   4.734   1.746   1.497 -0.7271 -2.4922  2.6969
19296TIP3    H279380   4.805   1.809   1.615  0.8466 -0.5027  0.7219
19297TIP3   OH279381   3.947   0.322  12.843  0.5501  0.0380 -0.1407
19297TIP3    H179382   3.861   0.321  12.801 -0.4889  1.0007  1.9344
19297TIP3    H279383   3.981   0.233  12.829 -0.2883 -0.0369 -1.8986
19298TIP3   OH279384   4.312   0.621   3.749 -0.1699  0.7265  0.0839
19298TIP3    H179385   4.402   0.612   3.718 -0.1343 -0.9763  0.5767
19298TIP3    H279386   4.311   0.704   3.797  0.9008  1.1955 -0.6866
19299TIP3   OH279387   3.495   2.883  16.445  0.3249  0.0540  0.1477
19299TIP3    H179388   3.573   2.933  16.421  0.1828  0.9127  1.4403
19299TIP3    H279389   3.497   2.879  16.541 -0.9232 -0.3777  0.1676
19300TIP3   OH279390   4.556   1.259   0.816  0.1231 -0.1198  0.0157
19300TIP3    H179391   4.525   1.286   0.729 -0.2195 -1.0740 -0.1725
19300TIP3    H279392   4.581   1.167   0.804 -0.6320 -0.4766  1.1070
19301TIP3   OH279393   5.406   3.356   3.853 -0.1972  0.2578 -0.1113
19301TIP3    H179394   5.499   3.375   3.861 -0.1128  0.9260 -2.2070
19301TIP3    H279395   5.399   3.310   3.769 -1.5177 -1.4744  0.9025
19302TIP3   OH279396   0.451   0.713   0.457  0.1260 -0.3588 -0.5281
19302TIP3    H179397   0.480   0.622   0.451  0.7160 -0.0889 -2.1783
19302TIP3    H279398   0.414   0.732   0.371  1.2865  1.3798 -0.6640
19303TIP3   OH279399   2.470   0.489   1.922  0.3363 -0.3667 -0.1107
19303TIP3    H179400   2.468   0.585   1.924 -2.1493 -0.3576 -1.2438
19303TIP3    H279401   2.494   0.467   1.832 -1.8495 -0.7985 -0.6020
19304TIP3   OH279402   1.614   2.585   3.727 -0.1995  0.3802  0.1437
19304TIP3    H179403   1.558   2.598   3.650 -0.7498 -1.2494  0.2450
19304TIP3    H279404   1.554   2.589   3.801  0.6056  3.9810  0.7058
19305TIP3   OH279405   2.700   2.818  11.940 -0.6666 -0.6219  0.4728
19305TIP3    H179406   2.652   2.736  11.926 -1.3959 -0.0599 -0.4372
19305TIP3    H279407   2.632   2.880  11.967 -0.3518  0.0230 -0.2013
19306TIP3   OH279408   5.429   0.209   1.642 -0.3495 -0.3581 -0.3355
19306TIP3    H179409   5.513   0.253   1.630 -0.6170 -0.1596 -1.5174
19306TIP3    H279410   5.399   0.239   1.728  0.4275  0.1675 -0.2402
19307TIP3   OH279411   3.993   3.413  14.015  0.2153  0.1823 -0.4919
19307TIP3    H179412   4.006   3.507  14.028 -1.9067  0.2760  1.2520
19307TIP3    H279413   3.898   3.403  14.003  0.5024 -1.6619 -1.3929
19308TIP3   OH279414   5.212   6.542  14.324  0.2248  0.1562  0.0168
19308TIP3    H179415   5.152   6.610  14.296  0.0753  0.2822  0.6422
19308TIP3    H279416   5.299   6.576  14.301 -0.0236 -0.7658 -2.4642
19309TIP3   OH279417   5.369   0.685  12.140  0.0493  0.8459 -0.3407
19309TIP3    H179418   5.441   0.743  12.166  0.5508 -0.3287  0.9642
19309TIP3    H279419   5.359   0.700  12.046  0.7180  2.4274 -0.1775
19310TIP3   OH279420   5.269   4.085   2.627  0.2635  0.0675 -0.5557
19310TIP3    H179421   5.360   4.060   2.644  0.0145  0.8690  2.0840
19310TIP3    H279422   5.229   4.006   2.589  1.1101 -1.5491  1.7922
19311TIP3   OH279423   5.562   0.238   5.093 -0.1318 -0.2524  0.0845
19311TIP3    H179424   5.626   0.310   5.093  0.4866 -0.7983  0.1430
19311TIP3    H279425   5.519   0.245   5.008 -1.4745  1.4175  0.8756
19312TIP3   OH279426   2.796   5.255   4.493 -0.0062 -0.0174  0.0915
19312TIP3    H179427   2.785   5.316   4.420 -2.9349  0.1804  0.6445
19312TIP3    H279428   2.726   5.190   4.480  0.6801 -1.0845  1.6429
19313TIP3   OH279429   1.351   2.825   2.376 -0.7567  0.7605 -0.2071
19313TIP3    H179430   1.409   2.878   2.322  1.5496 -0.2954  1.1619
19313TIP3    H279431   1.398   2.814   2.459 -2.6861 -0.5730  0.7586
19314TIP3   OH279432   2.133   5.206   4.636  0.1747 -0.8463 -0.6874
19314TIP3    H179433   2.153   5.271   4.703  1.9960 -1.9876 -0.1097
19314TIP3    H279434   2.218   5.184   4.598 -0.6955 -1.1643 -2.4970
19315TIP3   OH279435   0.504   5.585  12.146 -0.4172 -0.5676  0.3866
19315TIP3    H179436   0.561   5.520  12.185  1.4165  0.8742  0.1618
19315TIP3    H279437   0.533   5.592  12.055 -1.2281 -0.1177  0.1538
19316TIP3   OH279438   0.235   2.478   5.955 -0.2798 -0.0881  0.1098
19316TIP3    H179439   0.184   2.454   6.032 -2.0976 -0.5600 -1.1982
19316TIP3    H279440   0.277   2.396   5.928 -0.0572 -0.0355  0.2947
19317TIP3   OH279441   5.129   2.426  14.169  0.1156 -0.1559 -0.3808
19317TIP3    H179442   5.151   2.333  14.174 -0.2826 -0.2669 -0.6970
19317TIP3    H279443   5.210   2.468  14.138  0.3491 -0.3739 -0.0686
19318TIP3   OH279444   6.800   4.473  11.710  0.5031  0.3563  0.1481
19318TIP3    H179445   6.848   4.443  11.633  0.1553 -1.7941  0.7382
19318TIP3    H279446   6.734   4.405  11.725  0.2573  0.9981  2.0681
19319TIP3   OH279447   1.832   6.269   2.658  0.2226 -0.1853  0.0016
19319TIP3    H179448   1.828   6.205   2.729  0.6305  0.1237  0.3067
19319TIP3    H279449   1.809   6.219   2.579 -0.1864 -0.5372  0.3422
19320TIP3   OH279450   4.464   5.369   4.361 -0.4595 -0.1547  0.0281
19320TIP3    H179451   4.462   5.351   4.267 -0.4115  0.1602 -0.0327
19320TIP3    H279452   4.445   5.463   4.368  1.3884  0.2123  0.2264
19321TIP3   OH279453   5.184   2.758  13.128 -0.3605  0.2523  0.1783
19321TIP3    H179454   5.160   2.680  13.078  0.5462 -0.5802  1.0123
19321TIP3    H279455   5.110   2.774  13.186  0.2523 -1.1792  1.4020
19322TIP3   OH279456   0.004   6.807  15.455  0.0881 -0.0981  0.0096
19322TIP3    H179457   0.060   6.740  15.416 -1.4598 -0.8786 -0.9345
19322TIP3    H279458  -0.069   6.816  15.394 -1.2366  0.3168  1.6032
19323TIP3   OH279459   5.401   4.832   3.281  0.3896  0.1209 -0.3377
19323TIP3    H179460   5.361   4.915   3.256  0.7652  0.2729 -0.4392
19323TIP3    H279461   5.351   4.766   3.234  1.0667  0.3990 -1.4638
19324TIP3   OH279462   2.671   5.784   1.592 -0.3160 -0.2779 -0.5907
19324TIP3    H179463   2.621   5.825   1.522  2.3967  0.6512 -2.0583
19324TIP3    H279464   2.748   5.840   1.602  0.2240 -1.3905  1.9413
19325TIP3   OH279465   6.687   6.557  17.238 -0.0689  0.3025  0.2454
19325TIP3    H179466   6.605   6.532  17.195  0.8133 -0.0458 -1.2830
19325TIP3    H279467   6.755   6.516  17.185  1.1506  1.4905  0.8576
19326TIP3   OH279468   6.329   3.062   0.152  0.0273  0.3521  0.1904
19326TIP3    H179469   6.351   3.074   0.245 -1.0692  1.2022  0.3536
19326TIP3    H279470   6.412   3.075   0.106  0.8214 -1.2489  1.1307
19327TIP3   OH279471   0.296   1.896  11.630 -0.0017 -0.1871  0.2084
19327TIP3    H179472   0.262   1.810  11.606  1.1088 -1.3199  2.5411
19327TIP3    H279473   0.389   1.881  11.646  0.2468  1.4995  0.3931
19328TIP3   OH279474   2.937   5.024   3.132 -0.5462  0.4702 -0.5203
19328TIP3    H179475   2.962   4.963   3.201 -0.8466  0.4698 -0.4084
19328TIP3    H279476   2.882   5.089   3.176 -1.8257 -0.2640 -1.0029
19329TIP3   OH279477   2.581   5.418  16.056  1.0722  0.0836  0.1290
19329TIP3    H179478   2.604   5.423  15.963  2.9102 -0.0944  0.5719
19329TIP3    H279479   2.654   5.372  16.097  1.8520  2.9983  2.1998
19330TIP3   OH279480   5.580   0.812   1.244  0.8892 -0.7846  0.0993
19330TIP3    H179481   5.638   0.738   1.263  0.6641 -1.1701 -0.7086
19330TIP3    H279482   5.631   0.867   1.185  0.6461 -0.8468 -0.1706
19331TIP3   OH279483   3.727   0.571   0.936 -0.3589 -0.1560 -0.3697
19331TIP3    H179484   3.666   0.501   0.961  0.5382 -1.4655 -1.7947
19331TIP3    H279485   3.795   0.568   1.003 -1.2763  0.5923  0.6136
19332TIP3   OH279486   0.729   3.728  14.627  0.4999 -0.4641 -0.1369
19332TIP3    H179487   0.639   3.716  14.656  0.1084  0.4936 -0.9513
19332TIP3    H279488   0.745   3.822  14.636  1.4012 -0.6202 -0.0560
19333TIP3   OH279489   6.673   3.615   5.952 -0.0523  0.6115 -0.6478
19333TIP3    H179490   6.739   3.580   5.893  0.5381  0.2747  0.1976
19333TIP3    H279491   6.722   3.647   6.028 -0.8738  0.0247  0.1497
19334TIP3   OH279492   1.197   0.850   0.466 -0.2842  0.0680 -0.1144
19334TIP3    H179493   1.221   0.912   0.397  1.8580 -0.2819  0.2994
19334TIP3    H279494   1.159   0.905   0.535 -1.4317  0.5373 -1.0937
19335TIP3   OH279495   1.400   6.726   1.662 -0.6144  0.1065 -0.7129
19335TIP3    H179496   1.398   6.819   1.638  0.1852  0.3236  0.0304
19335TIP3    H279497   1.357   6.723   1.747  0.1836 -0.0550 -0.3029
19336TIP3   OH279498   0.704   1.167  16.815  0.1867  0.0824 -0.0252
19336TIP3    H179499   0.690   1.190  16.907  1.3219 -1.2312  0.4769
19336TIP3    H279500   0.791   1.128  16.812 -0.1050 -0.5076 -1.5454
19337TIP3   OH279501   3.553   5.163  15.534 -0.2033  0.3476  0.5109
19337TIP3    H179502   3.467   5.163  15.577 -1.2154  1.7566 -1.4578
19337TIP3    H279503   3.579   5.071  15.532 -3.1081 -0.5014 -1.6485
19338TIP3   OH279504   1.483   4.161  15.873 -0.3428  0.0112 -0.6568
19338TIP3    H179505   1.529   4.195  15.796  0.3551  0.8969  0.1421
19338TIP3    H279506   1.461   4.071  15.849  1.1800 -0.2022 -1.3264
19339TIP3   OH279507   3.296   1.614   2.501 -0.0927  0.6376 -0.6622
19339TIP3    H179508   3.372   1.663   2.469  1.1694  0.3145  1.6999
19339TIP3    H279509   3.334   1.548   2.561 -2.0073 -1.2606 -1.4774
19340TIP3   OH279510   2.852   1.819  13.805  0.0261  0.2111  0.5794
19340TIP3    H179511   2.884   1.902  13.841  3.0473  0.0587 -1.5740
19340TIP3    H279512   2.906   1.753  13.847 -0.0756 -0.3926 -0.2326
19341TIP3   OH279513   1.711   4.432   2.146  0.2154  0.0030 -0.4812
19341TIP3    H179514   1.742   4.347   2.176  0.9200  0.6361  0.6337
19341TIP3    H279515   1.673   4.473   2.224 -0.6891  0.4628 -1.1527
19342TIP3   OH279516   6.297   4.125   4.027 -0.0199 -0.2844 -0.0451
19342TIP3    H179517   6.300   4.034   3.998  1.9965 -0.7482  1.4496
19342TIP3    H279518   6.355   4.172   3.966  0.4733 -0.3672  0.3587
19343TIP3   OH279519   0.541   3.549  12.847 -0.1470 -0.2027  0.6997
19343TIP3    H179520   0.628   3.570  12.812 -0.2622 -1.2363 -0.2260
19343TIP3    H279521   0.484   3.547  12.770 -0.7725 -0.6712  1.1711
19344TIP3   OH279522   5.855   5.909   2.807  0.2790 -0.2057 -0.3802
19344TIP3    H179523   5.879   6.002   2.813  1.0152 -0.3661 -0.7753
19344TIP3    H279524   5.931   5.867   2.766 -0.2959 -0.8845 -0.7650
19345TIP3   OH279525   5.378   1.129  15.853 -0.1130 -0.2606 -0.3104
19345TIP3    H179526   5.386   1.100  15.762 -2.0613  1.8015 -1.2053
19345TIP3    H279527   5.467   1.155  15.878  0.2879 -0.0553 -1.9154
19346TIP3   OH279528   1.644   0.384  16.903  0.0117 -0.1318 -0.7079
19346TIP3    H179529   1.574   0.400  16.967  1.1558  0.9355  0.2855
19346TIP3    H279530   1.725   0.402  16.950  0.8785  0.6871 -2.4572
19347TIP3   OH279531   3.970   0.077   1.645 -0.1580 -0.8498  0.6056
19347TIP3    H179532   4.044   0.086   1.705  0.8505  0.3531 -0.7865
19347TIP3    H279533   3.969  -0.016   1.622  2.2041 -0.5169 -0.9558
19348TIP3   OH279534   2.526   1.734   0.700 -0.4056  0.0989  0.3530
19348TIP3    H179535   2.458   1.707   0.638 -0.1426  1.9732 -0.8007
19348TIP3    H279536   2.480   1.790   0.762 -0.4089 -0.7225  1.0947
19349TIP3   OH279537   4.288   6.613   1.826 -0.0592  0.4423  0.1478
19349TIP3    H179538   4.222   6.570   1.880  0.7779 -0.4356  0.4825
19349TIP3    H279539   4.244   6.627   1.742 -0.4503 -0.7980  0.1295
19350TIP3   OH279540   3.823   0.836  17.122  0.3092  0.5678  0.0150
19350TIP3    H179541   3.792   0.883  17.045 -1.9439  2.0096  1.7440
19350TIP3    H279542   3.859   0.903  17.179 -1.3989  0.0012  1.7934
19351TIP3   OH279543   2.797   6.244   5.167  0.2494 -0.0614 -0.4053
19351TIP3    H179544   2.864   6.199   5.217 -0.0837  0.0103  0.1047
19351TIP3    H279545   2.744   6.174   5.128  0.7473 -0.1206 -0.9876
19352TIP3   OH279546   3.537   1.730  12.122  0.0426 -0.1869 -0.0853
19352TIP3    H179547   3.545   1.784  12.043 -1.2886  2.3787  1.4406
19352TIP3    H279548   3.627   1.716  12.151  0.5028 -0.4898 -1.5907
19353TIP3   OH279549   5.128   3.098   0.501  0.1412  0.2564  0.0142
19353TIP3    H179550   5.094   3.184   0.475  0.8585 -0.1331 -2.3779
19353TIP3    H279551   5.069   3.035   0.458  0.3071 -0.4405  0.7950
19354TIP3   OH279552   3.633   0.128   4.317 -0.5121 -0.1552 -0.2783
19354TIP3    H179553   3.548   0.095   4.289 -1.1076  0.7482  0.4425
19354TIP3    H279554   3.630   0.123   4.412 -0.1187  0.7651 -0.2175
19355TIP3   OH279555   4.817   4.728  17.066 -0.6049 -0.4107  0.4510
19355TIP3    H179556   4.813   4.815  17.026 -0.5043 -0.4269  0.4044
19355TIP3    H279557   4.757   4.733  17.140  0.4812  0.1553  1.3202
19356TIP3   OH279558   4.191   5.282  15.042 -0.0797 -0.4712  0.3039
19356TIP3    H179559   4.111   5.329  15.018 -0.0085 -0.9383 -0.8552
19356TIP3    H279560   4.262   5.344  15.024  0.1490 -1.5804 -2.8482
19357TIP3   OH279561   0.593   3.279  12.117 -0.2674 -0.4251 -0.2913
19357TIP3    H179562   0.610   3.298  12.209 -1.3584  0.8350 -0.3437
19357TIP3    H279563   0.617   3.359  12.070 -0.5186 -0.7671 -1.0147
19358TIP3   OH279564   3.191   1.587  11.246  0.0341 -0.3990 -0.0947
19358TIP3    H179565   3.214   1.507  11.293 -2.7850 -1.3595 -0.2871
19358TIP3    H279566   3.114   1.622  11.292  0.5493  1.6187 -0.6890
19359TIP3   OH279567   1.852   1.739   4.019 -0.3825 -0.3928  0.2115
19359TIP3    H179568   1.877   1.739   3.927  1.1179  0.6118  0.6072
19359TIP3    H279569   1.865   1.648   4.047  2.1104 -0.0858  0.1871
19360TIP3   OH279570   5.144   5.978   4.330 -0.1157  0.8202 -0.2924
19360TIP3    H179571   5.051   5.998   4.324 -0.2219  0.3194 -0.2925
19360TIP3    H279572   5.168   6.001   4.420 -0.3060  0.6489 -0.1990
19361TIP3   OH279573   3.269   1.494   0.715 -0.0062 -0.1468 -0.3313
19361TIP3    H179574   3.311   1.501   0.629 -0.0716  1.3648 -0.2575
19361TIP3    H279575   3.340   1.509   0.777 -0.2518  0.3186 -0.1613
19362TIP3   OH279576   3.019   0.012   4.357 -0.1931 -0.4149 -0.1142
19362TIP3    H179577   3.087   0.048   4.415  0.2583 -0.6071 -0.5181
19362TIP3    H279578   3.017   0.072   4.283 -0.8342 -0.1202  0.1382
19363TIP3   OH279579   3.374   5.904  17.126 -0.6922 -0.3682  0.3513
19363TIP3    H179580   3.465   5.877  17.137 -0.6405 -0.5537 -0.5173
19363TIP3    H279581   3.323   5.827  17.153 -0.5709 -0.7283 -0.4373
19364TIP3   OH279582   0.154   5.119  15.818 -1.1006  0.4226  0.0841
19364TIP3    H179583   0.126   5.126  15.909  1.4757  0.7180  0.8871
19364TIP3    H279584   0.199   5.202  15.800 -0.3421 -0.2060 -1.0171
19365TIP3   OH279585   3.496   2.131  10.724 -0.0475 -0.0508 -0.5600
19365TIP3    H179586   3.524   2.060  10.781  0.5330  0.0938 -0.6562
19365TIP3    H279587   3.411   2.104  10.691 -0.7666  0.2354  1.0141
19366TIP3   OH279588   6.740   4.583  16.105  0.4486  0.0778 -0.5999
19366TIP3    H179589   6.685   4.619  16.175  0.1223 -1.3209 -0.1262
19366TIP3    H279590   6.823   4.563  16.148 -0.0062 -1.4948 -0.4252
19367TIP3   OH279591   3.354   0.061  12.602 -0.6897  0.6313 -0.3513
19367TIP3    H179592   3.449   0.072  12.605 -0.5696 -0.5108  0.1981
19367TIP3    H279593   3.335   0.000  12.674 -1.3269 -2.7704 -3.2958
19368TIP3   OH279594   0.599   1.241   2.541 -0.3305 -0.1798 -0.2026
19368TIP3    H179595   0.630   1.306   2.604  0.0636  0.5556 -1.1466
19368TIP3    H279596   0.617   1.157   2.583  2.6255  0.2168 -0.5319
19369TIP3   OH279597   5.325   6.441   0.179 -0.6652  0.2052  0.3436
19369TIP3    H179598   5.331   6.512   0.242 -1.3993  2.0238 -1.5759
19369TIP3    H279599   5.233   6.414   0.182  0.3759 -3.3610  3.8588
19370TIP3   OH279600   0.456   6.639   0.359  0.2472 -0.1611 -0.8445
19370TIP3    H179601   0.381   6.648   0.300 -0.6687 -0.1242  0.2813
19370TIP3    H279602   0.492   6.728   0.366 -0.7588  0.1920  0.0533
19371TIP3   OH279603   2.911   6.236   3.430  0.1193  0.1752  0.9165
19371TIP3    H179604   2.847   6.166   3.416  0.5484 -0.1891  0.7647
19371TIP3    H279605   2.966   6.205   3.502 -0.3493  0.8261  1.5652
19372TIP3   OH279606   1.105   1.045   3.793 -0.6854  0.0411  0.5151
19372TIP3    H179607   1.063   1.115   3.842  0.2885  1.9016 -1.2497
19372TIP3    H279608   1.042   1.020   3.727 -0.3975  0.3891  0.1071
19373TIP3   OH279609   1.415   6.178   0.459 -0.0220 -0.5214 -0.5080
19373TIP3    H179610   1.356   6.233   0.407 -1.8561 -2.4076 -0.4599
19373TIP3    H279611   1.382   6.185   0.548  1.7130  0.8317  0.0775
19374TIP3   OH279612   2.500   3.550   1.400 -0.3658  0.4409  0.0628
19374TIP3    H179613   2.411   3.539   1.367 -0.1634  1.3216 -0.7823
19374TIP3    H279614   2.555   3.504   1.338 -0.0443  1.5902 -0.5178
19375TIP3   OH279615   0.433   4.646  15.736 -0.0950 -0.1818  0.0374
19375TIP3    H179616   0.360   4.708  15.744  1.8746  2.6519 -2.6224
19375TIP3    H279617   0.512   4.700  15.741  1.8467 -3.0565  1.8846
19376TIP3   OH279618   5.684   6.028   2.508 -0.9016 -0.6250 -0.3012
19376TIP3    H179619   5.675   6.037   2.603  1.4224 -1.1552 -0.0098
19376TIP3    H279620   5.670   6.117   2.474 -1.8859 -0.4602  0.5076
19377TIP3   OH279621   4.935   2.442   0.096  0.4127 -0.2676 -0.3227
19377TIP3    H179622   5.012   2.390   0.074 -0.1604 -0.9514 -0.7387
19377TIP3    H279623   4.874   2.425   0.024 -0.5479 -0.5878  0.5664
19378TIP3   OH279624   4.992   6.051  15.151 -0.2822  0.9163  0.5885
19378TIP3    H179625   5.032   6.103  15.081 -1.5102  0.0607 -0.7833
19378TIP3    H279626   4.898   6.065  15.140 -0.4556  1.5876  2.7369
19379TIP3   OH279627   5.281   5.610  13.342 -0.3968  0.2275  0.0853
19379TIP3    H179628   5.243   5.673  13.403  0.5727  0.5639  0.3543
19379TIP3    H279629   5.345   5.661  13.292  0.2233 -0.4905  0.1447
19380TIP3   OH279630   2.410   0.995  14.660 -0.4942 -0.1464  1.0962
19380TIP3    H179631   2.466   0.921  14.684 -0.3792 -0.9746 -1.5452
19380TIP3    H279632   2.464   1.072  14.676  1.1877 -0.8918 -0.7473
19381TIP3   OH279633   4.612   3.339   6.082  0.2398  0.3186 -0.1971
19381TIP3    H179634   4.674   3.384   6.139 -0.2098  1.2742 -0.4590
19381TIP3    H279635   4.561   3.284   6.141  0.0907  0.9466  0.2668
19382TIP3   OH279636   3.667   2.160  13.622 -0.0210 -0.0322  0.3540
19382TIP3    H179637   3.587   2.213  13.624 -0.1872 -0.3028  1.6992
19382TIP3    H279638   3.675   2.131  13.532  0.5253  2.9895 -0.6275
19383TIP3   OH279639   5.311   6.318   5.995 -0.0781  0.0821 -0.3337
19383TIP3    H179640   5.349   6.406   5.983  0.3900  0.1752  1.6826
19383TIP3    H279641   5.217   6.333   5.991 -0.0017  0.6782 -0.0933
19384TIP3   OH279642   3.101   4.779   3.116 -0.1374  0.2618  0.0526
19384TIP3    H179643   3.114   4.688   3.092  0.5670  0.5161 -0.5639
19384TIP3    H279644   3.109   4.827   3.033 -0.0599  0.9221  0.4372
19385TIP3   OH279645   2.340   5.591   0.160 -0.3041 -0.0244 -0.3821
19385TIP3    H179646   2.294   5.513   0.131  0.6009 -0.6327 -0.1663
19385TIP3    H279647   2.392   5.619   0.085 -0.1130 -0.0078 -0.2442
19386TIP3   OH279648   0.784   3.189   3.490 -0.6593 -0.2473 -0.0915
19386TIP3    H179649   0.834   3.205   3.410 -1.9981  1.3977 -0.6053
19386TIP3    H279650   0.851   3.166   3.555  0.6741  0.8293 -1.0443
19387TIP3   OH279651   5.596   0.991   1.750  0.5451  1.1980 -0.1495
19387TIP3    H179652   5.559   0.907   1.721  1.6622  0.8693 -0.6547
19387TIP3    H279653   5.521   1.050   1.752 -0.4516 -0.0530  1.1847
19388TIP3   OH279654   5.465   3.483  14.867  0.3121 -0.5774 -0.2727
19388TIP3    H179655   5.378   3.444  14.861 -0.3573  1.0492 -1.5854
19388TIP3    H279656   5.525   3.408  14.871 -1.0837 -1.7120 -0.2471
19389TIP3   OH279657   2.590   5.356   1.271  0.0253 -0.0860 -0.0618
19389TIP3    H179658   2.651   5.357   1.198  1.5924  0.6996  1.2315
19389TIP3    H279659   2.506   5.381   1.233  0.7767  0.0616 -1.6304
19390TIP3   OH279660   0.189   0.205   1.280 -0.1303  0.0936 -0.2643
19390TIP3    H179661   0.189   0.248   1.366  0.2861  0.0540 -0.2441
19390TIP3    H279662   0.150   0.270   1.221 -1.1259 -0.1655  0.0911
19391TIP3   OH279663   3.912   1.053   5.142 -0.7452 -0.2402 -0.7552
19391TIP3    H179664   3.868   1.122   5.191 -0.4093  0.4426 -1.4130
19391TIP3    H279665   4.003   1.083   5.134 -1.0818  0.2579 -2.8892
19392TIP3   OH279666   0.575   0.784   1.209  0.0709  0.3981 -0.5129
19392TIP3    H179667   0.550   0.694   1.188  2.3427 -0.3405 -0.2427
19392TIP3    H279668   0.559   0.792   1.303  0.3193  0.1173 -0.4458
19393TIP3   OH279669   2.728   3.878  13.892 -0.3464 -0.0681 -0.3585
19393TIP3    H179670   2.725   3.885  13.796  0.1084  2.3133 -0.2418
19393TIP3    H279671   2.815   3.844  13.911  1.2156  3.4391 -0.6934
19394TIP3   OH279672   4.747   4.512   0.947  0.4894  0.0783  0.5254
19394TIP3    H179673   4.709   4.474   1.027 -0.6517  0.4111  0.1363
19394TIP3    H279674   4.792   4.591   0.978 -1.4166  1.1492  0.5883
19395TIP3   OH279675   2.796   5.854   0.783  0.2159 -0.0117  0.3865
19395TIP3    H179676   2.716   5.825   0.828  0.1410 -0.1183  0.1878
19395TIP3    H279677   2.764   5.892   0.701  0.4102 -0.5331  0.0683
19396TIP3   OH279678   0.773   1.728   1.718 -0.5840  0.7244 -0.5342
19396TIP3    H179679   0.774   1.644   1.674 -0.8937 -0.0472  0.8908
19396TIP3    H279680   0.691   1.769   1.690 -1.7716 -0.6152  0.8557
19397TIP3   OH279681   1.982   6.730  16.314 -0.1335  0.0310  0.0197
19397TIP3    H179682   2.065   6.760  16.350  0.0277 -0.4992  0.1002
19397TIP3    H279683   1.969   6.643  16.353 -0.8097  0.1838  0.1468
19398TIP3   OH279684   0.536   3.883   2.116  1.1526 -0.5193  0.6023
19398TIP3    H179685   0.522   3.818   2.184  1.2537 -1.2709 -0.0966
19398TIP3    H279686   0.493   3.962   2.150 -0.1463 -1.3180  0.8465
19399TIP3   OH279687   2.466   3.082  17.267 -0.1908 -0.3746  0.1333
19399TIP3    H179688   2.466   3.064  17.173 -0.8393 -0.2251  0.1006
19399TIP3    H279689   2.430   3.170  17.274  0.4951 -0.1175  0.4743
19400TIP3   OH279690   1.887   6.802   5.912 -0.6576  0.4817 -0.3157
19400TIP3    H179691   1.976   6.779   5.941 -0.3594 -0.8868 -2.1677
19400TIP3    H279692   1.831   6.777   5.985  0.3312 -0.1741  0.2362
19401TIP3   OH279693   3.926   1.564   1.197 -0.5425  0.4880  0.7468
19401TIP3    H179694   3.918   1.472   1.222  2.5283 -0.5933 -1.8988
19401TIP3    H279695   4.018   1.586   1.216 -0.9751  2.7404  0.4131
19402TIP3   OH279696   1.240   4.476  14.013 -0.2408 -0.4723  0.2984
19402TIP3    H179697   1.162   4.516  13.974  0.7703  0.2928 -0.9684
19402TIP3    H279698   1.222   4.476  14.107 -1.8772 -0.5353  0.0066
19403TIP3   OH279699   1.166   1.379   4.665 -0.3299  0.0733  0.0361
19403TIP3    H179700   1.172   1.305   4.725  0.0240 -0.5884 -0.8242
19403TIP3    H279701   1.081   1.369   4.622 -1.2741  1.3869  1.5071
19404TIP3   OH279702   6.717   5.701   0.572  0.0509  0.2003 -0.5702
19404TIP3    H179703   6.631   5.727   0.605 -1.0570 -2.4134 -1.2760
19404TIP3    H279704   6.723   5.740   0.485  0.2809  1.7384  0.1214
19405TIP3   OH279705   1.304   0.472  14.231 -0.3550  0.1987  0.5422
19405TIP3    H179706   1.376   0.453  14.292  0.1068 -0.0642 -0.0746
19405TIP3    H279707   1.328   0.557  14.193 -1.4473  1.1300  1.8876
19406TIP3   OH279708   6.076   1.230  12.028  0.1925  0.0770 -0.3891
19406TIP3    H179709   6.108   1.321  12.032 -0.9383  0.4840 -0.5052
19406TIP3    H279710   6.090   1.204  11.937  2.4181 -0.5769  0.1067
19407TIP3   OH279711   3.088   2.338  16.014 -0.1818 -0.8892 -0.1854
19407TIP3    H179712   3.017   2.400  15.999  1.7841  1.6658  0.6069
19407TIP3    H279713   3.071   2.302  16.101 -0.9104 -0.8255 -0.3041
19408TIP3   OH279714   5.819   1.761  12.041 -0.0595  0.0013  0.1615
19408TIP3    H179715   5.833   1.715  11.958 -1.7196 -0.1973 -0.0375
19408TIP3    H279716   5.904   1.801  12.061  1.0856 -2.1234 -0.2745
19409TIP3   OH279717   3.826   5.253   0.272  0.1707 -0.5420 -0.2909
19409TIP3    H179718   3.826   5.191   0.345  0.7317 -1.0938 -0.7416
19409TIP3    H279719   3.762   5.319   0.296 -2.0979 -2.4807 -0.7898
19410TIP3   OH279720   6.498   3.826   0.108  0.3054 -0.4522 -0.1528
19410TIP3    H179721   6.592   3.813   0.114  0.8147  2.3002 -1.4979
19410TIP3    H279722   6.468   3.758   0.047  1.4834 -1.0254 -0.0959
19411TIP3   OH279723   2.088   6.225  12.732 -0.8747  0.0093  0.2649
19411TIP3    H179724   2.157   6.162  12.756 -0.9501 -0.2413 -0.1583
19411TIP3    H279725   2.132   6.310  12.736 -0.5889 -0.1319  0.1860
19412TIP3   OH279726   4.306   3.999   1.038  0.2394 -0.2007  0.6351
19412TIP3    H179727   4.362   4.070   1.006  0.5743 -0.3038  0.9811
19412TIP3    H279728   4.248   4.040   1.101  0.5066 -0.2532  0.9165
19413TIP3   OH279729   1.311   4.769   1.485  0.0998  0.0329 -0.3385
19413TIP3    H179730   1.341   4.684   1.518  0.2555  0.0201 -0.5136
19413TIP3    H279731   1.216   4.768   1.499  0.2329  0.2232  0.5499
19414TIP3   OH279732   3.765   5.455   2.506 -0.0881 -0.1759  0.2753
19414TIP3    H179733   3.794   5.533   2.553 -1.2712 -0.5239  1.6373
19414TIP3    H279734   3.696   5.486   2.448 -0.3604 -0.1487  0.6093
19415TIP3   OH279735   6.754   6.182   1.170  0.3587  0.4236  0.1572
19415TIP3    H179736   6.818   6.154   1.105  0.6564 -1.1683  1.1097
19415TIP3    H279737   6.732   6.272   1.145  1.0250  0.0884 -1.6825
19416TIP3   OH279738   2.778   0.638   0.523  0.3550  0.2212  0.0519
19416TIP3    H179739   2.714   0.696   0.564  1.3707  0.1967  1.7003
19416TIP3    H279740   2.753   0.550   0.553  1.7618  0.3154  1.5295
19417TIP3   OH279741   3.591   3.923  15.825 -0.2962 -0.0409  0.4522
19417TIP3    H179742   3.619   3.838  15.793  0.2194  1.3019 -2.7790
19417TIP3    H279743   3.498   3.929  15.801  0.1436  1.0637 -1.0056
19418TIP3   OH279744   0.026   5.068  11.734  0.1021 -0.1838  0.7107
19418TIP3    H179745   0.021   5.016  11.814  0.4483 -1.7510 -0.2652
19418TIP3    H279746  -0.015   5.012  11.667  0.6850  0.7066 -0.3972
19419TIP3   OH279747   4.984   3.556  16.666  0.0972  0.4715  0.2108
19419TIP3    H179748   5.007   3.648  16.682 -0.8813  0.5135  1.4861
19419TIP3    H279749   5.053   3.506  16.709 -0.4113  0.6180  1.2350
19420TIP3   OH279750   0.983   5.699   5.375  0.7905 -0.1546 -0.0966
19420TIP3    H179751   0.957   5.790   5.391  0.3203 -0.4157  0.6663
19420TIP3    H279752   0.900   5.651   5.371  1.0734 -0.7097  0.5552
19421TIP3   OH279753   1.872   3.858  12.699  0.2675 -0.0001 -0.3245
19421TIP3    H179754   1.920   3.790  12.652  0.5780  0.4474 -0.6559
19421TIP3    H279755   1.936   3.900  12.755  0.1748  0.3151 -0.4502
19422TIP3   OH279756   5.169   3.618   5.749 -0.5475 -0.2023  0.7454
19422TIP3    H179757   5.252   3.637   5.706 -0.1051 -0.7804  1.3299
19422TIP3    H279758   5.128   3.704   5.760  0.1448  0.1287  0.7973
19423TIP3   OH279759   5.915   5.508  15.716 -0.3302  0.1118  0.1632
19423TIP3    H179760   5.837   5.487  15.768 -1.6428  0.5040 -1.5950
19423TIP3    H279761   5.987   5.465  15.762 -1.3674  0.8236  2.5576
19424TIP3   OH279762   3.181   4.469  11.663 -0.0040  0.1730 -0.2739
19424TIP3    H179763   3.196   4.417  11.585  0.2065 -0.8360  0.4304
19424TIP3    H279764   3.120   4.417  11.716  1.6455 -0.2516  1.2728
19425TIP3   OH279765   6.170   4.584   4.948 -0.4138  0.3984  0.1947
19425TIP3    H179766   6.254   4.630   4.959  0.3744 -1.3225  1.7586
19425TIP3    H279767   6.174   4.548   4.860  0.2192  0.9197  0.0053
19426TIP3   OH279768   0.454   0.678   2.791  0.0733  0.8127 -0.0792
19426TIP3    H179769   0.430   0.586   2.805 -0.4719  0.6150 -2.1673
19426TIP3    H279770   0.526   0.675   2.728  3.5041  1.5946  3.6138
19427TIP3   OH279771   1.450   6.577   5.307  0.1552  0.1206  0.7659
19427TIP3    H179772   1.401   6.521   5.368 -1.5563  0.9295  0.1596
19427TIP3    H279773   1.529   6.526   5.287 -0.0933 -0.9133  2.2889
19428TIP3   OH279774   4.390   3.160  16.123 -0.0695  0.5278  0.0518
19428TIP3    H179775   4.433   3.225  16.179 -0.1840 -0.6724  1.5625
19428TIP3    H279776   4.460   3.099  16.099 -0.5835 -0.5505  1.2377
19429TIP3   OH279777   4.699   4.937  16.316  0.1334 -0.2491 -0.7343
19429TIP3    H179778   4.703   4.844  16.339  0.1276 -0.6099 -2.1851
19429TIP3    H279779   4.648   4.940  16.236 -0.7256  1.1171 -0.1505
19430TIP3   OH279780   6.369   3.400  13.077 -0.0615  0.8061  0.1807
19430TIP3    H179781   6.407   3.461  13.140 -0.4199  0.6428  0.5619
19430TIP3    H279782   6.438   3.385  13.013  0.0788  1.4848  0.1744
19431TIP3   OH279783   0.983   5.459  13.755 -0.5132 -0.1002 -0.3728
19431TIP3    H179784   1.008   5.549  13.775  0.0789 -0.4411  0.4443
19431TIP3    H279785   1.022   5.441  13.670 -0.2177  0.2453 -0.3088
19432TIP3   OH279786   0.322   4.999  16.054 -0.1381 -0.6340 -0.4809
19432TIP3    H179787   0.351   5.080  16.012 -0.7906 -0.5740 -0.8215
19432TIP3    H279788   0.254   5.026  16.115  0.0489 -0.8543 -0.1789
19433TIP3   OH279789   6.309   5.285   4.496 -0.3377 -0.6078 -0.5395
19433TIP3    H179790   6.372   5.268   4.426  0.6466  0.2986  0.1134
19433TIP3    H279791   6.347   5.244   4.573  0.1803  1.1895  0.1833
19434TIP3   OH279792   0.828   2.640   3.624  0.0815 -0.3539  0.4179
19434TIP3    H179793   0.790   2.728   3.625  1.1332  0.0997  0.2229
19434TIP3    H279794   0.900   2.645   3.561  0.2445 -1.3161  0.5196
19435TIP3   OH279795   6.605   3.716  14.629 -0.8107  0.6439  0.3952
19435TIP3    H179796   6.619   3.805  14.662 -0.3831  0.6927  0.0918
19435TIP3    H279797   6.630   3.659  14.701  1.1223  0.7236 -0.1826
19436TIP3   OH279798   5.715   2.507  11.540  0.1753  0.0135  0.5311
19436TIP3    H179799   5.649   2.482  11.604 -0.4812  0.3658  0.0066
19436TIP3    H279800   5.766   2.575  11.583 -0.4610  0.4688  0.5750
19437TIP3   OH279801   1.345   5.675   1.393 -0.3195  0.1064  0.3520
19437TIP3    H179802   1.357   5.769   1.402  1.3824 -0.1438  0.8560
19437TIP3    H279803   1.265   5.656   1.442 -0.2259  1.1634  0.9250
19438TIP3   OH279804   1.738   0.340   5.671 -0.1310  0.4450 -0.1445
19438TIP3    H179805   1.673   0.286   5.626 -0.8463  2.0858 -1.1196
19438TIP3    H279806   1.688   0.387   5.738  0.4900 -0.0612  0.6977
19439TIP3   OH279807   4.459   3.229   0.243 -0.3423  0.0977 -0.3587
19439TIP3    H179808   4.435   3.308   0.195 -2.1259 -1.3018 -1.8825
19439TIP3    H279809   4.388   3.218   0.306  1.0549  0.9213  1.3835
19440TIP3   OH279810   5.411   6.166  16.342 -0.2751 -0.1231  0.0251
19440TIP3    H179811   5.385   6.200  16.427  0.1006  0.0020  0.0913
19440TIP3    H279812   5.483   6.105  16.361 -0.7866 -0.7681 -0.1173
19441TIP3   OH279813   2.236   1.959  14.060 -0.3272  0.1698  0.0663
19441TIP3    H179814   2.146   1.983  14.083 -0.4709  0.2560 -0.5958
19441TIP3    H279815   2.227   1.901  13.985  0.0832 -1.0411  0.9416
19442TIP3   OH279816   6.018   1.698   5.370 -0.1415 -0.3637 -0.2760
19442TIP3    H179817   6.045   1.667   5.284  1.2794  2.0735 -0.7513
19442TIP3    H279818   6.097   1.695   5.423 -0.0219  2.1695 -0.2679
19443TIP3   OH279819   2.291   2.101   0.953 -0.0263 -0.4299  0.2170
19443TIP3    H179820   2.200   2.093   0.924 -0.2051 -0.0493  0.6802
19443TIP3    H279821   2.312   2.194   0.943  0.6477 -0.6929 -0.8936
19444TIP3   OH279822   6.622   3.508  12.894  0.0006 -0.2319  1.2705
19444TIP3    H179823   6.655   3.555  12.970  1.0760 -0.9961  1.2842
19444TIP3    H279824   6.663   3.422  12.900  0.1279 -0.2824 -0.2015
19445TIP3   OH279825   3.545   1.191   2.662  0.6581  0.0367  1.0450
19445TIP3    H179826   3.602   1.135   2.609 -0.1969 -0.9280  1.1196
19445TIP3    H279827   3.562   1.164   2.752  1.6071  1.2031  1.2342
19446TIP3   OH279828   1.981   3.729  13.476 -0.7595 -0.0736 -0.7154
19446TIP3    H179829   1.998   3.807  13.422  1.3316 -0.7261 -1.0548
19446TIP3    H279830   1.897   3.747  13.518 -0.8050  1.9239 -1.5877
19447TIP3   OH279831   6.790   1.532  16.045 -0.4175 -0.2951 -0.0722
19447TIP3    H179832   6.827   1.491  15.967  0.8168 -0.1544  0.4160
19447TIP3    H279833   6.709   1.573  16.016 -1.5237 -2.8146 -0.6479
19448TIP3   OH279834   4.766   1.084   1.157  0.3314 -0.6296  0.1317
19448TIP3    H179835   4.812   1.161   1.190 -0.2073 -0.1213 -0.2701
19448TIP3    H279836   4.674   1.100   1.180  0.1182 -0.8152 -0.5734
19449TIP3   OH279837   2.655   3.940   3.007 -0.4014 -0.1225  0.5777
19449TIP3    H179838   2.593   3.905   2.943  1.2940 -1.4294 -0.4199
19449TIP3    H279839   2.639   4.034   3.007 -3.5357 -0.6037  1.6387
19450TIP3   OH279840   5.222   5.002   3.549  0.1360 -0.1273  0.2555
19450TIP3    H179841   5.169   5.020   3.627  0.4243 -1.8713  0.8780
19450TIP3    H279842   5.228   4.906   3.546  3.6708  0.0331  0.4648
19451TIP3   OH279843   4.318   6.747   0.272  0.2630  0.0711  0.1412
19451TIP3    H179844   4.298   6.818   0.211 -0.6689 -0.4154 -0.1174
19451TIP3    H279845   4.275   6.772   0.353 -1.1073 -0.7991 -0.3104
19452TIP3   OH279846   6.266   5.830  12.071  0.3401  0.1167 -0.5082
19452TIP3    H179847   6.308   5.863  12.151 -0.1441  1.9573 -0.9851
19452TIP3    H279848   6.179   5.871  12.071 -0.2488 -1.1136 -1.1827
19453TIP3   OH279849   5.610   4.574   5.108  0.1093 -0.2403  0.1288
19453TIP3    H179850   5.610   4.489   5.153  0.9698 -0.3788 -0.1144
19453TIP3    H279851   5.699   4.582   5.073 -0.5552 -0.1713 -1.5883
19454TIP3   OH279852   1.746   2.957   0.965 -0.5564 -0.2725  0.1292
19454TIP3    H179853   1.695   2.878   0.948  1.1714 -0.7050 -3.6618
19454TIP3    H279854   1.771   2.988   0.877  2.0030  2.3369  1.7011
19455TIP3   OH279855   3.860   5.708   0.241 -0.7299 -0.0821 -0.0115
19455TIP3    H179856   3.924   5.775   0.217 -0.5326  0.4003  1.7864
19455TIP3    H279857   3.858   5.648   0.166 -0.0239  1.2727 -1.1261
19456TIP3   OH279858   6.780   4.970   3.747 -0.4491  0.3783  0.1990
19456TIP3    H179859   6.756   4.950   3.656 -0.6242  0.0129  0.3235
19456TIP3    H279860   6.699   5.001   3.787  0.0970  2.5103 -0.3109
19457TIP3   OH279861   3.401   1.502   4.822  0.1619 -0.8071 -0.1680
19457TIP3    H179862   3.366   1.456   4.746  0.6527  0.4656 -1.1906
19457TIP3    H279863   3.484   1.458   4.842  0.7236 -0.2602 -1.2594
19458TIP3   OH279864   4.535   3.862  10.963  0.0483 -0.1586  0.0766
19458TIP3    H179865   4.466   3.823  11.015  1.4228 -1.0195  1.2832
19458TIP3    H279866   4.494   3.938  10.922 -1.4512 -0.3328  1.2147
19459TIP3   OH279867   4.554   0.996   2.520 -0.2109  0.1012 -0.2841
19459TIP3    H179868   4.497   0.956   2.586 -1.8996  3.2481  0.2563
19459TIP3    H279869   4.543   0.941   2.442 -0.0102 -2.2831  1.3052
19460TIP3   OH279870   6.273   0.155  13.761  0.2103 -0.5031  0.4348
19460TIP3    H179871   6.313   0.222  13.706  0.1954  0.0368  1.0738
19460TIP3    H279872   6.285   0.074  13.712  0.3219 -0.0506 -0.2974
19461TIP3   OH279873   6.267   3.196   2.711  0.4793 -0.3604  0.3175
19461TIP3    H179874   6.221   3.226   2.632  0.6031 -1.2288 -0.0806
19461TIP3    H279875   6.323   3.125   2.681  0.6244 -0.6075  1.1692
19462TIP3   OH279876   4.934   0.907   3.145 -1.3279  0.9003  0.5615
19462TIP3    H179877   4.994   0.981   3.150  0.2430 -0.2469 -0.5929
19462TIP3    H279878   4.886   0.920   3.063 -2.6752  1.8156  1.4831
19463TIP3   OH279879   3.924   5.680   3.417 -0.3025 -0.0646 -0.0442
19463TIP3    H179880   4.019   5.687   3.424 -0.0845  1.6642 -3.4736
19463TIP3    H279881   3.890   5.724   3.495  1.6802  1.0358  0.2091
19464TIP3   OH279882   5.454   1.765   6.224 -0.2782 -0.3172 -0.1695
19464TIP3    H179883   5.450   1.861   6.228 -0.0200 -0.2731 -0.9193
19464TIP3    H279884   5.408   1.742   6.144  0.6879 -0.7402 -0.6124
19465TIP3   OH279885   1.514   6.755  15.734 -0.1160  0.2898  0.4977
19465TIP3    H179886   1.435   6.802  15.708 -0.5670 -0.9437 -0.4553
19465TIP3    H279887   1.483   6.688  15.796  0.3280  0.4535  0.9017
19466TIP3   OH279888   0.645   0.729   3.024 -0.3171 -0.2391  0.0222
19466TIP3    H179889   0.559   0.687   3.023  1.0036 -3.1026  0.8638
19466TIP3    H279890   0.658   0.757   2.933 -1.4320 -1.3433 -0.5026
19467TIP3   OH279891   4.031   2.703   4.770  0.1091  0.0180  0.8672
19467TIP3    H179892   3.983   2.784   4.755 -1.0292 -0.6677  0.7656
19467TIP3    H279893   4.119   2.731   4.796  0.5749  1.2904 -1.9089
19468TIP3   OH279894   4.957   1.506  10.254 -0.8440  0.4736  0.0471
19468TIP3    H179895   4.946   1.601  10.264  0.8508  0.5504  1.2819
19468TIP3    H279896   4.935   1.470  10.340 -2.3024 -0.3582 -0.6488
19469TIP3   OH279897   5.369   3.703   1.608 -0.4557 -0.2509  0.1962
19469TIP3    H179898   5.369   3.607   1.606  1.4829 -0.3349  2.0828
19469TIP3    H279899   5.284   3.727   1.645 -1.4494 -1.1919 -1.4618
19470TIP3   OH279900   0.402   6.425  12.845  0.2670 -0.1338  0.3611
19470TIP3    H179901   0.408   6.438  12.939 -2.8722 -1.0978  0.7746
19470TIP3    H279902   0.436   6.506  12.807 -0.2248  1.0475  2.3802
19471TIP3   OH279903   3.715   5.431  15.992 -0.0901 -0.1527  0.0871
19471TIP3    H179904   3.689   5.405  15.903  1.1455  3.6004 -1.4529
19471TIP3    H279905   3.799   5.387  16.006 -0.5594 -1.2184 -0.3506
19472TIP3   OH279906   2.243   4.887   3.192  0.3956 -0.6231  0.2068
19472TIP3    H179907   2.297   4.966   3.191 -2.6632  1.5379 -1.2023
19472TIP3    H279908   2.199   4.889   3.277  0.5707 -0.9895  0.3061
19473TIP3   OH279909   2.383   0.042   5.338 -0.2918 -0.1451 -0.7639
19473TIP3    H179910   2.370   0.088   5.421 -0.6037 -0.1448 -0.8158
19473TIP3    H279911   2.302   0.056   5.289 -0.3575 -0.6815 -0.8115
19474TIP3   OH279912   0.359   4.549  11.888  0.0371 -0.3472  0.0167
19474TIP3    H179913   0.325   4.473  11.936  1.5535  0.1745  1.9713
19474TIP3    H279914   0.428   4.513  11.832 -1.5217 -0.9031 -1.6436
19475TIP3   OH279915   4.923   3.337  11.262  0.4991 -0.2573 -0.1800
19475TIP3    H179916   4.986   3.310  11.328 -0.8648 -1.0256  0.8302
19475TIP3    H279917   4.943   3.281  11.186  0.4491 -1.1631  0.4583
19476TIP3   OH279918   3.646   3.859   0.194  0.5678  0.4544 -0.2777
19476TIP3    H179919   3.741   3.867   0.185  0.6226  0.6691  0.4658
19476TIP3    H279920   3.626   3.898   0.279 -0.5719  3.1938 -1.7563
19477TIP3   OH279921   5.550   4.193   0.352 -0.5924  0.0362  0.3117
19477TIP3    H179922   5.622   4.255   0.365 -1.1348  0.6369  0.4685
19477TIP3    H279923   5.520   4.172   0.441 -1.4472  0.7770  0.2027
19478TIP3   OH279924   0.019   0.576   4.255  0.0105  0.5148 -0.7457
19478TIP3    H179925   0.098   0.522   4.251  0.2469  0.4278  3.2786
19478TIP3    H279926  -0.053   0.514   4.247  0.3067  0.1287 -0.4289
19479TIP3   OH279927   4.343   1.948   0.845 -0.2262 -0.6805  0.3141
19479TIP3    H179928   4.285   1.949   0.921 -0.0011  2.7503  0.4821
19479TIP3    H279929   4.373   1.857   0.840 -0.9177 -1.1631  3.7826
19480TIP3   OH279930   2.174   3.451  11.037  0.0350  0.1114 -0.3965
19480TIP3    H179931   2.170   3.540  11.003  0.5275 -0.2409 -1.3816
19480TIP3    H279932   2.095   3.408  11.003 -0.4795  0.3145  0.5124
19481TIP3   OH279933   2.914   2.170   0.179  0.1729  0.4023 -0.2892
19481TIP3    H179934   2.972   2.243   0.199  1.1162 -0.6796  1.0022
19481TIP3    H279935   2.879   2.142   0.263 -0.8519 -0.0922 -0.8614
19482TIP3   OH279936   0.726   3.992  12.449 -0.3649 -0.3937  0.0973
19482TIP3    H179937   0.744   3.964  12.360  2.1293  0.5276  0.2744
19482TIP3    H279938   0.811   3.987  12.494 -1.3736  0.1183  2.1459
19483TIP3   OH279939   5.596   1.913  16.247  0.5342  0.4182 -0.4348
19483TIP3    H179940   5.593   1.833  16.195 -0.3420  2.0378 -3.0058
19483TIP3    H279941   5.511   1.917  16.290  0.9871 -0.5608  0.5767
19484TIP3   OH279942   3.174   0.997   5.354  0.0531  0.6445  0.3645
19484TIP3    H179943   3.203   0.966   5.439 -0.3393 -0.1475  0.2105
19484TIP3    H279944   3.200   0.929   5.292 -0.7299  0.6486  0.0174
19485TIP3   OH279945   2.200   5.481  15.602 -0.1538  0.3187  0.3594
19485TIP3    H179946   2.158   5.517  15.679  0.3980 -0.5898  1.0885
19485TIP3    H279947   2.256   5.411  15.635 -0.2709 -0.3850 -0.9119
19486TIP3   OH279948   0.997   2.835   3.174  0.0005  0.0089 -0.2604
19486TIP3    H179949   0.931   2.767   3.184  1.3404 -0.9381  3.1705
19486TIP3    H279950   1.072   2.790   3.133  0.0728 -0.0297 -0.0876
19487TIP3   OH279951   4.330   1.890  14.439  0.0871  0.1234 -0.4622
19487TIP3    H179952   4.358   1.840  14.515 -0.4472  1.0944  0.3914
19487TIP3    H279953   4.239   1.914  14.458 -0.6127 -1.0475 -2.1636
19488TIP3   OH279954   4.473   5.263   0.279  0.1393 -0.3630 -0.0216
19488TIP3    H179955   4.383   5.295   0.271 -0.2091 -0.7847  2.0083
19488TIP3    H279956   4.506   5.303   0.359  1.7777 -0.2011 -0.7633
19489TIP3   OH279957   0.926   0.855  11.606 -0.1833  0.0458  0.5247
19489TIP3    H179958   0.831   0.857  11.621 -0.2430 -5.1747  1.7898
19489TIP3    H279959   0.964   0.889  11.687 -0.9676  0.5886  0.6674
19490TIP3   OH279960   3.850   0.261  15.532  0.0960 -0.2426 -0.1957
19490TIP3    H179961   3.926   0.208  15.506 -1.4347 -0.9426 -3.5479
19490TIP3    H279962   3.846   0.330  15.466 -0.0537  1.9856  2.0890
19491TIP3   OH279963   1.149   0.738  11.845  0.2289  0.2257  0.4246
19491TIP3    H179964   1.068   0.788  11.849  1.1875  1.6781  2.8900
19491TIP3    H279965   1.202   0.783  11.780 -0.1265  0.5562  0.3662
19492TIP3   OH279966   5.145   6.181   3.209  0.5513 -0.2562  0.4771
19492TIP3    H179967   5.077   6.120   3.238 -0.5865  0.3367 -0.9059
19492TIP3    H279968   5.103   6.232   3.140  2.0746  0.8482  0.3597
19493TIP3   OH279969   3.491   2.636  16.351 -0.0675  0.0122 -0.1542
19493TIP3    H179970   3.573   2.660  16.307 -0.7509  0.5466 -1.1310
19493TIP3    H279971   3.464   2.715  16.398  0.3303 -0.3703  0.7358
19494TIP3   OH279972   4.928   4.132   1.394 -0.1057  0.6913 -0.4808
19494TIP3    H179973   4.934   4.047   1.350 -1.9496 -0.0272  0.5419
19494TIP3    H279974   4.845   4.169   1.364 -1.5059  0.1024  2.3757
19495TIP3   OH279975   3.368   0.163  15.603  0.3149 -0.9743 -0.2394
19495TIP3    H179976   3.375   0.258  15.600 -1.1833 -0.7583  2.1555
19495TIP3    H279977   3.330   0.139  15.518 -0.6125  0.6825 -0.2995
19496TIP3   OH279978   0.937   5.919  10.959 -0.0596 -0.1644 -0.5431
19496TIP3    H179979   0.990   5.977  11.013  1.6737 -1.2314 -1.0547
19496TIP3    H279980   1.000   5.877  10.900 -1.1293 -3.0459  0.2515
19497TIP3   OH279981   1.933   4.318  14.340  0.2637  0.4402 -0.2385
19497TIP3    H179982   1.870   4.290  14.407 -0.9124  1.9692 -0.6961
19497TIP3    H279983   1.909   4.268  14.262 -1.4880  2.2282 -0.8955
19498TIP3   OH279984   2.148   0.902  15.971  1.1334  0.2399 -0.5287
19498TIP3    H179985   2.152   0.885  16.065 -1.0358 -1.6109 -0.7217
19498TIP3    H279986   2.219   0.964  15.955  1.3948  0.7627  2.3519
19499TIP3   OH279987   4.426   0.043  12.220 -0.0166 -0.5543  0.4902
19499TIP3    H179988   4.491   0.042  12.290 -0.2339  1.3271  0.7520
19499TIP3    H279989   4.453  -0.028  12.162  2.8933  0.7612  0.0963
19500TIP3   OH279990   0.738   5.955  13.885  0.0207 -0.0033 -0.2023
19500TIP3    H179991   0.692   5.888  13.835  0.5674  0.0855 -0.8259
19500TIP3    H279992   0.794   5.999  13.821  0.0640  0.6948  0.3114
19501TIP3   OH279993   1.525   3.139  10.534  0.6189  0.2444  0.6393
19501TIP3    H179994   1.581   3.094  10.471 -1.6766 -0.0618 -1.2548
19501TIP3    H279995   1.533   3.231  10.512  0.1296  0.1711  0.1419
19502TIP3   OH279996   2.068   1.913   0.525 -0.4724  0.8345 -0.1283
19502TIP3    H179997   2.000   1.896   0.591  0.7969 -1.7564  0.5907
19502TIP3    H279998   2.055   1.843   0.460  1.1338  0.6650 -0.2744
19503TIP3   OH279999   4.673   1.628  14.488  0.1350 -0.7218 -0.1121
19503TIP3    H180000   4.625   1.596  14.411 -0.5130 -0.9278  0.3708
19503TIP3    H280001   4.669   1.555  14.550  0.7904 -0.6123  0.0600
19504TIP3   OH280002   5.125   4.040  14.054 -0.1068 -0.2461 -0.4265
19504TIP3    H180003   5.072   3.960  14.052  0.2723 -0.5958  2.0034
19504TIP3    H280004   5.213   4.010  14.076  0.0202  0.8370  0.6108
19505TIP3   OH280005   2.427   3.838  13.659 -0.2137  0.1878 -0.0175
19505TIP3    H180006   2.341   3.832  13.699 -0.4983 -0.2539 -0.6744
19505TIP3    H280007   2.439   3.931  13.641  0.1246  0.4487  1.5169
19506TIP3   OH280008   0.853   4.880   5.879 -0.1198  0.4851 -0.7243
19506TIP3    H180009   0.868   4.810   5.942 -0.3398  1.0549 -0.0347
19506TIP3    H280010   0.908   4.858   5.804  1.0805  0.4510  0.1691
19507TIP3   OH280011   1.883   5.397  14.986 -0.2643 -0.0662 -0.4731
19507TIP3    H180012   1.969   5.371  14.951 -0.0264  0.1921 -0.0795
19507TIP3    H280013   1.874   5.348  15.068 -0.0446  0.6878  0.0043
19508TIP3   OH280014   5.979   6.020  13.898  0.5033  0.2864  0.2505
19508TIP3    H180015   6.059   6.019  13.845  0.1907  0.8562 -0.2283
19508TIP3    H280016   6.008   5.991  13.985  0.6554 -2.7601 -0.7339
19509TIP3   OH280017   3.866   1.091   3.949 -0.3355  0.0128 -0.4059
19509TIP3    H180018   3.926   1.087   4.023  0.8425 -0.7315 -1.3863
19509TIP3    H280019   3.793   1.035   3.975 -0.3328  0.4337  0.5370
19510TIP3   OH280020   6.728   0.169   1.528 -0.3057 -0.3002  0.3539
19510TIP3    H180021   6.702   0.215   1.608  2.3119 -0.5547  1.4279
19510TIP3    H280022   6.681   0.086   1.532 -0.7681 -0.0066  1.2706
19511TIP3   OH280023   5.591   0.898  13.689  0.3475  0.5263  0.1550
19511TIP3    H180024   5.656   0.829  13.702  0.5515  0.6928  0.0217
19511TIP3    H280025   5.507   0.857  13.712  0.5785  0.5030  0.9684
19512TIP3   OH280026   5.547   0.205   4.427 -0.4928  0.4029  0.0188
19512TIP3    H180027   5.473   0.170   4.477 -0.1761  1.3001  1.1350
19512TIP3    H280028   5.516   0.289   4.393 -0.0904  0.6377  0.2307
19513TIP3   OH280029   4.036   4.562   2.996  0.2032 -0.1803  0.4149
19513TIP3    H180030   4.064   4.540   2.907 -0.4152  1.2956 -0.1594
19513TIP3    H280031   3.943   4.582   2.987  0.2132  0.2824  1.3379
19514TIP3   OH280032   4.952   5.308  12.378 -0.5247  0.4749  0.3357
19514TIP3    H180033   4.960   5.394  12.420  3.4701 -0.6833  2.2138
19514TIP3    H280034   5.042   5.276  12.372 -1.8988 -3.5048 -0.5107
19515TIP3   OH280035   6.481   4.954  14.052  0.1465 -1.4719  0.2629
19515TIP3    H180036   6.386   4.952  14.053 -0.0071  2.4216 -0.1143
19515TIP3    H280037   6.504   4.952  13.959  0.3150 -0.1192  0.2636
19516TIP3   OH280038   0.160   3.323   1.938  0.8128 -0.0098  0.5926
19516TIP3    H180039   0.170   3.230   1.959  0.3315 -0.0503  0.6455
19516TIP3    H280040   0.080   3.349   1.984 -0.3517 -0.1412 -1.3319
19517TIP3   OH280041   6.465   6.775  15.778  0.0709 -0.1019  0.5243
19517TIP3    H180042   6.387   6.814  15.738 -0.7530 -2.2301 -0.0061
19517TIP3    H280043   6.520   6.850  15.801 -1.5415  1.3711 -0.2944
19518TIP3   OH280044   3.501   1.802   3.929  0.0544 -0.7622  0.4433
19518TIP3    H180045   3.553   1.872   3.889 -1.0538 -0.7553 -1.0160
19518TIP3    H280046   3.525   1.804   4.022  1.8692 -0.0841 -0.0371
19519TIP3   OH280047   2.550   0.479   0.062 -0.4256  0.0195 -0.0341
19519TIP3    H180048   2.596   0.537   0.001 -1.5297  0.2386 -0.6744
19519TIP3    H280049   2.536   0.533   0.140 -1.4778  0.6262 -0.6427
19520TIP3   OH280050   2.713   3.670  14.373  0.2482  0.6203 -0.0281
19520TIP3    H180051   2.795   3.712  14.349 -0.4727  1.3802 -1.2809
19520TIP3    H280052   2.656   3.685  14.297 -1.1986  0.5432  1.0172
19521TIP3   OH280053   0.060   3.476   0.922  0.3234 -0.1192 -0.1971
19521TIP3    H180054  -0.015   3.526   0.954  1.2902  0.7544  0.7830
19521TIP3    H280055   0.133   3.539   0.924  1.4221 -1.3768  0.4417
19522TIP3   OH280056   0.364   2.269  14.316  0.1701 -0.4683 -0.7114
19522TIP3    H180057   0.304   2.228  14.254 -2.0213  1.8244 -0.1621
19522TIP3    H280058   0.389   2.197  14.375 -2.2460 -1.4163 -0.7844
19523TIP3   OH280059   4.668   2.445  11.824  0.0964  0.3404  0.5467
19523TIP3    H180060   4.614   2.460  11.746  2.3994 -0.0690 -1.1627
19523TIP3    H280061   4.742   2.393  11.792  1.2371  0.4371  2.9582
19524TIP3   OH280062   3.303   1.356   4.628  0.4247 -0.7334  0.0226
19524TIP3    H180063   3.329   1.270   4.661 -0.6424 -1.4283 -0.8974
19524TIP3    H280064   3.209   1.349   4.615  0.5079  0.1922 -1.1857
19525TIP3   OH280065   1.002   0.781  11.320  0.2234 -0.0093 -0.2304
19525TIP3    H180066   0.959   0.753  11.400  0.8838  1.5483  0.7054
19525TIP3    H280067   1.080   0.828  11.350  0.6502  0.3143 -1.7900
19526TIP3   OH280068   6.439   5.116  17.008  0.4420  0.2698 -0.3365
19526TIP3    H180069   6.424   5.054  16.937  1.5978  0.8303 -1.0867
19526TIP3    H280070   6.511   5.077  17.059 -0.7666 -0.4202  0.8863
19527TIP3   OH280071   5.400   6.067  10.769 -0.1535 -0.1519 -0.1263
19527TIP3    H180072   5.401   6.160  10.791  0.9690 -0.5198  1.5730
19527TIP3    H280073   5.480   6.033  10.810  0.0387 -1.6444 -1.7030
19528TIP3   OH280074   0.388   1.612  15.233 -0.1377  0.3556  0.5424
19528TIP3    H180075   0.464   1.581  15.184 -0.5731 -2.1974  1.4279
19528TIP3    H280076   0.331   1.536  15.239 -1.8053  1.6791  1.7277
19529TIP3   OH280077   1.608   5.520   4.671  0.7659 -0.0108  0.4256
19529TIP3    H180078   1.687   5.474   4.642  0.5399 -0.7786  1.0084
19529TIP3    H280079   1.628   5.613   4.660  1.1598 -0.2591 -0.9403
19530TIP3   OH280080   4.251   6.375  14.410  0.0274 -0.0263 -0.1004
19530TIP3    H180081   4.282   6.387  14.500  1.4417 -0.3553 -0.5289
19530TIP3    H280082   4.235   6.281  14.403  1.8271 -0.3020 -0.7749
19531TIP3   OH280083   2.747   3.607   2.641 -0.3931 -0.4517 -0.2512
19531TIP3    H180084   2.672   3.665   2.655  0.7966  0.5600  2.2531
19531TIP3    H280085   2.709   3.519   2.637 -1.8832  0.2110 -0.8471
19532TIP3   OH280086   6.714   4.035  13.193  0.7483  0.5543  0.0267
19532TIP3    H180087   6.783   4.040  13.127 -0.7210 -2.1229 -1.7986
19532TIP3    H280088   6.758   3.997  13.269  1.4435 -0.6295 -0.9338
19533TIP3   OH280089   2.857   0.480   2.394 -0.5877  0.4315  0.4309
19533TIP3    H180090   2.845   0.514   2.306 -2.3216 -2.2917 -0.4597
19533TIP3    H280091   2.823   0.548   2.452  1.3696  2.6139 -0.9256
19534TIP3   OH280092   4.496   0.280  16.919 -0.2795 -0.3358  0.0369
19534TIP3    H180093   4.567   0.246  16.866 -2.1023 -0.6137 -2.3076
19534TIP3    H280094   4.496   0.374  16.902 -1.3895 -0.5403 -1.1162
19535TIP3   OH280095   4.119   5.203   2.073  0.6013 -0.4517 -0.4506
19535TIP3    H180096   4.069   5.247   2.004 -1.9734  0.8993  2.1511
19535TIP3    H280097   4.203   5.249   2.074  0.7771 -0.6505 -2.7891
19536TIP3   OH280098   3.329   6.172   1.731  0.7830 -0.3464  0.1663
19536TIP3    H180099   3.325   6.077   1.730  3.6855 -0.5282 -2.4359
19536TIP3    H280100   3.273   6.199   1.659 -0.7524 -0.0161  1.4662
19537TIP3   OH280101   6.110   2.814  13.562  0.5191 -0.6229  0.3192
19537TIP3    H180102   6.127   2.841  13.652 -2.4548 -0.2638  0.7971
19537TIP3    H280103   6.158   2.877  13.509 -1.0644  1.6984  1.5831
19538TIP3   OH280104   1.013   6.659  12.094  0.3169  0.0212  0.1643
19538TIP3    H180105   0.940   6.597  12.098 -0.7300  1.3202  2.0635
19538TIP3    H280106   1.008   6.698  12.007 -0.5641 -0.7278 -0.1234
19539TIP3   OH280107   2.614   1.570   5.003  0.1056 -0.1745 -0.3603
19539TIP3    H180108   2.682   1.636   5.015  0.9830 -0.9091 -1.1740
19539TIP3    H280109   2.657   1.487   5.025 -1.1816 -0.4119  1.3283
19540TIP3   OH280110   5.011   1.643   2.671  0.1575 -0.6448 -0.2722
19540TIP3    H180111   4.950   1.571   2.687  0.9111 -1.4886 -1.1599
19540TIP3    H280112   5.002   1.699   2.748 -2.4359 -0.2483 -0.8331
19541TIP3   OH280113   5.505   4.970  14.792 -0.1206  0.3294  0.4468
19541TIP3    H180114   5.487   4.890  14.743  4.3278 -0.7606  0.4414
19541TIP3    H280115   5.585   5.005  14.753  0.2235  2.6244  3.0817
19542TIP3   OH280116   6.291   2.236  12.940 -0.6165 -0.2660 -0.3250
19542TIP3    H180117   6.272   2.168  12.876 -1.9183 -1.7225  1.5838
19542TIP3    H280118   6.335   2.191  13.012  1.1951  1.4222 -0.3132
19543TIP3   OH280119   2.713   6.436   4.074  1.1305 -0.4806 -0.0350
19543TIP3    H180120   2.628   6.445   4.117  1.5454 -1.8534  1.1057
19543TIP3    H280121   2.748   6.525   4.071  0.8070 -0.2711  1.8979
19544TIP3   OH280122   0.949   2.917   2.636  0.6018  0.5213 -0.2336
19544TIP3    H180123   0.932   2.917   2.731  0.3822  0.9248 -0.2716
19544TIP3    H280124   1.040   2.891   2.629 -0.0817 -2.1133 -0.0512
19545TIP3   OH280125   4.408   3.758   5.178 -0.7215 -0.3339 -0.1766
19545TIP3    H180126   4.474   3.729   5.115  0.4039  2.6008 -0.4103
19545TIP3    H280127   4.330   3.775   5.124 -0.7195 -0.8243 -0.3380
19546TIP3   OH280128   0.283   3.244   6.465  0.3130 -0.1535  0.3464
19546TIP3    H180129   0.298   3.159   6.424  2.1945 -0.0781  0.8439
19546TIP3    H280130   0.218   3.227   6.533  0.5453 -1.1565  0.3214
19547TIP3   OH280131   4.448   5.644   5.564  0.5005  0.4571  0.3140
19547TIP3    H180132   4.420   5.582   5.498  1.3287  1.3581 -0.8971
19547TIP3    H280133   4.532   5.611   5.595  1.5923  1.6493 -1.2842
19548TIP3   OH280134   4.311   4.770  14.247 -0.2703  0.2935  0.0297
19548TIP3    H180135   4.395   4.808  14.269 -0.3631  0.3589  0.2714
19548TIP3    H280136   4.315   4.681  14.282 -1.4522  1.2567  2.8042
19549TIP3   OH280137   6.209   6.535  12.730 -0.3806  0.0384 -1.2946
19549TIP3    H180138   6.277   6.575  12.675 -0.7636  1.0363 -1.0623
19549TIP3    H280139   6.148   6.607  12.748 -0.5736 -0.4281 -0.0665
19550TIP3   OH280140   0.058   0.809   2.288  0.0994  0.1537 -0.4357
19550TIP3    H180141   0.080   0.895   2.255  0.0488  0.0117 -0.8416
19550TIP3    H280142   0.027   0.760   2.211  0.5260 -0.3559 -0.2882
19551TIP3   OH280143   6.180   3.824   1.570 -0.1626  0.0523 -0.0508
19551TIP3    H180144   6.171   3.783   1.656  0.9707 -0.7089 -0.2972
19551TIP3    H280145   6.235   3.901   1.586  0.2975 -0.2561 -0.1490
19552TIP3   OH280146   3.708   6.257   4.613  0.0314  0.1935 -0.2937
19552TIP3    H180147   3.715   6.170   4.653  0.4736 -0.9649 -2.8231
19552TIP3    H280148   3.659   6.242   4.533  0.6848  2.1857 -1.0709
19553TIP3   OH280149   2.473   4.284   6.357 -0.2653  0.5776  0.4446
19553TIP3    H180150   2.411   4.220   6.322  1.1924 -0.4153 -0.3562
19553TIP3    H280151   2.437   4.369   6.330 -0.5787 -0.0524 -1.1671
19554TIP3   OH280152   2.260   2.071   3.702 -0.3277 -0.1647 -0.7014
19554TIP3    H180153   2.250   2.114   3.787  0.2594  0.7783 -1.1054
19554TIP3    H280154   2.257   1.978   3.722  0.8348  0.0323  0.4984
19555TIP3   OH280155   2.936   2.391   5.533 -0.2566 -0.1714  0.0358
19555TIP3    H180156   2.887   2.436   5.465  0.7224 -0.8669 -1.1634
19555TIP3    H280157   2.882   2.315   5.557 -1.0639  0.6264  0.7647
19556TIP3   OH280158   3.437   4.881  14.227  0.1146  0.2344 -0.1886
19556TIP3    H180159   3.487   4.825  14.286 -3.1878 -0.4394  2.1244
19556TIP3    H280160   3.424   4.962  14.276 -2.4511 -0.2413 -0.0128
19557TIP3   OH280161   2.806   5.255   3.240  0.5203 -0.0668 -0.3627
19557TIP3    H180162   2.893   5.294   3.243  0.6513 -0.4929  1.3876
19557TIP3    H280163   2.748   5.329   3.223  1.0406  0.4993  0.3024
19558TIP3   OH280164   6.016   2.155   3.840  0.2399 -0.1428 -0.6149
19558TIP3    H180165   6.043   2.084   3.782 -2.8653 -2.1444  0.2885
19558TIP3    H280166   6.030   2.121   3.928  1.8715  1.6819 -0.1101
19559TIP3   OH280167   2.242   1.526   4.630  0.2187  0.2490 -0.1163
19559TIP3    H180168   2.326   1.513   4.585  0.7201  1.4152  0.4581
19559TIP3    H280169   2.263   1.519   4.723 -0.4731 -0.2342  0.0073
19560TIP3   OH280170   6.535   5.110  12.178 -0.0579  0.3789 -0.1683
19560TIP3    H180171   6.459   5.065  12.141 -0.3834  1.6379 -1.0363
19560TIP3    H280172   6.498   5.168  12.245  0.3170 -0.2786  0.6204
19561TIP3   OH280173   1.914   4.810   2.692 -0.0874 -0.0002 -0.0133
19561TIP3    H180174   1.832   4.826   2.739 -0.1174  0.1685 -0.1217
19561TIP3    H280175   1.902   4.855   2.608 -0.0954 -0.4245 -0.2469
19562TIP3   OH280176   3.196   0.514   4.399 -0.3432 -0.2056  0.4323
19562TIP3    H180177   3.161   0.531   4.311  3.1853 -1.0191 -1.2355
19562TIP3    H280178   3.189   0.598   4.444 -1.2019  0.5205 -0.9984
19563TIP3   OH280179   4.773   2.798  16.895  0.3936 -0.9918  0.3418
19563TIP3    H180180   4.759   2.885  16.857  1.3286 -0.5372  1.0127
19563TIP3    H280181   4.849   2.763  16.847 -0.6952 -1.9231 -0.7363
19564TIP3   OH280182   5.334   1.932  14.442 -0.0580  0.6076 -0.0707
19564TIP3    H180183   5.303   1.859  14.387  1.4297  0.5658 -0.8689
19564TIP3    H280184   5.383   1.889  14.512 -1.3135  0.7098  0.8924
19565TIP3   OH280185   5.719   3.811   2.729 -0.5756 -0.1983  0.1712
19565TIP3    H180186   5.757   3.726   2.708 -0.8313 -0.6878  1.6720
19565TIP3    H280187   5.794   3.871   2.729 -0.0674 -0.8153  1.2213
19566TIP3   OH280188   4.149   2.421  10.706  0.3570  0.7569 -0.0441
19566TIP3    H180189   4.159   2.327  10.719  0.2240  0.5114 -1.5960
19566TIP3    H280190   4.114   2.454  10.789 -1.7575 -0.9124 -0.2431
19567TIP3   OH280191   5.948   2.401   2.712  0.0946 -0.5890  0.4950
19567TIP3    H180192   5.956   2.378   2.620  2.0811  0.9708  0.2366
19567TIP3    H280193   5.939   2.317   2.757 -0.5583 -1.3811 -1.0778
19568TIP3   OH280194   2.835   5.430   4.282 -0.6850  0.0507 -0.1992
19568TIP3    H180195   2.821   5.433   4.187 -0.1308  1.1513 -0.2537
19568TIP3    H280196   2.857   5.520   4.306  1.2481 -0.6226  0.6422
19569TIP3   OH280197   0.396   1.350  14.142 -0.1707 -0.0103 -0.4950
19569TIP3    H180198   0.439   1.342  14.227 -0.9395  0.4931 -0.0491
19569TIP3    H280199   0.332   1.420  14.154 -1.4497 -1.0578 -0.9995
19570TIP3   OH280200   5.759   3.591  11.661  0.3412 -0.1886  0.2938
19570TIP3    H180201   5.803   3.674  11.682  1.9500 -0.9801  0.1123
19570TIP3    H280202   5.684   3.618  11.607  0.3575  1.2162  0.9333
19571TIP3   OH280203   1.456   6.212   1.229  0.0132  0.0307 -0.1714
19571TIP3    H180204   1.508   6.140   1.265 -0.3918 -0.4359 -0.5163
19571TIP3    H280205   1.425   6.260   1.306  0.9112  0.2798  0.0347
19572TIP3   OH280206   3.484   6.776   2.460 -0.6025  0.8032  0.0900
19572TIP3    H180207   3.465   6.693   2.416 -1.5531  1.3833 -0.6364
19572TIP3    H280208   3.400   6.803   2.496 -0.7614  2.4503 -1.4573
19573TIP3   OH280209   1.011   0.291   4.469 -0.1976 -0.5156 -0.3596
19573TIP3    H180210   0.992   0.384   4.458  2.3706  0.0292 -0.4801
19573TIP3    H280211   0.991   0.273   4.561  0.5955  0.4911  0.0146
19574TIP3   OH280212   2.777   0.030  16.283  0.2421 -0.6650  0.1751
19574TIP3    H180213   2.818   0.053  16.200  0.1372 -0.8592  0.0715
19574TIP3    H280214   2.828   0.078  16.348 -0.4015  0.4171 -0.1062
19575TIP3   OH280215   3.062   6.161  11.624 -0.3989  0.0772 -0.0202
19575TIP3    H180216   3.015   6.206  11.554 -0.4576  0.1180  0.0459
19575TIP3    H280217   3.046   6.068  11.609  1.7767 -0.0784 -1.6275
19576TIP3   OH280218   0.009   1.451   6.004 -0.3547 -0.1317 -0.1906
19576TIP3    H180219  -0.073   1.499   6.006 -0.0522  0.5221 -2.2463
19576TIP3    H280220   0.028   1.431   6.096 -0.2704  4.0253  0.7703
19577TIP3   OH280221   5.385   0.511   3.589 -0.0379 -0.3562  0.2224
19577TIP3    H180222   5.442   0.587   3.575 -0.3060 -0.4081 -1.2975
19577TIP3    H280223   5.301   0.538   3.554 -0.8765 -0.4056  2.1587
19578TIP3   OH280224   4.007   1.776   0.622  0.4434  0.2526  1.0164
19578TIP3    H180225   4.038   1.693   0.658  1.7623  0.8629  1.3331
19578TIP3    H280226   3.915   1.760   0.599  1.5630 -2.2972 -2.0658
19579TIP3   OH280227   3.277   4.019   5.787  0.6628  0.3445  0.1471
19579TIP3    H180228   3.326   4.081   5.843  2.2249 -2.2157  1.7179
19579TIP3    H280229   3.187   4.027   5.817  1.3036 -0.1714  2.3020
19580TIP3   OH280230   0.306   3.789  16.334  0.1778  0.2949  0.5890
19580TIP3    H180231   0.367   3.716  16.321 -1.8890 -1.6328  1.3465
19580TIP3    H280232   0.315   3.810  16.427  0.5295  0.8124  0.4417
19581TIP3   OH280233   5.411   4.140  12.579  0.1870 -0.0172 -0.0401
19581TIP3    H180234   5.337   4.162  12.524  0.1443  0.9023  0.3702
19581TIP3    H280235   5.484   4.192  12.543  0.0282  1.0226  1.0811
19582TIP3   OH280236   1.217   6.225  13.152 -0.4635  0.3926  0.6550
19582TIP3    H180237   1.160   6.291  13.113 -2.8392  0.2403  3.7446
19582TIP3    H280238   1.165   6.144  13.151  1.0745 -0.6316  0.1999
19583TIP3   OH280239   6.732   1.408  13.329 -0.0691  0.1109  0.5606
19583TIP3    H180240   6.784   1.482  13.362 -0.6527 -0.0935  1.9968
19583TIP3    H280241   6.642   1.428  13.356 -0.5027 -0.2865 -0.5549
19584TIP3   OH280242   3.181   5.280   0.489  0.2349  0.6159  0.0363
19584TIP3    H180243   3.093   5.255   0.515  1.5094 -0.6732  3.4290
19584TIP3    H280244   3.195   5.366   0.527  0.6872  0.4644  0.2288
19585TIP3   OH280245   4.313   0.147   3.949 -0.3033 -0.0152 -0.1077
19585TIP3    H180246   4.361   0.205   3.888  0.9549  0.7487  1.5588
19585TIP3    H280247   4.370   0.070   3.958 -0.7935 -0.4113 -0.3855
19586TIP3   OH280248   6.308   5.647   2.462  0.4107  0.1616  0.0310
19586TIP3    H180249   6.331   5.669   2.372 -0.5337  0.4841 -0.1363
19586TIP3    H280250   6.213   5.634   2.461  0.5835 -1.2392  0.6994
19587TIP3   OH280251   3.370   0.352   6.424 -0.3485 -0.1280 -0.3643
19587TIP3    H180252   3.393   0.296   6.498 -1.6234  0.9054  0.8272
19587TIP3    H280253   3.454   0.383   6.390  0.2101 -0.0401  1.0909
19588TIP3   OH280254   2.329   4.215   1.974  0.1482 -0.5561  0.8077
19588TIP3    H180255   2.311   4.306   1.997 -2.8537 -1.2615  1.4996
19588TIP3    H280256   2.322   4.213   1.878 -2.4754 -0.5271  0.9556
19589TIP3   OH280257   6.043   6.276  14.784  0.4193 -0.6023 -0.2213
19589TIP3    H180258   6.044   6.234  14.870 -1.8689 -0.7486 -0.2322
19589TIP3    H280259   6.105   6.348  14.792 -2.2337  1.4877  2.6832
19590TIP3   OH280260   2.110   2.410  12.614 -0.5334  0.1732  0.3161
19590TIP3    H180261   2.029   2.453  12.641 -0.1257  0.5353  0.9804
19590TIP3    H280262   2.177   2.477  12.624 -0.0323 -0.3455  0.4974
19591TIP3   OH280263   4.943   1.250   0.492  0.6215 -0.1206 -0.3117
19591TIP3    H180264   4.952   1.162   0.457  1.3696 -0.0873 -0.2075
19591TIP3    H280265   4.953   1.307   0.416 -1.5742 -0.1692 -0.6730
19592TIP3   OH280266   6.261   3.184  13.280  0.1086 -0.0121 -0.2352
19592TIP3    H180267   6.302   3.234  13.209 -1.6959  0.2874 -1.0905
19592TIP3    H280268   6.170   3.173  13.253  0.3336 -3.3769  0.1634
19593TIP3   OH280269   2.505   3.927   3.728 -0.0977  0.3944  0.5439
19593TIP3    H180270   2.445   3.984   3.774 -1.6866 -0.2003 -0.7309
19593TIP3    H280271   2.527   3.858   3.791 -0.8418  0.5602  0.9844
19594TIP3   OH280272   0.570   6.362  13.339 -0.4564  0.2547  0.3526
19594TIP3    H180273   0.639   6.307  13.377 -0.5365  0.8592  1.3695
19594TIP3    H280274   0.570   6.338  13.246  1.7932  0.9282  0.1462
19595TIP3   OH280275   5.240   4.365   3.613 -0.0397 -0.1934  0.1310
19595TIP3    H180276   5.163   4.309   3.613 -0.8595  0.9089  0.8099
19595TIP3    H280277   5.209   4.449   3.647  1.5747  0.1051  0.9357
19596TIP3   OH280278   1.162   2.860   1.560  0.1653 -0.0629  0.5869
19596TIP3    H180279   1.146   2.780   1.510  0.2978  1.0165 -1.2011
19596TIP3    H280280   1.082   2.873   1.611 -0.4154 -0.5574 -0.2002
19597TIP3   OH280281   3.592   3.487  13.425 -0.0909 -0.3000 -0.1232
19597TIP3    H180282   3.502   3.455  13.424  0.0952 -0.7996 -0.8113
19597TIP3    H280283   3.612   3.497  13.518 -0.2273 -1.9992  0.1147
19598TIP3   OH280284   6.442   3.554  13.290  0.1062  0.0480 -0.2133
19598TIP3    H180285   6.533   3.581  13.282  0.3878 -0.5455  0.9381
19598TIP3    H280286   6.393   3.621  13.242  1.1520  0.2808 -0.9678
19599TIP3   OH280287   2.173   4.703   2.555  0.3133  0.4285 -0.2554
19599TIP3    H180288   2.125   4.707   2.637  1.7136  1.8290  0.4972
19599TIP3    H280289   2.146   4.619   2.516 -1.7959  0.6280  0.7049
19600TIP3   OH280290   1.098   3.436   1.703  0.2791  0.0784 -0.2386
19600TIP3    H180291   1.030   3.499   1.726 -1.4745 -1.1430 -1.9004
19600TIP3    H280292   1.179   3.477   1.731 -1.0198  2.1862  0.5388
19601TIP3   OH280293   2.416   2.680  10.675 -0.4573  0.0568 -0.2907
19601TIP3    H180294   2.483   2.612  10.673 -3.1227 -2.6678 -0.5768
19601TIP3    H280295   2.445   2.744  10.610  2.4685 -0.4154  0.5007
19602TIP3   OH280296   2.166   1.506  11.722  0.4740 -0.0382 -0.9867
19602TIP3    H180297   2.222   1.511  11.644  0.1392  0.4138 -1.1964
19602TIP3    H280298   2.138   1.414  11.725  1.4324 -0.3247 -0.7371
19603TIP3   OH280299   3.666   2.535   0.989  0.4402  0.6413 -0.1100
19603TIP3    H180300   3.737   2.485   0.948  0.7822  0.0932  1.1201
19603TIP3    H280301   3.638   2.480   1.062 -0.5558  1.3339  0.0365
19604TIP3   OH280302   1.615   3.335   5.130 -0.3028 -0.6670  0.5764
19604TIP3    H180303   1.644   3.418   5.094 -0.3102 -0.6823  0.5364
19604TIP3    H280304   1.526   3.324   5.096 -0.4492 -0.5008  0.8939
19605TIP3   OH280305   3.634   3.256  13.243  0.4898 -0.0162  0.1121
19605TIP3    H180306   3.604   3.341  13.275  0.8245 -0.1416  0.7589
19605TIP3    H280307   3.634   3.200  13.320 -1.5835 -1.1408 -0.6599
19606TIP3   OH280308   4.886   0.492   1.810  0.6404  0.1283 -0.1325
19606TIP3    H180309   4.938   0.572   1.802  0.0244  0.5393 -0.0604
19606TIP3    H280310   4.935   0.439   1.874  1.1859  0.3346 -0.3750
19607TIP3   OH280311   2.636   5.161  12.749  0.2006  0.1100  0.2177
19607TIP3    H180312   2.556   5.164  12.802  0.0533 -0.6645  0.0476
19607TIP3    H280313   2.609   5.120  12.667  0.0754  2.7038 -1.1078
19608TIP3   OH280314   5.564   3.568   3.306 -0.0498 -0.1627  0.4207
19608TIP3    H180315   5.593   3.616   3.383  1.1328  0.3863 -0.3494
19608TIP3    H280316   5.559   3.635   3.237  1.4080 -1.0958 -0.6143
19609TIP3   OH280317   6.618   6.061   4.991  0.3249 -0.2249  0.4829
19609TIP3    H180318   6.574   6.146   4.993  0.5182 -0.1306  0.7950
19609TIP3    H280319   6.595   6.024   4.906  1.3462  0.7327 -0.2246
19610TIP3   OH280320   5.947   3.413   5.004  0.4835 -0.1846  0.1754
19610TIP3    H180321   5.865   3.460   5.014  0.7580  0.3256  0.0717
19610TIP3    H280322   5.925   3.336   4.953  0.1159  0.0777 -0.0640
19611TIP3   OH280323   2.287   6.726  12.999 -0.1640 -0.3111 -0.2515
19611TIP3    H180324   2.355   6.659  13.009 -0.7884 -1.2547 -2.0428
19611TIP3    H280325   2.213   6.679  12.959 -1.4589  0.9488  0.6192
19612TIP3   OH280326   2.865   0.660   1.323  0.0513  0.4376  0.0402
19612TIP3    H180327   2.935   0.689   1.381  1.4087 -0.8787 -0.8830
19612TIP3    H280328   2.855   0.567   1.343  1.6831 -0.4441 -2.9100
19613TIP3   OH280329   1.571   2.251  12.596 -0.7877 -0.2134  0.1166
19613TIP3    H180330   1.534   2.339  12.598 -0.4750 -0.0832  0.1847
19613TIP3    H280331   1.543   2.211  12.679 -0.9067 -0.1685  0.0971
19614TIP3   OH280332   2.434   2.100   2.572  0.0199  0.5985 -0.6742
19614TIP3    H180333   2.399   2.079   2.659  2.2954  0.3678  0.2112
19614TIP3    H280334   2.469   2.018   2.539 -0.5876  0.7475 -1.7026
19615TIP3   OH280335   5.285   6.509   3.107  0.2841 -0.3427 -0.3420
19615TIP3    H180336   5.216   6.449   3.080 -0.0763 -0.3207  0.5107
19615TIP3    H280337   5.268   6.526   3.200  1.9475 -1.0281  0.1071
19616TIP3   OH280338   2.938   4.918  16.817 -0.1028 -0.2572  0.8368
19616TIP3    H180339   2.968   4.877  16.898  0.6386  0.3437  0.8744
19616TIP3    H280340   3.004   4.893  16.752 -0.0328  0.2885  0.6995
19617TIP3   OH280341   4.504   0.318  11.833  0.2757  0.1949 -0.3735
19617TIP3    H180342   4.594   0.333  11.802  0.2403  0.5516 -0.2995
19617TIP3    H280343   4.500   0.223  11.846 -0.2208 -0.1741 -3.0164
19618TIP3   OH280344   4.332   4.287   0.103  0.6009  0.1368  0.2301
19618TIP3    H180345   4.418   4.319   0.133 -0.2206  2.3024  0.3726
19618TIP3    H280346   4.296   4.360   0.053 -1.5580 -0.4062  0.9584
19619TIP3   OH280347   0.904   4.221   1.834  0.6758  0.1336  0.0171
19619TIP3    H180348   0.887   4.128   1.818 -1.7786 -0.0371  3.0188
19619TIP3    H280349   0.818   4.259   1.851  1.7792  2.6876  0.1916
19620TIP3   OH280350   3.777   1.827   1.384 -0.4681  0.1992 -0.1541
19620TIP3    H180351   3.790   1.810   1.478  2.3028  2.3745 -0.0888
19620TIP3    H280352   3.691   1.869   1.379 -1.3543 -1.3695  1.2038
19621TIP3   OH280353   5.391   5.086   3.808  0.2148 -0.4620 -0.6705
19621TIP3    H180354   5.399   5.145   3.733  0.4736  0.8121  0.3561
19621TIP3    H280355   5.384   5.143   3.884  2.3225 -1.7272  0.5357
19622TIP3   OH280356   4.017   2.843   5.258  0.3484 -1.0217 -0.1702
19622TIP3    H180357   4.006   2.894   5.177  0.7245  0.5884  0.7657
19622TIP3    H280358   3.987   2.902   5.327 -1.2785 -2.8880  0.7438
19623TIP3   OH280359   5.825   1.552  15.287  0.0332  0.2866  0.0603
19623TIP3    H180360   5.752   1.614  15.285 -0.9384 -0.8503 -0.6465
19623TIP3    H280361   5.900   1.601  15.254 -1.0870  0.6215 -2.0482
19624TIP3   OH280362   6.474   1.269   2.890 -0.0117 -0.3531  0.1079
19624TIP3    H180363   6.472   1.343   2.950 -0.9276  0.9783 -1.5081
19624TIP3    H280364   6.566   1.264   2.862 -0.0317  0.5111 -0.1441
19625TIP3   OH280365   0.834   4.885  14.797  0.2624  0.1001  0.3698
19625TIP3    H180366   0.766   4.949  14.776  0.8534  1.0691  1.3051
19625TIP3    H280367   0.821   4.867  14.890 -1.0010 -2.5151 -0.2638
19626TIP3   OH280368   4.638   1.596   1.097  0.1334 -0.2854  0.3400
19626TIP3    H180369   4.708   1.632   1.151 -0.0492 -1.8403  1.6136
19626TIP3    H280370   4.682   1.536   1.037 -0.1360 -1.3735  1.2378
19627TIP3   OH280371   4.865   3.853   4.664 -0.3667  0.1975  0.1635
19627TIP3    H180372   4.818   3.923   4.708 -0.8068 -0.5926  0.9456
19627TIP3    H280373   4.808   3.826   4.592 -1.3421 -1.1070  1.4181
19628TIP3   OH280374   3.686   0.166   1.256  0.2513  0.0509  0.2342
19628TIP3    H180375   3.762   0.179   1.313  1.2334  0.7699 -1.1945
19628TIP3    H280376   3.707   0.217   1.178 -0.4429 -2.0386 -1.3378
19629TIP3   OH280377   4.079   6.219  12.269 -0.0380 -0.2032 -0.4734
19629TIP3    H180378   4.098   6.135  12.311 -1.3760 -1.2453 -1.8938
19629TIP3    H280379   4.165   6.255  12.247  0.5324 -1.5202 -0.4552
19630TIP3   OH280380   2.627   0.837  13.917  0.1798 -0.1007 -0.2715
19630TIP3    H180381   2.650   0.760  13.967 -0.7075 -1.0830 -1.3538
19630TIP3    H280382   2.686   0.905  13.949  1.1260 -1.2796  0.5163
19631TIP3   OH280383   1.753   2.953   4.562 -0.2691 -0.4267  0.0858
19631TIP3    H180384   1.679   2.996   4.603  0.1453 -0.0987  0.4985
19631TIP3    H280385   1.743   2.860   4.584  0.1811 -0.1925  1.2898
19632TIP3   OH280386   0.772   1.368  15.144 -0.3678 -0.9855  1.0853
19632TIP3    H180387   0.709   1.438  15.128  0.2780 -0.5503  0.4007
19632TIP3    H280388   0.829   1.403  15.213 -0.2887 -0.9931  1.0241
19633TIP3   OH280389   5.766   0.278   3.553  0.0316  0.1670  0.3093
19633TIP3    H180390   5.809   0.194   3.569 -0.2906 -0.0312  0.1435
19633TIP3    H280391   5.731   0.270   3.464 -0.6474  0.1949  0.5689
19634TIP3   OH280392   0.799   3.543  16.298 -0.2029 -0.3826  0.2860
19634TIP3    H180393   0.849   3.473  16.340 -0.1629 -0.1900  0.5626
19634TIP3    H280394   0.863   3.613  16.283 -0.5170  0.1185  1.2267
19635TIP3   OH280395   5.282   5.920   0.509  0.3987  0.5726  0.0411
19635TIP3    H180396   5.305   5.981   0.439 -1.2960  0.3489 -0.7407
19635TIP3    H280397   5.189   5.902   0.496  0.4635 -0.8288  1.3116
19636TIP3   OH280398   3.521   1.453   5.987  0.1234 -0.2448  0.3505
19636TIP3    H180399   3.560   1.444   6.074 -1.6084  2.0331  1.4234
19636TIP3    H280400   3.437   1.408   5.994 -0.4853  0.8617  0.1979
19637TIP3   OH280401   1.886   1.249   1.260  0.7637 -0.9035 -0.4449
19637TIP3    H180402   1.906   1.324   1.315  0.6370 -2.3758  1.6531
19637TIP3    H280403   1.918   1.274   1.173 -0.9730  2.3369 -0.2512
19638TIP3   OH280404   4.740   1.399  11.143  0.2851  0.1373 -0.4100
19638TIP3    H180405   4.771   1.381  11.054 -2.2266 -0.0150 -1.2951
19638TIP3    H280406   4.702   1.486  11.138 -1.1701 -0.4612  0.1641
19639TIP3   OH280407   4.075   1.278  12.607 -0.6027 -0.0130 -0.1362
19639TIP3    H180408   3.986   1.248  12.626  0.2120 -3.1400 -1.0143
19639TIP3    H280409   4.075   1.295  12.513 -0.8689  2.1917  0.2428
19640TIP3   OH280410   0.722   3.781   2.757  0.0661  0.0835  0.1867
19640TIP3    H180411   0.675   3.779   2.839 -0.0517  1.3351  0.1689
19640TIP3    H280412   0.811   3.807   2.781  0.3662 -0.8286  0.0634
19641TIP3   OH280413   1.967   1.731  11.117 -0.8907  0.0811 -0.2184
19641TIP3    H180414   2.053   1.766  11.093 -0.9004  0.0001 -0.3718
19641TIP3    H280415   1.973   1.717  11.211 -1.1167  1.1278 -0.0454
19642TIP3   OH280416   2.754   6.135  11.754 -0.3086 -0.4307 -0.8858
19642TIP3    H180417   2.781   6.045  11.774 -1.6032 -0.4052  1.1589
19642TIP3    H280418   2.836   6.182  11.738  0.5051 -1.5272 -0.0222
19643TIP3   OH280419   3.648   3.570   0.789  0.3371  0.7479  0.1460
19643TIP3    H180420   3.594   3.642   0.757 -0.4320  0.1041 -0.0107
19643TIP3    H280421   3.617   3.493   0.742  1.0350  0.2728  0.4454
19644TIP3   OH280422   4.228   3.993  10.786  0.0531  0.2952 -0.9921
19644TIP3    H180423   4.249   3.903  10.812 -1.0145  0.2029 -0.4539
19644TIP3    H280424   4.208   3.987  10.693  1.1937  0.1799 -1.2345
19645TIP3   OH280425   4.281   3.926  12.800 -0.3444 -0.1778 -0.2029
19645TIP3    H180426   4.299   3.886  12.715  1.9073 -2.1124  1.1056
19645TIP3    H280427   4.323   4.012  12.794 -0.1278 -0.3285 -1.0213
19646TIP3   OH280428   2.487   6.231   1.661  0.2985  0.0077  0.4554
19646TIP3    H180429   2.435   6.203   1.737  0.2766 -0.6206  0.2119
19646TIP3    H280430   2.423   6.240   1.591  0.5053 -0.7369  0.1622
19647TIP3   OH280431   1.388   5.482   3.235  0.9951 -0.2986  0.5373
19647TIP3    H180432   1.308   5.448   3.195  1.1834  1.1531 -1.1284
19647TIP3    H280433   1.450   5.409   3.229  0.3520 -0.8195  0.1781
19648TIP3   OH280434   2.372   2.246  16.643  0.3412 -0.0666 -0.5863
19648TIP3    H180435   2.365   2.161  16.598 -0.9350  0.2813 -1.0927
19648TIP3    H280436   2.294   2.294  16.614 -0.1600  0.4231  1.4840
19649TIP3   OH280437   3.345   6.419   3.755 -0.3116  0.2516 -0.3157
19649TIP3    H180438   3.327   6.332   3.792 -0.2840 -0.1997 -1.3554
19649TIP3    H280439   3.294   6.479   3.809 -0.0565 -0.3708  0.6320
19650TIP3   OH280440   3.392   0.182  16.273  0.3779 -0.3113  0.1024
19650TIP3    H180441   3.323   0.247  16.263  0.1197 -0.6086 -0.0593
19650TIP3    H280442   3.456   0.203  16.206  1.2680  1.0035  1.3405
19651TIP3   OH280443   5.364   5.976  13.893 -0.6014  0.0323  0.7175
19651TIP3    H180444   5.378   5.883  13.876  0.8476  0.3220  0.3133
19651TIP3    H280445   5.450   6.016  13.885 -1.1579  1.3737  1.1948
19652TIP3   OH280446   0.398   3.561  12.622 -0.3752 -0.3618 -0.1620
19652TIP3    H180447   0.440   3.639  12.586  0.0818 -0.7474 -0.4896
19652TIP3    H280448   0.366   3.514  12.545  1.1196 -1.4837 -0.1372
19653TIP3   OH280449   6.469   1.560   5.758 -0.6014 -0.1849  0.1953
19653TIP3    H180450   6.474   1.479   5.807 -3.2325 -0.9468 -0.7135
19653TIP3    H280451   6.507   1.539   5.672  0.0745 -0.0406  0.4587
19654TIP3   OH280452   2.328   0.947   1.020 -0.5752  0.2979  0.0873
19654TIP3    H180453   2.270   1.019   1.044 -2.4393 -0.4824 -1.9849
19654TIP3    H280454   2.359   0.969   0.933  1.5793  0.2575  0.8186
19655TIP3   OH280455   4.936   5.236   1.124  0.3367  0.0762 -0.1781
19655TIP3    H180456   4.855   5.250   1.075  0.3097  1.4157  0.2123
19655TIP3    H280457   5.005   5.253   1.060  0.3070 -0.3497 -0.3231
19656TIP3   OH280458   3.621   0.629   2.879 -0.2326 -0.1281 -0.1898
19656TIP3    H180459   3.556   0.668   2.937  0.5290 -1.6777  1.7801
19656TIP3    H280460   3.587   0.541   2.861  1.5514 -1.1995  1.3941
19657TIP3   OH280461   2.348   5.602  16.751  0.1437  0.9313  0.4428
19657TIP3    H180462   2.388   5.681  16.714 -0.1427  1.4168  1.1621
19657TIP3    H280463   2.359   5.612  16.846  1.2042 -0.4764  0.4753
19658TIP3   OH280464   0.559   1.485   2.715 -0.2297 -0.3827  0.5614
19658TIP3    H180465   0.585   1.561   2.664 -0.2548 -1.7019 -1.4760
19658TIP3    H280466   0.466   1.475   2.697 -0.3552 -0.5581  1.2883
19659TIP3   OH280467   4.858   4.398   2.256  0.8718  0.3724  0.0809
19659TIP3    H180468   4.784   4.433   2.305  1.6115 -1.4515  2.6270
19659TIP3    H280469   4.834   4.306   2.240  1.2240  0.5943 -1.9038
19660TIP3   OH280470   0.427   4.725   0.776 -0.1292  0.3384  0.3782
19660TIP3    H180471   0.347   4.729   0.724  0.8529 -1.1703 -1.2589
19660TIP3    H280472   0.498   4.734   0.713  1.0444  0.4955  1.6852
19661TIP3   OH280473   4.243   1.132   3.680  0.0603  0.3077  0.1223
19661TIP3    H180474   4.264   1.200   3.745 -0.3617  0.3659  0.2005
19661TIP3    H280475   4.155   1.104   3.703 -0.5137  1.1027 -1.0913
19662TIP3   OH280476   4.572   0.805  12.664 -0.5698 -0.6898  0.3913
19662TIP3    H180477   4.497   0.746  12.669  0.7792 -2.5234 -0.3298
19662TIP3    H280478   4.565   0.846  12.578  0.5741 -2.7077 -0.6844
19663TIP3   OH280479   5.352   5.386   2.196  0.2154 -0.1327  0.2900
19663TIP3    H180480   5.287   5.447   2.232 -1.6798 -0.9655 -1.5966
19663TIP3    H280481   5.352   5.405   2.102  1.0950 -1.6623 -0.0258
19664TIP3   OH280482   5.352   2.853  17.079  0.1709  0.6923  0.6936
19664TIP3    H180483   5.263   2.825  17.101  0.8374 -0.4947  1.9734
19664TIP3    H280484   5.408   2.798  17.133  1.7100  1.1094 -0.4375
19665TIP3   OH280485   0.671   2.834  15.340 -0.6351  0.0477  0.0208
19665TIP3    H180486   0.729   2.772  15.296 -0.9625 -0.1522 -0.1355
19665TIP3    H280487   0.604   2.854  15.274 -1.0971 -0.2082  0.4096
19666TIP3   OH280488   3.605   4.782  13.136  0.3526  0.2289  0.4975
19666TIP3    H180489   3.546   4.708  13.149 -1.5803  1.3520 -1.4921
19666TIP3    H280490   3.549   4.859  13.141  1.8950  1.4068  0.0240
19667TIP3   OH280491   4.222   3.296  13.605 -0.4234 -0.0949 -0.6357
19667TIP3    H180492   4.209   3.390  13.607 -0.9902 -0.1880  0.1505
19667TIP3    H280493   4.288   3.279  13.673  1.1067 -0.0546 -2.0660
19668TIP3   OH280494   3.273   0.991  12.229  0.1862 -0.5096 -0.5400
19668TIP3    H180495   3.248   1.077  12.263 -0.5923 -0.1824 -1.8980
19668TIP3    H280496   3.226   0.984  12.146  0.1300 -2.3200 -0.3530
19669TIP3   OH280497   1.654   2.214   4.819 -0.2658 -0.3261  0.1499
19669TIP3    H180498   1.573   2.211   4.769 -1.4303 -0.3526  1.9593
19669TIP3    H280499   1.686   2.124   4.820 -0.7792 -0.5078  0.2963
19670TIP3   OH280500   4.321   5.337  16.194 -0.0333  0.0865 -0.6492
19670TIP3    H180501   4.341   5.425  16.161 -0.8802  0.1759 -0.9513
19670TIP3    H280502   4.323   5.282  16.116  3.9933 -0.8472 -0.0047
19671TIP3   OH280503   5.560   3.269  13.896  0.4742  0.0956 -0.0373
19671TIP3    H180504   5.512   3.333  13.949 -0.5663 -0.8262  0.1696
19671TIP3    H280505   5.635   3.244  13.950  0.5155  0.6415  0.1601
19672TIP3   OH280506   3.422   0.991  15.678 -0.3328  0.1535 -0.2163
19672TIP3    H180507   3.495   1.030  15.727  0.6864 -2.6896  0.5739
19672TIP3    H280508   3.429   1.030  15.591  0.3750  2.0659  0.6502
19673TIP3   OH280509   5.557   2.828  14.571  0.2149 -0.2396 -0.2108
19673TIP3    H180510   5.473   2.860  14.536  1.7631  0.7916 -3.2032
19673TIP3    H280511   5.603   2.906  14.600  0.5506 -0.6997  0.5192
19674TIP3   OH280512   3.770   4.830   6.242 -0.6913 -0.4621 -0.0173
19674TIP3    H180513   3.817   4.844   6.325 -1.5242  2.0139  0.0705
19674TIP3    H280514   3.752   4.736   6.241  1.3533 -0.9192  1.5059
19675TIP3   OH280515   3.836   6.039  11.724 -0.1192  0.0983  0.2197
19675TIP3    H180516   3.767   5.990  11.680 -0.2836 -1.3871  2.0645
19675TIP3    H280517   3.794   6.119  11.755 -0.9020 -0.5863  0.9282
19676TIP3   OH280518   6.165   6.590  16.054 -0.3327  0.3187  0.0747
19676TIP3    H180519   6.120   6.601  15.970  0.7762 -0.1273 -0.6016
19676TIP3    H280520   6.252   6.627  16.039  0.3154 -0.9560  0.6155
19677TIP3   OH280521   2.733   3.736   4.346 -0.3150  0.1123  0.6491
19677TIP3    H180522   2.791   3.788   4.291 -0.8176  0.6544  0.6277
19677TIP3    H280523   2.674   3.693   4.285 -0.4888  0.2434  0.7225
19678TIP3   OH280524   3.521   1.345   5.156 -0.5338  1.0795  0.8694
19678TIP3    H180525   3.517   1.258   5.197 -0.0398  1.1313  1.0293
19678TIP3    H280526   3.430   1.371   5.145 -0.7802 -0.6564 -1.6734
19679TIP3   OH280527   2.400   4.813  12.127 -0.5246 -0.4467 -0.4179
19679TIP3    H180528   2.493   4.802  12.145 -0.8623 -0.5713  1.3821
19679TIP3    H280529   2.359   4.734  12.161 -1.1515 -0.9953 -2.4136
19680TIP3   OH280530   0.029   3.462   5.819  0.0800  0.7183 -0.6972
19680TIP3    H180531   0.088   3.437   5.889 -0.2360 -0.6188 -0.8884
19680TIP3    H280532   0.045   3.398   5.750 -0.0202  1.6707 -1.6225
19681TIP3   OH280533   0.274   1.875  16.707 -0.3730  0.2551  0.4630
19681TIP3    H180534   0.332   1.857  16.634 -1.9707  0.7674 -0.9729
19681TIP3    H280535   0.286   1.968  16.726  0.8632 -0.1265  1.6031
19682TIP3   OH280536   1.291   1.282  12.989  0.2280 -0.2174  0.3249
19682TIP3    H180537   1.283   1.294  13.083 -1.1588  2.8445 -0.1184
19682TIP3    H280538   1.219   1.334  12.952  1.2240 -0.7203 -2.4482
19683TIP3   OH280539   5.386   4.512  12.892  0.1411  0.8463  0.9376
19683TIP3    H180540   5.445   4.483  12.822  0.3513  1.2300  0.9598
19683TIP3    H280541   5.437   4.574  12.944 -0.5549  1.8702  0.4271
19684TIP3   OH280542   6.688   0.680   1.812 -0.2440  0.2729  0.0320
19684TIP3    H180543   6.598   0.692   1.781 -0.2928  0.0908  0.1042
19684TIP3    H280544   6.725   0.613   1.753 -0.4822 -0.4133  0.6551
19685TIP3   OH280545   6.165   3.105   4.273  0.3208  0.1890 -0.8320
19685TIP3    H180546   6.077   3.074   4.250  0.7481 -0.8774 -1.0801
19685TIP3    H280547   6.151   3.176   4.335 -0.6705 -1.3599  0.7671
19686TIP3   OH280548   6.041   1.419  13.761 -0.1546  0.5475  0.1156
19686TIP3    H180549   6.013   1.334  13.794  0.1872  0.0535 -0.8303
19686TIP3    H280550   5.974   1.444  13.698 -0.1326  0.8685  0.2163
19687TIP3   OH280551   1.970   1.416  17.215  0.5864  1.0669 -0.8046
19687TIP3    H180552   1.909   1.419  17.141 -0.0196  1.2427 -0.3036
19687TIP3    H280553   2.014   1.502  17.214 -0.6352  1.7172  0.0446
19688TIP3   OH280554   3.245   2.784  13.593  0.1699  0.7217 -0.4855
19688TIP3    H180555   3.241   2.880  13.599  0.0875  0.7362 -0.8024
19688TIP3    H280556   3.314   2.760  13.656 -0.2776  0.9400  0.1005
19689TIP3   OH280557   4.450   2.938  14.356  0.1420 -0.2226 -0.1790
19689TIP3    H180558   4.440   2.847  14.328 -1.1873 -0.2693  0.4306
19689TIP3    H280559   4.492   2.933  14.442  0.4718 -0.2354 -0.3393
19690TIP3   OH280560   1.169   2.585   3.649 -0.3633  0.0507  0.4842
19690TIP3    H180561   1.168   2.621   3.560 -0.9092  0.9215  0.8386
19690TIP3    H280562   1.182   2.660   3.706  0.3695 -0.5519  1.1289
19691TIP3   OH280563   1.161   1.344  16.379  0.6996 -0.7054  0.5771
19691TIP3    H180564   1.131   1.400  16.451 -0.5968 -1.0893  0.3493
19691TIP3    H280565   1.229   1.396  16.335 -0.6560  0.8046  0.2108
19692TIP3   OH280566   6.001   6.649  16.660 -0.1335 -0.1984 -0.3685
19692TIP3    H180567   5.921   6.601  16.684 -0.0549 -0.8576 -1.3995
19692TIP3    H280568   5.971   6.739  16.648  0.1736  0.6412  4.1929
19693TIP3   OH280569   1.821   0.907  11.262 -0.2513 -0.1609 -0.3732
19693TIP3    H180570   1.868   0.875  11.339  0.0228  0.6013 -0.2218
19693TIP3    H280571   1.887   0.954  11.212 -0.7745  0.6630 -0.3052
19694TIP3   OH280572   0.305   3.925   5.491  0.1246 -0.5259  0.0447
19694TIP3    H180573   0.339   4.012   5.510 -0.1054 -0.4917  0.3139
19694TIP3    H280574   0.326   3.909   5.399  0.6256 -0.3982  0.1374
19695TIP3   OH280575   2.048   4.466  11.584 -0.2703  0.2237 -0.1184
19695TIP3    H180576   2.059   4.470  11.489 -0.4176  0.8069 -0.1112
19695TIP3    H280577   1.991   4.540  11.605 -2.4853 -1.4672  0.0981
19696TIP3   OH280578   6.265   4.087   1.645 -0.4742  0.3862 -0.0382
19696TIP3    H180579   6.275   4.157   1.581 -1.6638 -0.2098 -0.9016
19696TIP3    H280580   6.189   4.113   1.697  0.2179  0.6494  0.8603
19697TIP3   OH280581   3.960   3.806   1.564 -0.3724  0.3534 -0.0829
19697TIP3    H180582   3.995   3.876   1.509 -1.1118  1.6989  1.1057
19697TIP3    H280583   3.961   3.728   1.509  2.2880  0.8574 -0.8323
19698TIP3   OH280584   5.837   4.576   3.101 -0.1412 -0.3198 -0.1828
19698TIP3    H180585   5.790   4.537   3.174 -0.0610 -1.3814 -0.6889
19698TIP3    H280586   5.848   4.668   3.126 -1.0422 -0.4315  0.6586
19699TIP3   OH280587   3.151   1.712   4.144 -0.0105  0.6162 -0.0175
19699TIP3    H180588   3.205   1.774   4.193  1.3060 -1.1744  0.8550
19699TIP3    H280589   3.212   1.642   4.120 -1.3383 -0.0341 -1.5354
19700TIP3   OH280590   5.473   4.655  13.812 -0.1996  0.0115 -0.2275
19700TIP3    H180591   5.425   4.707  13.747 -2.0165  1.0814  1.8833
19700TIP3    H280592   5.492   4.716  13.883  0.1769 -1.5151  1.0286
19701TIP3   OH280593   4.836   1.734   2.010  0.4563 -0.1721 -0.1953
19701TIP3    H180594   4.787   1.815   2.001 -2.1139 -1.7129 -0.3286
19701TIP3    H280595   4.845   1.722   2.105  0.4981  0.0444 -0.1718
19702TIP3   OH280596   4.362   1.625  11.906 -0.2059  0.2842  0.3590
19702TIP3    H180597   4.313   1.649  11.985  0.0185  2.2676 -0.0816
19702TIP3    H280598   4.385   1.533  11.920  1.0248  0.9747  3.2444
19703TIP3   OH280599   1.238   2.424   0.657  0.7302  0.4462  0.0153
19703TIP3    H180600   1.265   2.490   0.594 -0.7618  0.1130 -0.9899
19703TIP3    H280601   1.315   2.369   0.669  1.8422  2.1005  0.5330
19704TIP3   OH280602   1.108   2.537  13.577  0.3541  0.2288  0.4497
19704TIP3    H180603   1.165   2.461  13.591 -0.7050 -0.7046 -0.1438
19704TIP3    H280604   1.036   2.525  13.639 -1.0472 -0.5414 -1.2695
19705TIP3   OH280605   0.418   6.170   6.156  0.7738  0.4698  0.6423
19705TIP3    H180606   0.330   6.194   6.129  1.0682  0.2486 -0.5507
19705TIP3    H280607   0.447   6.241   6.213  0.6426  1.6205 -0.7277
19706TIP3   OH280608   4.767   3.820   1.306 -0.4265 -0.0519  0.1317
19706TIP3    H180609   4.805   3.735   1.285 -0.8512 -0.1316 -0.3127
19706TIP3    H280610   4.833   3.883   1.277 -0.8712 -0.1726 -1.1535
19707TIP3   OH280611   0.609   3.588  11.543  0.1765  0.3878  0.6031
19707TIP3    H180612   0.651   3.506  11.518  2.1242  0.8464  2.2643
19707TIP3    H280613   0.518   3.564  11.562  0.0620 -0.8912 -1.4656
19708TIP3   OH280614   1.180   2.471  16.772  0.1249  0.2813  0.2427
19708TIP3    H180615   1.119   2.400  16.790  1.8347 -1.2313  0.1854
19708TIP3    H280616   1.230   2.482  16.853  0.4253  0.8625 -0.0109
19709TIP3   OH280617   2.560   4.653  15.362  0.2658  0.4105  0.0527
19709TIP3    H180618   2.572   4.558  15.353  0.4009  0.4593 -0.3002
19709TIP3    H280619   2.637   4.682  15.411  0.1659  0.3197  0.2612
19710TIP3   OH280620   6.305   5.234   3.395  0.1182  0.4583  0.1524
19710TIP3    H180621   6.283   5.229   3.488 -0.6190  0.2551 -0.0306
19710TIP3    H280622   6.223   5.215   3.350  0.6655 -0.3207 -0.5392
19711TIP3   OH280623   6.641   0.860   3.501 -0.0404  0.0206 -0.0996
19711TIP3    H180624   6.595   0.879   3.420  0.2640  0.2045 -0.2329
19711TIP3    H280625   6.682   0.943   3.525 -0.0100 -0.0702  0.1624
19712TIP3   OH280626   1.167   1.750  14.349 -0.1612 -0.0839 -0.2209
19712TIP3    H180627   1.224   1.823  14.372 -0.6422  0.1166  0.3482
19712TIP3    H280628   1.087   1.765  14.399  0.0406 -1.4350  0.5365
19713TIP3   OH280629   3.700   1.783  13.973  0.4819  0.2011  0.5500
19713TIP3    H180630   3.708   1.864  13.922  0.5174  0.0803  0.3624
19713TIP3    H280631   3.649   1.724  13.917 -0.7167  0.5666  1.2494
19714TIP3   OH280632   0.614   3.295  12.395 -0.5872 -0.0356  0.0404
19714TIP3    H180633   0.594   3.202  12.396  0.9925 -0.3999  2.8389
19714TIP3    H280634   0.532   3.337  12.422 -0.5738 -0.8149  1.3471
19715TIP3   OH280635   3.141   1.678   6.032  0.2948 -0.0618  0.1405
19715TIP3    H180636   3.195   1.650   6.105 -0.1978 -0.0323  0.5226
19715TIP3    H280637   3.093   1.754   6.065  0.6620  0.4440 -0.4716
19716TIP3   OH280638   5.594   6.593  15.888 -0.3050 -0.0139 -0.0198
19716TIP3    H180639   5.655   6.530  15.927  0.7817  1.3882  0.6085
19716TIP3    H280640   5.507   6.563  15.914  0.2790 -0.4440  1.4883
19717TIP3   OH280641   0.191   1.625  11.631 -0.1869  0.6105 -0.0493
19717TIP3    H180642   0.160   1.543  11.670 -0.2311  0.1644 -1.0194
19717TIP3    H280643   0.115   1.662  11.588 -0.2197  1.2791  0.5698
19718TIP3   OH280644   0.647   5.397   1.935  0.1606 -0.4072  0.2223
19718TIP3    H180645   0.693   5.419   1.854  0.3538 -0.7767  0.2318
19718TIP3    H280646   0.565   5.447   1.930 -1.3612 -2.9750 -1.7874
19719TIP3   OH280647   0.405   5.858  16.981 -0.3964  0.1677 -0.1439
19719TIP3    H180648   0.368   5.776  17.016  3.1628 -1.3027  0.4586
19719TIP3    H280649   0.365   5.927  17.034 -2.6962 -1.2585  0.0381
19720TIP3   OH280650   3.714   1.794  13.561 -0.0077  0.0209 -0.5725
19720TIP3    H180651   3.666   1.812  13.481 -0.8061 -1.6505 -0.4986
19720TIP3    H280652   3.646   1.778  13.627  0.6362  0.0863  0.1166
19721TIP3   OH280653   6.162   0.276   3.025  0.4949  0.1194 -0.3790
19721TIP3    H180654   6.239   0.312   3.069  0.4586  0.1621 -0.3507
19721TIP3    H280655   6.094   0.340   3.040  0.6649  0.4665 -1.0873
19722TIP3   OH280656   1.262   2.568   5.944 -0.2860  0.2537  0.1337
19722TIP3    H180657   1.236   2.660   5.952  0.3891  0.5589 -0.9387
19722TIP3    H280658   1.290   2.543   6.032 -1.6365  0.7070  0.6934
19723TIP3   OH280659   2.313   6.417   4.695 -0.1127  0.2981  0.3179
19723TIP3    H180660   2.219   6.438   4.696  0.2625  2.1052  1.3956
19723TIP3    H280661   2.354   6.493   4.736  1.7941 -0.6686  0.2415
19724TIP3   OH280662   1.793   3.331  13.078  0.2894 -0.8637 -0.6985
19724TIP3    H180663   1.698   3.331  13.089  0.2587 -0.6427 -0.9558
19724TIP3    H280664   1.827   3.357  13.164  0.0683  0.4280 -0.9894
19725TIP3   OH280665   1.579   4.294   4.369 -0.5536  0.3612 -0.5872
19725TIP3    H180666   1.575   4.316   4.462  0.1353 -0.6108 -0.3194
19725TIP3    H280667   1.600   4.201   4.368 -1.5006  0.1483 -1.7108
19726TIP3   OH280668   3.127   0.928   3.112 -0.1911  0.0756 -0.4113
19726TIP3    H180669   3.067   1.001   3.093  0.7903  1.0790  0.2611
19726TIP3    H280670   3.184   0.924   3.035 -1.4631 -1.2422 -1.2975
19727TIP3   OH280671   6.625   6.070  13.331 -0.5853 -0.9066 -0.1215
19727TIP3    H180672   6.585   6.056  13.245 -0.3405 -1.4389 -0.1512
19727TIP3    H280673   6.720   6.068  13.314 -0.5370 -0.6824  0.1110
19728TIP3   OH280674   0.478   2.224  15.489 -0.5876 -0.0822  0.2183
19728TIP3    H180675   0.435   2.213  15.574 -1.6951  0.3911 -0.2731
19728TIP3    H280676   0.452   2.311  15.460  0.0708 -0.1072 -0.4639
19729TIP3   OH280677   3.073   6.242  16.855 -0.2654  0.2377 -0.0951
19729TIP3    H180678   3.079   6.160  16.904  0.3147 -0.1002 -0.7154
19729TIP3    H280679   3.160   6.252  16.815  0.1917  1.9876  1.2823
19730TIP3   OH280680   2.805   2.127  15.875  0.2220 -0.4366 -0.3268
19730TIP3    H180681   2.858   2.127  15.796 -0.3956 -0.2284 -0.7383
19730TIP3    H280682   2.773   2.037  15.882 -1.2869  0.0129 -1.3576
19731TIP3   OH280683   3.358   5.897   1.374  0.4917 -0.0389  0.4165
19731TIP3    H180684   3.449   5.926   1.381  0.4285 -0.1693  1.9487
19731TIP3    H280685   3.354   5.818   1.428 -0.6379  0.2532  0.7693
19732TIP3   OH280686   5.165   4.036  12.726  0.7199  0.1565 -0.0543
19732TIP3    H180687   5.118   4.120  12.728  1.7668  0.7582 -0.0495
19732TIP3    H280688   5.231   4.048  12.658  0.8765 -0.6639 -0.0450
19733TIP3   OH280689   4.068   1.266  14.083  0.3190 -0.0737 -0.2894
19733TIP3    H180690   3.998   1.226  14.031  1.7456 -0.6851 -1.8241
19733TIP3    H280691   4.101   1.337  14.028  0.8726  0.2318  0.4299
19734TIP3   OH280692   2.413   0.755   3.043 -0.0378 -0.2842 -0.0071
19734TIP3    H180693   2.371   0.682   3.088  0.7489 -0.0364  1.1410
19734TIP3    H280694   2.503   0.726   3.028 -0.1339 -0.1425 -0.9318
19735TIP3   OH280695   5.267   0.559  13.047  0.4511 -0.3437  0.1211
19735TIP3    H180696   5.330   0.525  12.983 -0.8187  0.2994 -1.5057
19735TIP3    H280697   5.287   0.652  13.054  1.3787 -0.6404  1.6112
19736TIP3   OH280698   3.601   1.959  11.169  0.0810 -0.3135  0.6043
19736TIP3    H180699   3.636   1.890  11.225 -0.2739 -2.4845 -1.7512
19736TIP3    H280700   3.507   1.955  11.182  0.0880  0.0003  0.7542
19737TIP3   OH280701   3.515   4.679   5.648 -0.0397 -0.7926  0.2167
19737TIP3    H180702   3.585   4.709   5.706 -1.1955 -1.6277  2.0723
19737TIP3    H280703   3.453   4.635   5.706 -2.6616  0.9121 -1.2200
19738TIP3   OH280704   6.114   0.248   3.416  0.1592 -0.4077 -0.0307
19738TIP3    H180705   6.196   0.283   3.380  0.5904 -0.3461  0.9730
19738TIP3    H280706   6.047   0.275   3.354  0.8641 -0.1800 -0.7019
19739TIP3   OH280707   3.201   0.084  11.472 -0.1037 -0.0181  0.4423
19739TIP3    H180708   3.171   0.141  11.400 -0.0065 -0.9552 -0.3521
19739TIP3    H280709   3.175  -0.004  11.445  2.7338 -0.7778  0.0552
19740TIP3   OH280710   0.217   6.349  13.062 -0.6078  0.5294 -0.3201
19740TIP3    H180711   0.142   6.374  13.115  1.0598  1.5598  1.5852
19740TIP3    H280712   0.198   6.259  13.034 -1.5739  0.0357  1.8861
19741TIP3   OH280713   1.451   3.594   0.997  0.2343  0.1135  0.1944
19741TIP3    H180714   1.465   3.540   1.075  1.0156  0.5951  0.3914
19741TIP3    H280715   1.371   3.643   1.016 -0.5542 -1.0534 -0.0330
19742TIP3   OH280716   4.807   5.920  14.890  0.1082 -0.1184  0.1496
19742TIP3    H180717   4.830   5.859  14.961  1.9804  0.2424 -0.1096
19742TIP3    H280718   4.733   5.878  14.846 -2.3915  0.6217  3.5031
19743TIP3   OH280719   3.006   2.270  11.988 -0.0247 -0.3001 -0.4235
19743TIP3    H180720   3.090   2.225  11.989  1.7841  2.9660  0.7302
19743TIP3    H280721   3.009   2.324  11.909 -0.2821  1.1503  0.5426
19744TIP3   OH280722   3.203   2.560  14.675 -0.1672 -0.5690 -0.0365
19744TIP3    H180723   3.169   2.535  14.761 -1.8334  1.5178 -0.0535
19744TIP3    H280724   3.264   2.631  14.693 -0.4680 -0.1727 -0.5710
19745TIP3   OH280725   2.403   3.247   2.465  0.3462 -0.4235 -0.6858
19745TIP3    H180726   2.351   3.217   2.539 -0.3139  2.9079  0.2765
19745TIP3    H280727   2.403   3.173   2.404 -3.5583 -1.3618  0.3258
19746TIP3   OH280728   3.678   0.569  13.881 -0.0366  0.6530 -0.4663
19746TIP3    H180729   3.773   0.584  13.890  0.4687 -2.4949  0.1347
19746TIP3    H280730   3.638   0.628  13.945  1.6554  0.4649  0.7961
19747TIP3   OH280731   3.296   6.547  13.667 -0.2756 -0.2475 -0.1560
19747TIP3    H180732   3.302   6.572  13.759 -0.5678 -1.5739  0.2323
19747TIP3    H280733   3.323   6.626  13.619  0.8199  0.1482  1.0802
19748TIP3   OH280734   1.846   4.802  14.250 -0.5962  0.0828  0.4112
19748TIP3    H180735   1.833   4.741  14.322 -2.4268 -0.6088 -0.4747
19748TIP3    H280736   1.851   4.747  14.172  0.9893  0.8503 -0.0414
19749TIP3   OH280737   6.415   1.476  12.979 -0.0917  0.0607  0.1765
19749TIP3    H180738   6.397   1.456  12.888 -1.5912 -1.0950  0.7162
19749TIP3    H280739   6.508   1.499  12.981 -0.9091  3.8872 -2.2695
19750TIP3   OH280740   2.778   5.218  13.411  0.1488 -0.2486 -0.1424
19750TIP3    H180741   2.749   5.252  13.495  0.1196  1.2895 -0.7633
19750TIP3    H280742   2.822   5.136  13.432  1.8341  1.0761  1.5745
19751TIP3   OH280743   5.276   3.044   1.326 -0.3128 -0.0990  0.0782
19751TIP3    H180744   5.223   3.123   1.339 -1.4252 -0.9935  1.1907
19751TIP3    H280745   5.244   3.006   1.244 -1.2330 -0.4699  0.5893
19752TIP3   OH280746   3.344   4.962   3.788  0.0648  0.2619  0.1702
19752TIP3    H180747   3.377   5.015   3.860 -0.8615  0.8476  0.1723
19752TIP3    H280748   3.249   4.966   3.797 -0.0246 -0.8793 -0.2103
19753TIP3   OH280749   6.121   4.782  11.296  0.0336 -0.1847 -0.3247
19753TIP3    H180750   6.092   4.777  11.387  0.5886  1.0952 -0.0742
19753TIP3    H280751   6.190   4.847  11.296  1.1192 -1.3128 -1.3915
19754TIP3   OH280752   0.146   3.628  13.977  0.3011 -0.1339 -0.1040
19754TIP3    H180753   0.101   3.603  14.058  1.1397 -1.7109 -0.1033
19754TIP3    H280754   0.126   3.556  13.916  2.7327 -0.8120 -0.1312
19755TIP3   OH280755   6.442   2.104   1.424  0.1884 -0.6210 -0.4273
19755TIP3    H180756   6.532   2.099   1.455  0.6350 -0.2089 -1.6370
19755TIP3    H280757   6.395   2.040   1.478  0.8482  0.3433  1.3542
19756TIP3   OH280758   3.132   1.156  13.276 -0.6710  0.2641  0.4832
19756TIP3    H180759   3.099   1.079  13.230 -1.6294  0.4665  0.8184
19756TIP3    H280760   3.056   1.190  13.324  0.1463  0.4260  1.6956
19757TIP3   OH280761   6.055   3.728  11.706 -0.0531 -0.2336  0.2973
19757TIP3    H180762   6.108   3.654  11.676  0.8277  0.5801 -0.1928
19757TIP3    H280763   6.017   3.699  11.788  0.1929 -1.2756  0.0493
19758TIP3   OH280764   5.831   6.813  15.547 -0.0586  0.2253 -0.0166
19758TIP3    H180765   5.820   6.812  15.452 -0.6088  1.6760  0.0233
19758TIP3    H280766   5.912   6.763  15.562 -0.0030 -0.0607 -1.2378
19759TIP3   OH280767   2.854   6.808  16.646  0.7495  0.3285 -0.2003
19759TIP3    H180768   2.902   6.754  16.709  2.5516  1.4792 -0.5473
19759TIP3    H280769   2.762   6.794  16.668  1.1678 -2.7081 -0.1670
19760TIP3   OH280770   6.253   1.072   3.127 -0.3391 -0.2792  0.5612
19760TIP3    H180771   6.293   1.047   3.044  0.1374 -0.5036  0.8592
19760TIP3    H280772   6.232   1.165   3.116  0.1998 -0.1780  0.3780
19761TIP3   OH280773   5.477   0.868  12.318  0.2364  0.0679  0.1778
19761TIP3    H180774   5.509   0.954  12.344 -0.7451  0.8669 -1.2032
19761TIP3    H280775   5.383   0.872  12.332  0.1680 -0.7240 -0.0545
19762TIP3   OH280776   2.431   6.479   0.757  0.9930  0.0759 -0.2093
19762TIP3    H180777   2.402   6.419   0.826 -1.6427  0.1888 -1.1437
19762TIP3    H280778   2.487   6.542   0.802 -0.3929 -0.0643  1.7983
19763TIP3   OH280779   4.852   6.554  15.442  0.0475  0.7004 -0.0020
19763TIP3    H180780   4.831   6.641  15.408 -0.8052  0.7153  0.5568
19763TIP3    H280781   4.783   6.536  15.506  1.0449  0.2370  0.9523
19764TIP3   OH280782   6.441   3.852   2.539 -0.0192  0.4152 -0.4743
19764TIP3    H180783   6.458   3.823   2.449  1.1651 -1.1287  0.2095
19764TIP3    H280784   6.360   3.902   2.534 -1.0517 -1.3521 -2.0776
19765TIP3   OH280785   0.842   3.914  12.227 -0.2973 -0.3007 -0.3086
19765TIP3    H180786   0.907   3.848  12.204 -0.5579 -1.1360  1.2648
19765TIP3    H280787   0.888   3.998  12.219  0.5603 -0.7955 -0.5318
19766TIP3   OH280788   2.680   2.513   1.913  0.9911  0.0681 -0.1467
19766TIP3    H180789   2.590   2.480   1.917  0.3979  1.7927  2.1041
19766TIP3    H280790   2.726   2.461   1.979  1.0991  0.7282  0.2976
19767TIP3   OH280791   1.376   1.313   1.305 -0.3199 -0.0228 -0.3047
19767TIP3    H180792   1.464   1.344   1.285 -0.3067 -0.2709 -0.6353
19767TIP3    H280793   1.378   1.294   1.399 -0.4908  1.4793  0.0064
19768TIP3   OH280794   6.818   4.611  11.061 -0.2562 -0.3312 -0.0810
19768TIP3    H180795   6.841   4.553  10.989 -0.7161 -1.3230  0.5602
19768TIP3    H280796   6.750   4.564  11.109 -1.0856  1.0112  0.0871
19769TIP3   OH280797   5.738   1.785   3.779 -0.3466 -0.2494 -0.2868
19769TIP3    H180798   5.730   1.880   3.783  3.9877  0.2512 -0.2705
19769TIP3    H280799   5.767   1.767   3.690  0.7715 -1.3029  0.2642
19770TIP3   OH280800   5.519   3.320   1.420 -0.6656  0.1885 -0.2250
19770TIP3    H180801   5.525   3.331   1.325 -0.4724  0.2403 -0.2060
19770TIP3    H280802   5.531   3.226   1.434  1.0710  0.4166 -0.1091
19771TIP3   OH280803   2.050   6.675   5.196  0.1550  0.3081  0.2188
19771TIP3    H180804   2.063   6.686   5.290  2.0616  1.7874 -0.1937
19771TIP3    H280805   2.033   6.581   5.185 -1.6785  0.3877  2.1986
19772TIP3   OH280806   3.591   1.153   1.209 -0.5891  0.3815  0.3972
19772TIP3    H180807   3.525   1.095   1.170  1.7308 -1.6388 -0.7070
19772TIP3    H280808   3.550   1.239   1.209 -3.3076 -0.8427 -0.0107
19773TIP3   OH280809   2.225   6.699   5.854 -0.3645 -0.7111 -0.3682
19773TIP3    H180810   2.229   6.672   5.762 -1.7912  0.1990 -0.7011
19773TIP3    H280811   2.217   6.794   5.850  0.8918 -0.5512  0.7318
19774TIP3   OH280812   1.853   0.383   2.922  0.3291  0.2025  0.3824
19774TIP3    H180813   1.774   0.330   2.915 -0.6000  1.4566  1.2967
19774TIP3    H280814   1.897   0.350   3.000  0.1231  0.2773  0.5304
19775TIP3   OH280815   3.362   1.883  14.759  0.0187 -0.1894 -0.8552
19775TIP3    H180816   3.294   1.911  14.820  0.0445  0.0321 -0.9272
19775TIP3    H280817   3.354   1.944  14.685  0.1199 -0.3293 -0.9810
19776TIP3   OH280818   1.705   0.264  13.270 -0.6170 -0.2362 -0.3154
19776TIP3    H180819   1.728   0.323  13.342 -2.3294 -3.1129  2.7867
19776TIP3    H280820   1.667   0.321  13.204 -1.7447  2.2388  2.3295
19777TIP3   OH280821   1.452   4.823   6.303 -0.2942  0.6921  0.6473
19777TIP3    H180822   1.478   4.731   6.308 -1.1441  0.5015  2.0902
19777TIP3    H280823   1.460   4.846   6.211  2.0213 -0.2010  0.6028
19778TIP3   OH280824   3.059   6.698   0.480 -0.7117 -0.0861  0.3527
19778TIP3    H180825   3.010   6.739   0.551  0.4663  0.5492  0.8051
19778TIP3    H280826   3.089   6.771   0.426  1.4181 -0.3341  1.1760
19779TIP3   OH280827   2.035   4.501   6.142 -0.0215  0.4140 -0.3997
19779TIP3    H180828   2.047   4.554   6.221  1.6045  0.4833 -0.6561
19779TIP3    H280829   1.972   4.549   6.089 -0.6209  0.6971  0.5704
19780TIP3   OH280830   5.313   4.063   1.988  0.0018 -0.7716  0.2737
19780TIP3    H180831   5.221   4.078   2.007  0.1143 -1.3295  1.2936
19780TIP3    H280832   5.351   4.151   1.981 -0.7339 -0.5268 -0.8923
19781TIP3   OH280833   4.804   6.628   5.786  0.3558 -0.2797  0.1132
19781TIP3    H180834   4.804   6.722   5.806  2.4214  0.3068 -2.3246
19781TIP3    H280835   4.728   6.593   5.833  1.6810  1.9081  4.0500
19782TIP3   OH280836   6.528   5.014  14.371 -0.2142  0.0234 -0.4282
19782TIP3    H180837   6.496   4.964  14.446  0.3536  0.7851  0.3388
19782TIP3    H280838   6.486   4.973  14.295  1.1329 -2.3529  0.0519
19783TIP3   OH280839   0.479   5.863   5.320 -0.0621  0.5260 -0.5834
19783TIP3    H180840   0.492   5.861   5.415 -0.8907 -0.7323 -0.4873
19783TIP3    H280841   0.567   5.874   5.284  0.4488 -0.5991  0.2807
19784TIP3   OH280842   4.380   4.102  15.303  0.3027  0.3125 -0.2143
19784TIP3    H180843   4.374   4.099  15.399 -2.9717  0.5058 -0.3333
19784TIP3    H280844   4.371   4.011  15.276  1.3861  0.2401 -0.3415
19785TIP3   OH280845   4.113   4.385   1.331 -0.4341  0.5976  0.1243
19785TIP3    H180846   4.096   4.376   1.238  1.1285  0.1016 -0.1151
19785TIP3    H280847   4.135   4.478   1.343  0.7530  0.3716 -0.2390
19786TIP3   OH280848   1.931   6.301  13.024  0.7984 -0.6953 -0.1752
19786TIP3    H180849   1.845   6.314  12.985  1.2348  0.2768 -0.8536
19786TIP3    H280850   1.978   6.247  12.960  0.9780 -0.4639 -0.2421
19787TIP3   OH280851   4.006   1.983   3.154  0.0304 -0.0781  0.4980
19787TIP3    H180852   4.057   1.910   3.120  1.9101  2.1206 -1.6454
19787TIP3    H280853   4.004   1.969   3.249  1.1933 -2.3510  0.2082
19788TIP3   OH280854   4.680   5.674  15.043 -1.0982  0.3630  0.0117
19788TIP3    H180855   4.700   5.583  15.022  1.2500  0.9836 -0.4928
19788TIP3    H280856   4.623   5.703  14.972 -1.3278 -0.5094 -0.1677
19789TIP3   OH280857   6.021   2.172  15.380 -0.0514  0.8415 -0.4933
19789TIP3    H180858   5.926   2.179  15.369 -0.3315 -1.3346  0.3525
19789TIP3    H280859   6.050   2.128  15.300  0.2026  1.1297 -0.5619
19790TIP3   OH280860   4.071   1.252   4.555  0.1980  0.7070  0.2714
19790TIP3    H180861   4.014   1.305   4.499  0.5344  1.2133  0.3970
19790TIP3    H280862   4.048   1.278   4.644  1.2549  1.6101  0.3052
19791TIP3   OH280863   1.169   3.564  12.540  0.4612  0.8272  0.1508
19791TIP3    H180864   1.177   3.506  12.464 -0.0739 -0.6810  1.2276
19791TIP3    H280865   1.253   3.557  12.584  0.6918  1.5306 -0.1687
19792TIP3   OH280866   5.584   1.975  14.741  0.2110 -0.4512  0.2307
19792TIP3    H180867   5.653   2.017  14.690  1.1069 -0.1530  1.6472
19792TIP3    H280868   5.562   1.896  14.692  2.3142 -1.1077  0.2878
19793TIP3   OH280869   1.024   1.357  16.886 -0.0747  0.6315  0.1680
19793TIP3    H180870   0.987   1.269  16.897  1.0565  0.2913  1.2552
19793TIP3    H280871   0.957   1.404  16.835 -1.2953 -0.4456  0.7462
19794TIP3   OH280872   2.724   4.952   4.619  0.2019  0.2684  1.2234
19794TIP3    H180873   2.660   5.010   4.660 -0.0648  0.9054 -0.0554
19794TIP3    H280874   2.686   4.864   4.626 -1.1360  0.7257 -0.1118
19795TIP3   OH280875   5.568   0.900  15.219  0.1587  0.3225  0.1773
19795TIP3    H180876   5.506   0.872  15.287 -0.3192 -1.1049 -0.8302
19795TIP3    H280877   5.636   0.833  15.220 -0.0288  0.1135 -0.9841
19796TIP3   OH280878   0.497   1.608   3.065  0.1123  0.3241 -0.4224
19796TIP3    H180879   0.517   1.638   3.154  0.9992 -3.2241  0.6530
19796TIP3    H280880   0.581   1.615   3.018 -0.3413  2.1366 -1.0044
19797TIP3   OH280881   3.120   4.853   1.140  0.3956 -0.4975 -0.0634
19797TIP3    H180882   3.130   4.782   1.076 -0.5358  0.1777 -0.9857
19797TIP3    H280883   3.209   4.871   1.170  1.0713  0.3470 -2.4741
19798TIP3   OH280884   2.747   3.661   1.983 -0.1937 -0.4790  0.7089
19798TIP3    H180885   2.749   3.747   2.025  1.0901  1.7783 -3.6146
19798TIP3    H280886   2.833   3.654   1.941 -1.1909 -2.7725 -1.0323
19799TIP3   OH280887   5.874   0.059  16.480  0.0798 -0.3300  0.4139
19799TIP3    H180888   5.788   0.017  16.476  1.0644 -2.3780  0.2384
19799TIP3    H280889   5.919   0.029  16.401  0.5928  1.5661 -0.0355
19800TIP3   OH280890   3.138   2.789  12.922  0.2414 -0.4901 -0.0798
19800TIP3    H180891   3.227   2.768  12.892  0.5389  0.7239 -0.0726
19800TIP3    H280892   3.144   2.791  13.017 -0.2400 -2.3034  0.0074
19801TIP3   OH280893   6.212   3.224   5.646 -0.1030 -0.3861  0.6573
19801TIP3    H180894   6.227   3.191   5.735 -2.5926 -1.8267  0.5870
19801TIP3    H280895   6.273   3.175   5.591  1.5675  0.6342  1.5748
19802TIP3   OH280896   5.632   5.703   2.241  0.3830  0.0088  0.3276
19802TIP3    H180897   5.596   5.778   2.196  0.9541  1.2556  1.8880
19802TIP3    H280898   5.668   5.647   2.172  0.3633  1.3989 -0.8071
19803TIP3   OH280899   0.073   6.386  14.412  0.2168  0.6740 -0.2052
19803TIP3    H180900   0.066   6.478  14.385 -2.8320 -0.2470 -2.7543
19803TIP3    H280901  -0.013   6.365  14.449  1.1635 -0.9500  1.1371
19804TIP3   OH280902   4.017   2.486  14.814  0.1675  0.3603  0.1439
19804TIP3    H180903   4.089   2.423  14.811 -1.1690 -1.1389 -1.3743
19804TIP3    H280904   3.993   2.500  14.722 -1.8381  0.4002  0.6452
19805TIP3   OH280905   4.794   3.951   2.731  0.3026  0.0737 -0.1435
19805TIP3    H180906   4.795   3.967   2.825  1.2998 -1.6479  0.1569
19805TIP3    H280907   4.850   3.874   2.719  0.6333  0.5953 -2.2024
19806TIP3   OH280908   2.320   4.972  14.753 -0.0233  0.2284 -0.0417
19806TIP3    H180909   2.356   5.015  14.831 -0.9407  0.8302  0.0652
19806TIP3    H280910   2.228   4.999  14.752 -0.7433 -2.1217  0.2749
19807TIP3   OH280911   5.877   1.192   5.291 -0.5214  0.3862 -0.1583
19807TIP3    H180912   5.829   1.274   5.283 -2.5221 -0.8263 -0.8457
19807TIP3    H280913   5.874   1.154   5.203  2.5941  0.7406 -0.4914
19808TIP3   OH280914   0.464   3.590  10.925 -0.5921 -0.0645 -0.2852
19808TIP3    H180915   0.369   3.585  10.919 -0.5548  0.8066 -1.9389
19808TIP3    H280916   0.490   3.641  10.848  1.2113 -0.3269  0.1313
19809TIP3   OH280917   3.948   1.982  13.053  0.1349 -0.3396  0.0554
19809TIP3    H180918   3.889   2.053  13.027  0.2037 -0.9088 -1.7426
19809TIP3    H280919   3.953   1.988  13.148 -1.0615  1.1117  0.0400
19810TIP3   OH280920   5.351   4.497   5.978 -0.1418  0.2051  0.2612
19810TIP3    H180921   5.399   4.415   5.987 -0.2303  0.0878 -0.2656
19810TIP3    H280922   5.403   4.548   5.916 -0.2367  0.4316  0.3688
19811TIP3   OH280923   2.212   4.250   1.495 -0.2669  0.1686 -0.0061
19811TIP3    H180924   2.217   4.315   1.425 -0.9473  0.2172 -0.0139
19811TIP3    H280925   2.202   4.166   1.450 -0.5003  0.1775  0.0293
19812TIP3   OH280926   0.473   2.882   2.199 -0.0995  0.6813  0.5359
19812TIP3    H180927   0.560   2.864   2.234 -0.7004  0.1836  1.8028
19812TIP3    H280928   0.484   2.883   2.104  1.0756 -0.4220  0.6648
19813TIP3   OH280929   3.058   2.675  11.466 -0.1448  0.2828  0.0238
19813TIP3    H180930   3.009   2.741  11.515  2.3063  2.4975 -0.4063
19813TIP3    H280931   3.073   2.714  11.380 -0.8902 -1.9313 -1.1558
19814TIP3   OH280932   4.290   4.327   4.392  0.8779 -0.2482  0.2105
19814TIP3    H180933   4.347   4.284   4.455  2.0216  1.3897  0.3378
19814TIP3    H280934   4.323   4.299   4.307  1.5850  0.3086  0.2936
19815TIP3   OH280935   6.209   6.235  11.823  0.1385 -0.0397  0.3010
19815TIP3    H180936   6.119   6.220  11.850  0.1910 -1.2696 -0.1728
19815TIP3    H280937   6.204   6.253  11.729  0.6016 -2.6405 -0.2706
19816TIP3   OH280938   0.003   5.348   4.074  0.3948  0.1772 -0.3384
19816TIP3    H180939  -0.042   5.431   4.086 -0.5780 -0.2358 -1.0328
19816TIP3    H280940   0.020   5.344   3.980 -2.0605 -1.6367 -0.7701
19817TIP3   OH280941   5.268   2.568   0.246  0.1747  0.0977  0.0613
19817TIP3    H180942   5.248   2.481   0.281  0.0248  0.0353 -0.1769
19817TIP3    H280943   5.183   2.611   0.240  0.1456 -0.0524 -0.6538
19818TIP3   OH280944   4.532   4.543  14.214 -0.9238 -0.5947  0.4347
19818TIP3    H180945   4.522   4.511  14.125 -1.4372  0.7963 -0.0218
19818TIP3    H280946   4.450   4.520  14.258 -0.1468 -2.4886  0.9576
19819TIP3   OH280947   5.787   4.266  15.609  0.5271 -0.3909 -0.2289
19819TIP3    H180948   5.719   4.229  15.664  0.6775 -0.0598  0.1843
19819TIP3    H280949   5.854   4.296  15.671  0.0208  1.3523 -0.4835
19820TIP3   OH280950   0.758   2.204   3.032 -0.0057  0.2553  0.0675
19820TIP3    H180951   0.701   2.144   2.984 -0.1070  0.5994 -0.2403
19820TIP3    H280952   0.700   2.247   3.094  0.2569 -0.7143  1.0030
19821TIP3   OH280953   0.319   3.737   1.896 -0.3661  0.0123 -0.1879
19821TIP3    H180954   0.380   3.805   1.867 -2.8330  1.4871 -2.1266
19821TIP3    H280955   0.334   3.664   1.835  0.9761 -0.5099  0.7360
19822TIP3   OH280956   2.936   5.482   4.583  0.3794  0.2094  0.1444
19822TIP3    H180957   3.022   5.466   4.543  0.1866  1.2167 -0.7123
19822TIP3    H280958   2.875   5.430   4.530  0.3485  0.1963  0.1933
19823TIP3   OH280959   4.489   6.588   2.446 -0.2573  0.5032  0.6850
19823TIP3    H180960   4.554   6.518   2.460 -0.3044  0.3103 -0.0258
19823TIP3    H280961   4.541   6.668   2.439 -0.0921  0.3464  0.0992
19824TIP3   OH280962   2.253   3.284   1.728  0.1289  0.0016  0.3807
19824TIP3    H180963   2.312   3.360   1.732 -1.4446  1.3505 -1.0654
19824TIP3    H280964   2.203   3.288   1.809 -1.2847  1.6546 -0.5548
19825TIP3   OH280965   3.913   4.732   0.447 -0.4664 -0.2263  0.3209
19825TIP3    H180966   4.003   4.713   0.473  0.2663  0.2523 -1.7164
19825TIP3    H280967   3.894   4.667   0.379 -0.9907  0.8057 -0.5439
19826TIP3   OH280968   6.689   6.567   4.099 -0.2141  0.0933 -0.3969
19826TIP3    H180969   6.684   6.614   4.182 -2.6032 -2.2821  0.8901
19826TIP3    H280970   6.620   6.606   4.045 -0.5658 -0.2685 -0.2133
19827TIP3   OH280971   0.116   0.964   1.597  0.7527 -0.2977 -0.4801
19827TIP3    H180972   0.073   1.017   1.664  2.1006 -0.5743  0.6189
19827TIP3    H280973   0.150   0.888   1.644  2.3877 -0.1212 -1.3353
19828TIP3   OH280974   4.381   1.204  13.421 -0.0884  0.2816 -0.8225
19828TIP3    H180975   4.473   1.203  13.392  0.2379  0.9996  0.1533
19828TIP3    H280976   4.386   1.205  13.516 -1.1007  1.1682 -0.7691
19829TIP3   OH280977   1.419   0.656  15.081 -0.2033  0.0158 -0.2361
19829TIP3    H180978   1.424   0.563  15.058 -2.1649 -0.1212 -0.1718
19829TIP3    H280979   1.492   0.669  15.142 -0.7967 -1.8189  0.9033
19830TIP3   OH280980   3.840   5.845   1.543 -0.4253 -0.1149  0.5519
19830TIP3    H180981   3.829   5.888   1.628 -0.7729  0.8348  0.0352
19830TIP3    H280982   3.929   5.868   1.515 -0.8073  0.7473  0.0203
19831TIP3   OH280983   4.018   3.805  15.420  0.0645  0.1735  0.4651
19831TIP3    H180984   3.964   3.728  15.401  1.2115 -0.5080 -0.0847
19831TIP3    H280985   3.987   3.835  15.505 -0.7038 -0.6262  0.4821
19832TIP3   OH280986   4.067   5.288  17.103  0.2793  0.5272 -0.1019
19832TIP3    H180987   4.111   5.347  17.164 -1.0745  1.5318 -0.0618
19832TIP3    H280988   3.979   5.325  17.094 -0.8622 -1.9103  0.5343
19833TIP3   OH280989   5.242   5.090   1.886  0.4408 -0.1702 -0.4321
19833TIP3    H180990   5.220   5.037   1.963  1.5245  0.3531  0.2529
19833TIP3    H280991   5.163   5.140   1.868  0.3961  0.2175  0.7797
19834TIP3   OH280992   6.448   0.022   0.936  0.0492 -0.0513 -0.6111
19834TIP3    H180993   6.486   0.109   0.947  0.2389  0.2143 -2.9844
19834TIP3    H280994   6.380   0.016   1.003 -0.1206  2.0283 -0.5749
19835TIP3   OH280995   5.761   2.605  16.471  0.4873  0.0052 -0.0921
19835TIP3    H180996   5.830   2.670  16.458 -0.0570  0.3397 -1.4051
19835TIP3    H280997   5.687   2.655  16.504  0.3447 -0.0911 -0.2663
19836TIP3   OH280998   2.799   6.070  13.981  0.4575  0.4963 -0.5768
19836TIP3    H180999   2.753   6.051  13.899 -0.8092 -1.4384  0.5536
19836TIP3    H281000   2.736   6.120  14.033  0.8179  0.6516 -0.2827
19837TIP3   OH281001   5.055   6.297   6.342  0.2870  0.8136  0.0354
19837TIP3    H181002   4.993   6.238   6.385 -1.3875  1.9681 -0.7117
19837TIP3    H281003   5.003   6.339   6.274  1.7623  2.2579 -0.2099
19838TIP3   OH281004   3.117   0.485   3.156  0.5155 -0.2765 -0.1039
19838TIP3    H181005   3.185   0.524   3.211 -0.8031  0.8265  0.7698
19838TIP3    H281006   3.151   0.398   3.134  1.1229 -0.6696  2.2974
19839TIP3   OH281007   1.049   1.467   1.881 -0.1857 -0.1837  0.0155
19839TIP3    H181008   0.974   1.409   1.866  0.1613 -0.7413  0.4476
19839TIP3    H281009   1.099   1.464   1.800  1.0278 -2.2311  0.8069
19840TIP3   OH281010   1.713   1.040   6.130 -0.1185 -0.0239 -0.3381
19840TIP3    H181011   1.694   0.973   6.197 -0.5537  1.0569  0.6410
19840TIP3    H281012   1.629   1.057   6.089 -0.3235  1.0764  0.5152
19841TIP3   OH281013   4.884   6.075   3.364 -0.2267 -0.2560 -0.9019
19841TIP3    H181014   4.930   6.087   3.447  1.2532 -1.1389 -1.5719
19841TIP3    H281015   4.838   5.992   3.373  0.0752 -0.4382 -1.0139
19842TIP3   OH281016   6.621   3.480   5.002 -0.3390  0.3078  0.1862
19842TIP3    H181017   6.627   3.478   5.098 -0.6942  1.0918  0.2200
19842TIP3    H281018   6.673   3.556   4.976  0.1437 -0.1703 -0.2796
19843TIP3   OH281019   2.196   3.498  12.416 -0.3128  0.1105 -0.0025
19843TIP3    H181020   2.181   3.414  12.459  1.4362 -0.1150  0.2222
19843TIP3    H281021   2.245   3.549  12.481  0.0481  0.7201 -0.7520
19844TIP3   OH281022   2.376   5.774   2.197  0.8709  0.4358 -0.2125
19844TIP3    H181023   2.446   5.722   2.158  0.5206  0.4934 -0.9326
19844TIP3    H281024   2.340   5.718   2.265  1.4553  0.3111 -0.0022
19845TIP3   OH281025   0.241   0.311  15.542  0.4209  0.5885  0.4380
19845TIP3    H181026   0.191   0.388  15.518 -0.0392  0.3946  0.7593
19845TIP3    H281027   0.329   0.327  15.508  0.7248  1.9126  1.7971
19846TIP3   OH281028   1.096   3.708   0.780 -0.2462  0.0568  0.2550
19846TIP3    H181029   1.014   3.662   0.797  0.6059 -1.5003  0.2676
19846TIP3    H281030   1.157   3.639   0.753  0.9450  1.2445 -0.1443
19847TIP3   OH281031   4.990   1.348  11.857 -0.0396 -0.0231 -0.9176
19847TIP3    H181032   4.903   1.387  11.850  0.3446  0.8379 -0.9041
19847TIP3    H281033   5.027   1.354  11.769  0.2619  0.2125 -0.7756
19848TIP3   OH281034   6.675   4.035   2.032 -0.1342  0.0418  0.2114
19848TIP3    H181035   6.678   4.125   2.063 -0.2013  0.4203 -0.8337
19848TIP3    H281036   6.582   4.017   2.016  0.0516  0.5513 -1.6552
19849TIP3   OH281037   1.471   2.178  17.038  0.6346  0.1341 -0.0640
19849TIP3    H181038   1.476   2.106  16.975 -0.7700 -0.0324 -0.0079
19849TIP3    H281039   1.518   2.146  17.115 -0.8386 -1.1154  0.3214
19850TIP3   OH281040   4.118   4.143   3.796 -0.0487  0.4121 -0.0060
19850TIP3    H181041   4.080   4.056   3.784 -2.1056  0.6636  3.9505
19850TIP3    H281042   4.075   4.197   3.729 -2.1977 -0.6694  0.4361
19851TIP3   OH281043   6.119   3.857  12.615  0.7414 -0.5702 -0.1781
19851TIP3    H181044   6.150   3.790  12.555 -0.4198  0.1854 -1.6832
19851TIP3    H281045   6.024   3.846  12.616  0.5896  0.6422  0.0330
19852TIP3   OH281046   1.261   4.684  13.723 -0.2140  0.1030  0.4260
19852TIP3    H181047   1.295   4.603  13.686  1.3192  0.8146  0.2566
19852TIP3    H281048   1.205   4.655  13.795  1.8328 -1.0554  1.5928
19853TIP3   OH281049   0.265   3.299   4.266 -0.5833  0.2032  0.1105
19853TIP3    H181050   0.308   3.315   4.182 -2.0689 -0.8191 -0.8770
19853TIP3    H281051   0.214   3.219   4.251  0.4448 -0.9354  2.4888
19854TIP3   OH281052   0.273   4.687  14.790  0.0437 -0.0098 -0.0754
19854TIP3    H181053   0.329   4.656  14.861  2.2752  2.7347 -0.4927
19854TIP3    H281054   0.217   4.613  14.768  1.7617 -2.0363  2.1459
19855TIP3   OH281055   0.749   4.442  12.189 -0.4698 -0.1803 -0.3944
19855TIP3    H181056   0.772   4.433  12.281 -0.0243 -1.8669 -0.6547
19855TIP3    H281057   0.690   4.369  12.171 -0.1830 -0.1409 -1.5591
19856TIP3   OH281058   4.931   1.778   5.860  0.3185 -0.3776 -0.2211
19856TIP3    H181059   4.937   1.853   5.919 -1.0853  0.9105 -1.6634
19856TIP3    H281060   4.935   1.702   5.917  2.6650  0.7682  1.1862
19857TIP3   OH281061   6.767   6.186  14.706 -0.4591 -0.3130 -0.5757
19857TIP3    H181062   6.833   6.253  14.723  1.5599 -2.0962 -1.2657
19857TIP3    H281063   6.710   6.225  14.640  1.6029  0.1594 -2.1125
19858TIP3   OH281064   6.554   2.866   2.778  0.8385 -0.4131  0.0548
19858TIP3    H181065   6.523   2.911   2.700  0.8658 -1.2384 -0.4367
19858TIP3    H281066   6.537   2.927   2.850  0.4048  0.1613 -0.5354
19859TIP3   OH281067   0.526   0.676  12.800 -0.1016  0.4879 -0.5198
19859TIP3    H181068   0.443   0.668  12.847  0.4280 -0.7548  0.2438
19859TIP3    H281069   0.574   0.744  12.846 -0.0777  0.1162  0.0111
19860TIP3   OH281070   2.919   4.494   2.859  0.7572 -0.2323  0.4589
19860TIP3    H181071   2.916   4.578   2.812  3.0508 -0.0869  0.5244
19860TIP3    H281072   2.827   4.469   2.869  0.1010  1.4477 -1.0491
19861TIP3   OH281073   2.119   3.906  12.232 -0.0690  0.5026 -0.3016
19861TIP3    H181074   2.036   3.924  12.275  0.1357 -0.6358  0.5958
19861TIP3    H281075   2.105   3.933  12.141 -2.0850 -1.4909 -0.6362
19862TIP3   OH281076   1.198   3.720   1.508  0.2365  0.8733  0.6847
19862TIP3    H181077   1.178   3.775   1.584 -1.3090 -0.5362  1.3179
19862TIP3    H281078   1.113   3.700   1.470  0.9757  1.3589 -1.3060
19863TIP3   OH281079   3.806   4.981   0.404 -0.5082 -0.0303  0.2155
19863TIP3    H181080   3.775   4.975   0.313  1.5699  1.4358 -0.6515
19863TIP3    H281081   3.858   4.902   0.417 -1.5662 -0.6924  0.4452
19864TIP3   OH281082   5.629   2.015   6.669  0.2019 -0.0857  0.5564
19864TIP3    H181083   5.603   2.070   6.594  0.4756 -1.6989 -0.7560
19864TIP3    H281084   5.703   2.061   6.707  0.3687  0.5162 -0.4649
19865TIP3   OH281085   3.238   4.938   2.903  0.1303  0.3200 -0.3370
19865TIP3    H181086   3.175   4.958   2.834  0.5436 -0.1265 -0.8517
19865TIP3    H281087   3.266   5.023   2.936 -0.8771  0.5175  0.0227
19866TIP3   OH281088   4.132   3.638   2.412  0.0999  0.8110  0.4240
19866TIP3    H181089   4.192   3.564   2.421  0.5140  1.0716 -0.1376
19866TIP3    H281090   4.050   3.600   2.382  0.1502  0.5201  0.6546
19867TIP3   OH281091   4.220   5.377   6.819 -0.4462 -0.8576  0.0398
19867TIP3    H181092   4.158   5.365   6.747 -2.4613 -0.6957  1.7006
19867TIP3    H281093   4.183   5.449   6.870  0.5945 -1.4079  1.5996
19868TIP3   OH281094   5.475   1.602  15.727 -0.2546 -0.0633  0.2373
19868TIP3    H181095   5.495   1.660  15.654 -0.6254 -0.9977 -0.6212
19868TIP3    H281096   5.547   1.538  15.727 -0.4204 -0.2506  0.4974
19869TIP3   OH281097   5.774   1.036  16.233 -0.3382 -0.3297  0.2113
19869TIP3    H181098   5.781   1.033  16.329 -0.0913  0.5404  0.2273
19869TIP3    H281099   5.863   1.055  16.203 -0.4331 -0.5131 -0.1866
19870TIP3   OH281100   3.098   3.831  16.677 -0.1365  0.4649 -0.1447
19870TIP3    H181101   3.018   3.826  16.625  0.2225 -1.6938 -0.5339
19870TIP3    H281102   3.152   3.897  16.632 -1.3878  1.4278 -0.2725
19871TIP3   OH281103   4.753   3.153   2.351  0.4852 -0.3495  0.2805
19871TIP3    H181104   4.797   3.230   2.386  0.9491 -0.7892  0.6649
19871TIP3    H281105   4.808   3.080   2.378  0.8000 -0.6974 -1.2883
19872TIP3   OH281106   4.372   0.470  11.527  0.4871 -0.4619  0.7716
19872TIP3    H181107   4.360   0.425  11.443 -0.3824  0.1448  0.5668
19872TIP3    H281108   4.308   0.430  11.585  0.2338 -0.0172  0.8001
19873TIP3   OH281109   1.020   3.069  17.088  0.2046  0.1969  0.2430
19873TIP3    H181110   1.025   3.158  17.053  0.8089  0.0709  0.0107
19873TIP3    H281111   0.996   3.015  17.013 -1.3456  0.3181  0.6256
19874TIP3   OH281112   4.476   3.129   0.922 -0.1634 -0.5243 -0.0027
19874TIP3    H181113   4.543   3.060   0.923  0.1242 -0.2438  0.5917
19874TIP3    H281114   4.494   3.180   1.001 -1.7895 -1.1184  0.7696
19875TIP3   OH281115   5.813   2.680   0.460 -0.4030  0.0606  0.0828
19875TIP3    H181116   5.753   2.607   0.473 -0.5772  0.4303  1.5418
19875TIP3    H281117   5.853   2.693   0.546  1.6861 -0.1089 -0.8455
19876TIP3   OH281118   3.490   0.189   1.524 -0.0373  0.2739  0.0619
19876TIP3    H181119   3.556   0.202   1.592 -0.3974 -1.8238  0.8602
19876TIP3    H281120   3.410   0.226   1.561 -0.3697 -1.3863  1.0666
19877TIP3   OH281121   0.847   5.558   5.655  0.4559  0.2758 -0.3714
19877TIP3    H181122   0.903   5.619   5.702 -1.2050  0.2019  1.7547
19877TIP3    H281123   0.805   5.611   5.587  0.3270  1.1212  0.3691
19878TIP3   OH281124   4.310   0.429  14.235  0.0881 -0.0534 -0.3779
19878TIP3    H181125   4.365   0.498  14.199  1.7564 -1.1770 -0.0858
19878TIP3    H281126   4.373   0.363  14.267 -1.4046 -0.7160  1.2837
19879TIP3   OH281127   1.850   3.257  15.447  0.4109 -0.8384  0.1700
19879TIP3    H181128   1.929   3.291  15.406  1.2204 -1.8430  0.8459
19879TIP3    H281129   1.838   3.171  15.407  0.5062 -1.3034  1.1249
19880TIP3   OH281130   0.519   5.140  16.337  0.4806 -0.3793 -0.2404
19880TIP3    H181131   0.554   5.221  16.300  0.0708 -0.1301 -0.0826
19880TIP3    H281132   0.431   5.133  16.302  0.4991 -0.7354 -0.2186
19881TIP3   OH281133   1.995   6.763  11.832  0.1523  0.0549  0.4720
19881TIP3    H181134   2.068   6.702  11.819 -1.4352 -2.1424  1.5634
19881TIP3    H281135   1.996   6.781  11.926 -0.0240  0.8995  0.3102
19882TIP3   OH281136   2.696   4.450   5.287  0.0025  0.2183 -0.1642
19882TIP3    H181137   2.697   4.442   5.383  1.0043  0.3445 -0.1521
19882TIP3    H281138   2.609   4.483   5.266  0.0500  0.9546  0.7678
19883TIP3   OH281139   3.124   0.855  16.856 -0.2728 -0.3001 -0.0362
19883TIP3    H181140   3.095   0.899  16.776 -0.2426 -0.4050 -0.1050
19883TIP3    H281141   3.045   0.851  16.911 -0.8313 -2.1322 -0.9323
19884TIP3   OH281142   5.621   4.191   3.646  0.6399 -0.4810  0.0045
19884TIP3    H181143   5.536   4.164   3.610  0.3791  0.5835 -0.1759
19884TIP3    H281144   5.603   4.206   3.739  0.7308 -0.6896  0.0557
19885TIP3   OH281145   3.416   0.672   3.684  0.1369 -0.2059  0.3624
19885TIP3    H181146   3.326   0.644   3.703  0.3610 -0.8100  0.5643
19885TIP3    H281147   3.459   0.592   3.654  1.1214 -0.3546  2.1185
19886TIP3   OH281148   5.158   6.076  13.101  0.3948  0.1368  0.5532
19886TIP3    H181149   5.145   6.097  13.008 -1.6307 -2.8092  0.1295
19886TIP3    H281150   5.250   6.096  13.117  0.1364  3.2283 -1.3690
19887TIP3   OH281151   5.044   6.072   3.675 -0.2969 -0.1056 -0.0817
19887TIP3    H181152   5.122   6.126   3.656 -0.6052 -0.5742 -2.9763
19887TIP3    H281153   4.996   6.122   3.741  2.5781  0.0594  1.9609
19888TIP3   OH281154   5.664   3.027  11.678 -0.3578  0.2654 -0.0197
19888TIP3    H181155   5.757   3.049  11.674  0.0730 -1.6092 -1.6721
19888TIP3    H281156   5.654   2.980  11.761  0.0649  0.9530  0.4218
19889TIP3   OH281157   5.501   1.016  11.288 -0.3020  0.2917 -0.5695
19889TIP3    H181158   5.531   0.927  11.303 -3.0971 -0.7346 -0.8228
19889TIP3    H281159   5.540   1.067  11.360  0.0716 -1.3999  0.4450
19890TIP3   OH281160   4.386   4.918  16.332 -0.1911 -0.0264  0.1495
19890TIP3    H181161   4.381   4.876  16.418 -1.3467  1.4893  0.8442
19890TIP3    H281162   4.420   5.006  16.350  1.9225 -0.5197 -1.2542
19891TIP3   OH281163   5.502   3.392  15.650  0.3524  0.5026  0.6419
19891TIP3    H181164   5.509   3.382  15.555 -1.2805  2.0449  0.3418
19891TIP3    H281165   5.571   3.335  15.685  0.0674 -1.1337 -1.3983
19892TIP3   OH281166   1.925   0.468  16.985 -0.6424 -0.0477  0.5723
19892TIP3    H181167   1.962   0.383  17.008 -1.1759 -0.8871 -1.5768
19892TIP3    H281168   1.948   0.524  17.059  0.9544 -1.6919  1.3812
19893TIP3   OH281169   2.184   0.634  16.220  0.1131 -0.6072  0.1730
19893TIP3    H181170   2.244   0.597  16.154 -0.1285  0.8818 -0.9247
19893TIP3    H281171   2.100   0.641  16.174 -0.5545 -1.4037  1.2757
19894TIP3   OH281172   3.123   1.674  14.572 -0.3579 -0.1184 -0.7505
19894TIP3    H181173   3.129   1.754  14.521  0.9872 -0.2058 -0.7376
19894TIP3    H281174   3.048   1.688  14.630 -0.3643  0.9706 -1.0140
19895TIP3   OH281175   2.684   2.745  11.308 -0.5699  0.1944  0.1564
19895TIP3    H181176   2.724   2.658  11.311 -0.1755  0.3810  0.4072
19895TIP3    H281177   2.758   2.805  11.320 -0.8745  0.5534  0.2300
19896TIP3   OH281178   2.573   5.377  16.960  0.0206  0.7247  0.0206
19896TIP3    H181179   2.661   5.367  16.997  0.0987 -1.6578 -0.7373
19896TIP3    H281180   2.589   5.402  16.869 -0.0942  0.3324 -0.1061
19897TIP3   OH281181   5.284   6.109   2.731  0.6746 -0.2677  0.4361
19897TIP3    H181182   5.293   6.031   2.785 -1.5105  0.2368  1.5613
19897TIP3    H281183   5.218   6.086   2.665  2.5618 -0.5259 -1.4328
19898TIP3   OH281184   4.871   4.069  11.515  0.5278  0.0681 -0.6013
19898TIP3    H181185   4.903   4.123  11.443  1.7362  1.4417  0.9177
19898TIP3    H281186   4.947   4.018  11.542  0.2038 -0.1344 -0.0551
19899TIP3   OH281187   2.938   3.985  12.106 -0.2911  0.4003  0.0774
19899TIP3    H181188   2.904   3.942  12.184 -0.5408 -1.8940 -1.2224
19899TIP3    H281189   2.876   3.961  12.037  0.7039  1.1814 -1.1167
19900TIP3   OH281190   3.006   3.624  14.990 -0.2498  0.0665  0.1725
19900TIP3    H181191   3.039   3.587  14.908  0.4947  1.0467  0.0032
19900TIP3    H281192   3.073   3.601  15.055 -0.7584 -0.5698  0.4692
19901TIP3   OH281193   3.312   2.119  13.490 -0.2247  0.7801 -0.2964
19901TIP3    H181194   3.271   2.075  13.416  1.4058  0.2140 -0.8748
19901TIP3    H281195   3.388   2.163  13.453  1.3566 -0.5742  1.2685
19902TIP3   OH281196   6.785   1.631  13.470  0.3487  0.4287  0.0558
19902TIP3    H181197   6.815   1.703  13.415 -1.2457  0.5091 -0.7576
19902TIP3    H281198   6.689   1.637  13.467  0.2168 -0.6571  1.3993
19903TIP3   OH281199   0.475   0.103   6.545 -0.0290 -0.1707  0.1422
19903TIP3    H181200   0.568   0.094   6.568  0.6112 -1.1104 -2.5874
19903TIP3    H281201   0.476   0.132   6.454 -2.4253 -0.6913 -0.0714
19904TIP3   OH281202   6.368   6.534  13.666  0.1930 -0.2223 -0.2962
19904TIP3    H181203   6.452   6.559  13.627  0.6620  0.2220  0.9717
19904TIP3    H281204   6.303   6.588  13.621  0.2732 -2.1904 -2.8982
19905TIP3   OH281205   4.367   6.178   1.916  0.3151  0.2053  0.1608
19905TIP3    H181206   4.295   6.125   1.883  0.4986  0.5374 -0.7789
19905TIP3    H281207   4.333   6.219   1.996 -1.3014  2.1341 -1.4821
19906TIP3   OH281208   3.770   5.683  17.067 -0.1631 -0.5367 -0.4476
19906TIP3    H181209   3.831   5.755  17.083  0.0311 -0.6074 -0.8526
19906TIP3    H281210   3.755   5.685  16.973  0.0545 -1.1942 -0.4988
19907TIP3   OH281211   2.132   1.734   4.148  0.2426 -0.2525 -0.7098
19907TIP3    H181212   2.116   1.681   4.069 -1.1619 -2.0905  0.7453
19907TIP3    H281213   2.097   1.681   4.219  2.3158  0.9695  1.2865
19908TIP3   OH281214   5.699   4.409   3.293  0.1857 -0.5148 -0.2783
19908TIP3    H181215   5.724   4.319   3.275  1.7293  0.6202 -4.4771
19908TIP3    H281216   5.625   4.426   3.235 -1.3351  0.3577  1.8699
19909TIP3   OH281217   1.798   3.850  13.779  0.4813 -0.1957  0.1778
19909TIP3    H181218   1.762   3.817  13.696 -2.2107 -2.2967  2.1200
19909TIP3    H281219   1.854   3.778  13.811  2.1843  0.9370 -0.1574
19910TIP3   OH281220   4.916   1.876   4.336  0.0490  1.0518 -0.4246
19910TIP3    H181221   4.820   1.879   4.328 -0.1692 -0.5621  1.1883
19910TIP3    H281222   4.948   1.887   4.246 -1.6876  0.1888 -1.1775
19911TIP3   OH281223   5.666   4.246  12.563 -0.2338 -0.1117 -0.1110
19911TIP3    H181224   5.759   4.263  12.546 -0.6993  2.2780 -0.4146
19911TIP3    H281225   5.654   4.154  12.539  1.8516 -0.2098 -0.9120
19912TIP3   OH281226   0.155   6.158   6.061 -0.2958  0.1399  0.0519
19912TIP3    H181227   0.115   6.202   5.986  0.0574  0.0886 -0.1693
19912TIP3    H281228   0.096   6.176   6.134 -0.2454  0.8348 -0.0747
19913TIP3   OH281229   5.823   0.100  15.818 -0.1611  0.7353 -0.0756
19913TIP3    H181230   5.814   0.057  15.733 -0.2846  1.4227 -0.4157
19913TIP3    H281231   5.734   0.102  15.853  0.0637 -0.6406  0.6220
19914TIP3   OH281232   0.742   3.784   1.301 -0.2472  0.2384  0.3939
19914TIP3    H181233   0.707   3.759   1.215  2.3667 -1.0703 -0.3381
19914TIP3    H281234   0.751   3.700   1.347 -1.6408  0.9400  1.9607
19915TIP3   OH281235   0.507   5.661   4.196  0.5967  0.2090 -0.0662
19915TIP3    H181236   0.456   5.654   4.115 -1.1054  1.7581  0.8423
19915TIP3    H281237   0.506   5.574   4.234 -3.3238  0.6645  1.0686
19916TIP3   OH281238   3.430   5.660  11.575 -0.5577 -0.2219 -0.8583
19916TIP3    H181239   3.367   5.589  11.588 -1.9758  0.8831 -1.5615
19916TIP3    H281240   3.474   5.638  11.493 -1.0984 -0.2206 -1.1516
19917TIP3   OH281241   6.429   5.634   5.131 -0.0818  0.0909  0.3078
19917TIP3    H181242   6.369   5.566   5.104  1.0801 -0.9866  0.3978
19917TIP3    H281243   6.494   5.638   5.061  0.0577  0.8664  0.4711
19918TIP3   OH281244   3.724   1.465   4.614 -0.0862 -0.3186  0.1351
19918TIP3    H181245   3.796   1.526   4.602  0.9332 -1.3659  0.9008
19918TIP3    H281246   3.726   1.442   4.707 -2.3571  0.8056  0.4966
19919TIP3   OH281247   3.029   3.986   4.054 -0.0402 -0.3514 -0.1939
19919TIP3    H181248   3.088   3.981   4.129 -1.2263  2.4349  0.9894
19919TIP3    H281249   3.082   4.026   3.984 -0.0518  0.6760  0.3754
19920TIP3   OH281250   4.064   2.132  15.466 -0.6005  0.2732  0.8549
19920TIP3    H181251   4.089   2.043  15.491 -1.4766 -0.1307  0.3004
19920TIP3    H281252   4.075   2.183  15.546  1.9246  0.1043  0.6586
19921TIP3   OH281253   3.155   6.664  11.760 -0.7391  0.2313 -0.6533
19921TIP3    H181254   3.243   6.645  11.792 -0.9182 -0.5397 -0.6301
19921TIP3    H281255   3.133   6.591  11.703 -1.3929  0.3934 -0.6158
19922TIP3   OH281256   5.170   2.020   6.793 -0.0259  0.5800 -0.5516
19922TIP3    H181257   5.138   2.035   6.704 -0.9545 -3.4659 -1.0229
19922TIP3    H281258   5.091   2.007   6.845  0.5704  1.0078  0.4784
19923TIP3   OH281259   3.410   5.311   1.320  0.0724 -0.2332 -0.2521
19923TIP3    H181260   3.387   5.372   1.250  2.0965  0.1089 -0.6322
19923TIP3    H281261   3.341   5.244   1.316 -2.1825  1.9592  0.1705
19924TIP3   OH281262   4.322   3.051   2.367 -0.0151  0.5471 -0.0747
19924TIP3    H181263   4.406   3.014   2.339 -0.0967 -0.5844  1.1428
19924TIP3    H281264   4.274   3.066   2.286  0.4631 -0.9529 -0.6530
19925TIP3   OH281265   3.431   4.490   1.775  0.2959  0.1521  0.2397
19925TIP3    H181266   3.458   4.478   1.684 -1.0159 -0.3734 -0.0929
19925TIP3    H281267   3.445   4.405   1.816 -2.1649 -0.5492 -0.3012
19926TIP3   OH281268   0.859   6.425  15.474  0.1560  0.0483  0.6035
19926TIP3    H181269   0.812   6.495  15.518 -0.8922 -0.3938  0.2125
19926TIP3    H281270   0.888   6.464  15.391 -1.1201 -0.2013  0.0279
19927TIP3   OH281271   4.055   2.782  11.543 -0.3215  0.4974  0.1200
19927TIP3    H181272   4.085   2.856  11.596  0.0981  0.7824 -0.5087
19927TIP3    H281273   3.992   2.820  11.482  0.4095  0.4700 -0.6650
19928TIP3   OH281274   5.069   1.422  11.617 -0.2340  0.5212  0.1151
19928TIP3    H181275   5.118   1.360  11.563 -0.7427 -1.7653  2.1845
19928TIP3    H281276   5.130   1.494  11.631  1.6483 -1.0695  0.4830
19929TIP3   OH281277   3.816   3.743  17.153 -0.1610 -0.0303 -0.2363
19929TIP3    H181278   3.727   3.753  17.119 -0.5604  0.3157  0.8900
19929TIP3    H281279   3.865   3.702  17.082 -1.0160  0.5508 -1.1705
19930TIP3   OH281280   2.080   1.276   5.573 -0.6840 -0.7824 -0.4276
19930TIP3    H181281   2.004   1.331   5.551 -0.2582 -0.3102 -0.7368
19930TIP3    H281282   2.067   1.196   5.524  1.0478  0.8500 -3.7184
19931TIP3   OH281283   3.823   5.554  13.413 -0.2266 -0.8730 -0.2271
19931TIP3    H181284   3.859   5.637  13.444 -0.5073 -0.9089  0.1945
19931TIP3    H281285   3.888   5.489  13.438  1.1327 -0.5007 -2.6449
19932TIP3   OH281286   4.803   0.335  12.403  0.0113 -0.2447 -0.3425
19932TIP3    H181287   4.752   0.411  12.432  0.0969 -0.2308 -0.2295
19932TIP3    H281288   4.780   0.325  12.311  1.8140  1.3963 -1.0211
19933TIP3   OH281289   1.165   2.601  11.634 -0.3811  0.2631  0.0355
19933TIP3    H181290   1.147   2.544  11.709  1.9806 -3.3863 -2.0236
19933TIP3    H281291   1.258   2.622  11.643 -0.9735  3.0731  0.1831
19934TIP3   OH281292   6.326   3.738  13.117 -0.2326  0.1406  0.2106
19934TIP3    H181293   6.254   3.718  13.057  0.0055  1.7316 -0.6316
19934TIP3    H281294   6.395   3.774  13.060  0.7824 -0.2467  1.1702
19935TIP3   OH281295   5.393   6.048  16.088 -0.2172  0.3402 -0.2592
19935TIP3    H181296   5.300   6.039  16.112 -0.1026 -1.3672 -0.3706
19935TIP3    H281297   5.432   6.098  16.159 -1.0063  0.1205  0.3319
19936TIP3   OH281298   4.520   5.783  11.237  0.0883 -0.2243  0.1036
19936TIP3    H181299   4.505   5.699  11.194  0.7519  0.7076 -2.0545
19936TIP3    H281300   4.435   5.828  11.231 -0.3903 -0.9021  1.6624
19937TIP3   OH281301   1.303   0.646   5.757 -0.1770 -0.6877 -0.5696
19937TIP3    H181302   1.381   0.686   5.718 -0.0386 -1.2653 -0.8824
19937TIP3    H281303   1.230   0.684   5.707 -0.1184  0.0539 -0.1016
19938TIP3   OH281304   6.748   3.719   0.166  0.4965  0.2532 -0.5429
19938TIP3    H181305   6.830   3.700   0.119  0.3843 -0.7812 -0.3244
19938TIP3    H281306   6.766   3.800   0.213  1.6992 -0.4259  0.1977
19939TIP3   OH281307   4.330   3.183  12.098 -0.1555 -0.2535  0.1038
19939TIP3    H181308   4.417   3.189  12.059 -0.3904  1.0170 -0.2299
19939TIP3    H281309   4.272   3.163  12.025  0.0174 -2.4846  0.5295
19940TIP3   OH281310   1.383   6.164  14.850  0.1422  0.3060  0.1820
19940TIP3    H181311   1.442   6.089  14.857  0.0563  0.3317  1.3275
19940TIP3    H281312   1.298   6.127  14.830  0.9217  0.4063 -3.5630
19941TIP3   OH281313   4.535   5.908   0.327  0.1139 -0.2501 -0.1603
19941TIP3    H181314   4.478   5.867   0.262 -2.6187 -0.1355  2.0618
19941TIP3    H281315   4.520   5.857   0.407  0.9288  1.6107  1.2171
19942TIP3   OH281316   3.521   2.795  11.587 -0.4576 -0.1309 -0.3956
19942TIP3    H181317   3.456   2.791  11.658  1.3899  0.1283  1.3632
19942TIP3    H281318   3.526   2.705  11.555 -0.4337 -0.5076  0.6362
19943TIP3   OH281319   0.069   5.317   4.682  0.0173  0.5387 -0.3469
19943TIP3    H181320   0.066   5.398   4.733 -0.2538  0.7924 -0.7637
19943TIP3    H281321   0.162   5.298   4.672  0.0682  0.1520  0.7645
19944TIP3   OH281322   5.435   3.141  11.068  0.4284  0.1291  0.1117
19944TIP3    H181323   5.473   3.131  10.980 -1.2159 -0.1947 -0.5746
19944TIP3    H281324   5.428   3.052  11.102  0.9854  0.2487  0.5409
19945TIP3   OH281325   1.642   5.025  11.785 -0.2970  0.3221  0.0080
19945TIP3    H181326   1.717   5.072  11.747 -0.8355  1.5191  0.4128
19945TIP3    H281327   1.576   5.093  11.800 -0.7200 -0.4067  1.5224
19946TIP3   OH281328   3.559   0.401   5.204  0.0178  0.4192 -0.1119
19946TIP3    H181329   3.504   0.397   5.283 -0.2696  0.4414 -0.3084
19946TIP3    H281330   3.639   0.446   5.232 -0.2439  0.7725  0.0724
19947TIP3   OH281331   2.823   4.144  12.378  0.2402 -0.7793 -0.2065
19947TIP3    H181332   2.778   4.229  12.372  1.8838  0.2080  1.0673
19947TIP3    H281333   2.916   4.166  12.372  0.7255 -2.4040  1.1675
19948TIP3   OH281334   2.766   3.580   5.108  0.0474 -0.2678  0.0884
19948TIP3    H181335   2.781   3.580   5.203 -2.8782  0.1305  0.6067
19948TIP3    H281336   2.757   3.488   5.085 -2.2708 -0.2352  0.7635
19949TIP3   OH281337   2.159   3.255   0.054 -0.8212  0.2466 -0.3891
19949TIP3    H181338   2.180   3.343   0.024 -1.7818  0.6873  0.2162
19949TIP3    H281339   2.233   3.230   0.110  0.2161  0.0331 -1.8071
19950TIP3   OH281340   3.936   2.870   2.097  0.2373 -0.2210 -0.6773
19950TIP3    H181341   4.019   2.822   2.099  0.2540 -0.3133 -2.8742
19950TIP3    H281342   3.869   2.801   2.103  0.2949 -0.3755 -1.6860
19951TIP3   OH281343   2.074   0.647  15.851 -0.4383 -0.2684  0.4538
19951TIP3    H181344   2.102   0.737  15.834  2.4748 -0.6401  3.0075
19951TIP3    H281345   1.999   0.656  15.910 -1.0034  0.5113 -0.3775
19952TIP3   OH281346   5.160   1.485   0.400 -0.5583  0.0363 -0.2823
19952TIP3    H181347   5.160   1.457   0.309 -1.4043  1.3049 -0.6892
19952TIP3    H281348   5.084   1.543   0.407  0.4981  1.3019  0.8041
19953TIP3   OH281349   3.044   4.723   0.181  0.1134  0.4217  0.2422
19953TIP3    H181350   3.068   4.767   0.262 -0.0379  0.4425  0.2746
19953TIP3    H281351   3.097   4.643   0.182 -0.6111 -0.0613  0.8397
19954TIP3   OH281352   1.701   4.242   0.211 -0.2987 -0.2178  0.2009
19954TIP3    H181353   1.790   4.206   0.210  0.1950  0.9969 -0.6616
19954TIP3    H281354   1.713   4.336   0.221 -1.4796  0.0014 -0.3346
19955TIP3   OH281355   6.714   2.888   5.784  0.4730  0.3243 -0.2454
19955TIP3    H181356   6.766   2.811   5.808  1.2493  1.1711  0.8305
19955TIP3    H281357   6.638   2.884   5.842  0.7557  0.6387  0.1437
19956TIP3   OH281358   5.403   2.253  13.002 -0.1176  0.3656 -0.1301
19956TIP3    H181359   5.321   2.220  12.964  0.8943 -0.7111 -1.4309
19956TIP3    H281360   5.433   2.320  12.940 -0.5180  1.4555  0.8543
19957TIP3   OH281361   5.638   1.262   1.199 -0.7266  0.4503  0.5806
19957TIP3    H181362   5.710   1.272   1.137  0.1674  2.7389  1.9128
19957TIP3    H281363   5.561   1.243   1.145  0.2270  1.3854 -1.1308
19958TIP3   OH281364   1.271   3.532   2.074 -0.0767 -0.8495 -0.4850
19958TIP3    H181365   1.294   3.620   2.046 -0.1620 -1.4978 -2.6772
19958TIP3    H281366   1.201   3.505   2.014 -1.3879 -1.7042  1.3702
19959TIP3   OH281367   5.441   0.025   3.126 -0.0076  0.3306 -0.3350
19959TIP3    H181368   5.500   0.099   3.141 -0.7719  1.3319 -2.1422
19959TIP3    H281369   5.480  -0.023   3.054  0.6922 -1.2763  1.0894
19960TIP3   OH281370   0.497   4.312   0.638  0.5452  0.4674  0.6470
19960TIP3    H181371   0.465   4.243   0.580  0.6204  0.7088  0.3216
19960TIP3    H281372   0.589   4.323   0.615 -0.0851  2.4350 -1.0465
19961TIP3   OH281373   3.743   0.508   1.281 -0.3452  0.0818 -0.1157
19961TIP3    H181374   3.832   0.538   1.264 -0.3608  0.8648  1.1448
19961TIP3    H281375   3.753   0.420   1.317  0.0128  0.7135  1.3709
19962TIP3   OH281376   3.184   2.527  12.166  0.6848 -0.1776  0.4975
19962TIP3    H181377   3.209   2.619  12.164  2.9849 -0.7399  1.7677
19962TIP3    H281378   3.115   2.523  12.232 -1.1631  1.0060 -1.3124
19963TIP3   OH281379   3.085   1.345  14.095  0.6899 -0.1363  0.1603
19963TIP3    H181380   3.178   1.340  14.118  0.7975  0.9239 -0.0231
19963TIP3    H281381   3.070   1.437  14.075 -0.4343 -0.2791  0.3134
19964TIP3   OH281382   4.223   3.055  14.194 -0.3237  0.4017  0.3483
19964TIP3    H181383   4.145   3.047  14.250 -1.0633 -0.5220 -0.7836
19964TIP3    H281384   4.287   2.998  14.236 -0.6257  0.2934  0.6748
19965TIP3   OH281385   5.076   5.219  12.030 -0.0183 -0.6402 -0.4427
19965TIP3    H181386   5.136   5.228  11.956  0.4420 -0.6227 -0.0741
19965TIP3    H281387   5.054   5.309  12.054  1.0745 -0.5905  0.4296
19966TIP3   OH281388   2.862   5.165   6.120  0.4360  0.0878  0.6933
19966TIP3    H181389   2.775   5.164   6.162 -0.3914  0.8176 -0.9615
19966TIP3    H281390   2.857   5.096   6.054  1.7140 -1.0077  1.7146
19967TIP3   OH281391   1.133   0.150  12.367  0.0015 -0.1749  0.6513
19967TIP3    H181392   1.156   0.188  12.282  0.4819 -1.2398  0.2946
19967TIP3    H281393   1.208   0.094  12.390 -0.4015 -0.3925  1.4723
19968TIP3   OH281394   1.418   6.753  11.841 -0.1532  0.5484  0.5199
19968TIP3    H181395   1.491   6.693  11.829  0.6678  2.0598 -2.1875
19968TIP3    H281396   1.347   6.697  11.872  0.8042 -1.7306 -1.2627
19969TIP3   OH281397   3.653   0.893   6.587 -0.0991  0.6246 -0.1120
19969TIP3    H181398   3.646   0.808   6.545 -2.8926  0.9387 -0.3997
19969TIP3    H281399   3.742   0.922   6.569  0.2508 -1.3486 -1.7108
19970TIP3   OH281400   5.204   0.243  13.258 -0.4724 -0.2187 -0.2081
19970TIP3    H181401   5.250   0.310  13.208  0.1970  0.1599  0.9096
19970TIP3    H281402   5.136   0.210  13.198 -0.6103  1.2440 -0.8568
19971TIP3   OH281403   0.058   5.526   4.867  0.1054  0.1632 -0.4048
19971TIP3    H181404   0.102   5.473   4.934 -0.1774 -0.3114 -0.5929
19971TIP3    H281405   0.105   5.609   4.868  0.2270  0.0927  0.2523
19972TIP3   OH281406   4.055   3.015   5.024 -0.6636  0.4138  0.2029
19972TIP3    H181407   3.961   3.033   5.036 -0.4735  2.4818 -1.1278
19972TIP3    H281408   4.089   3.093   4.980  1.1570 -1.4306 -1.8009
19973TIP3   OH281409   0.349   5.270   4.589 -0.4949  0.5338 -0.5391
19973TIP3    H181410   0.352   5.299   4.498  2.1161 -0.9559 -0.9993
19973TIP3    H281411   0.375   5.178   4.585 -1.1658  0.2219  1.6354
19974TIP3   OH281412   2.696   0.123  13.307  0.5080 -0.9883  0.0216
19974TIP3    H181413   2.726   0.110  13.217 -1.1497 -0.1425 -0.6670
19974TIP3    H281414   2.654   0.209  13.306  0.3267 -1.0599  1.5602
19975TIP3   OH281415   4.004   3.872   3.752  0.0065  0.1299 -0.1969
19975TIP3    H181416   3.981   3.862   3.845  1.1023 -1.4654 -0.0883
19975TIP3    H281417   3.920   3.869   3.706 -0.5646  1.1221  0.7494
19976TIP3   OH281418   5.928   3.519  17.128 -0.0147 -0.0938  0.0260
19976TIP3    H181419   5.934   3.554  17.039  0.7414  1.6016  0.7331
19976TIP3    H281420   5.999   3.455  17.132  0.7101  0.6763 -0.2265
19977TIP3   OH281421   4.359   3.284   1.608 -0.3763 -0.3976  0.1664
19977TIP3    H181422   4.348   3.375   1.635 -1.2286 -0.5781  0.4247
19977TIP3    H281423   4.427   3.249   1.666 -2.4654 -0.8982  2.3846
19978TIP3   OH281424   2.624   2.291   6.746  0.0380  0.4544 -0.1493
19978TIP3    H181425   2.677   2.362   6.783 -1.3683  1.6590 -0.3814
19978TIP3    H281426   2.534   2.317   6.764 -0.4973 -1.4131 -0.0290
19979TIP3   OH281427   5.825   2.139  11.968 -0.1497  0.2718 -0.1059
19979TIP3    H181428   5.844   2.180  12.053  0.4818  0.4116 -0.3079
19979TIP3    H281429   5.761   2.072  11.988  0.7743 -0.3952  0.6620
19980TIP3   OH281430   2.668   6.462   1.584  0.0878 -0.0439  0.6203
19980TIP3    H181431   2.621   6.378   1.585  0.1126 -0.0775 -0.4276
19980TIP3    H281432   2.726   6.457   1.659  0.2315 -1.0618  0.4555
19981TIP3   OH281433   2.556   5.812  17.000 -0.4611  0.2126 -0.2959
19981TIP3    H181434   2.565   5.905  17.023  0.0530 -0.1511  1.0450
19981TIP3    H281435   2.644   5.786  16.973 -0.2284 -0.2733  0.8843
19982TIP3   OH281436   4.258   2.460  17.258 -0.3979  0.1768 -0.6965
19982TIP3    H181437   4.274   2.548  17.294 -0.2174  0.4536 -1.4598
19982TIP3    H281438   4.284   2.466  17.166 -0.0952 -0.7624 -0.6795
19983TIP3   OH281439   3.335   4.040  12.902 -0.0545  0.3319 -0.0670
19983TIP3    H181440   3.428   4.021  12.891 -0.4558 -1.8542  0.1856
19983TIP3    H281441   3.290   3.958  12.883 -1.9571  1.3484 -0.1974
19984TIP3   OH281442   0.654   1.431  12.534  0.5320  0.0540 -0.1774
19984TIP3    H181443   0.629   1.347  12.571  0.6839 -0.0712 -0.3591
19984TIP3    H281444   0.645   1.419  12.439  3.5788 -0.7436 -0.4015
19985TIP3   OH281445   0.502   1.936  15.650  0.3250  0.0038  0.5010
19985TIP3    H181446   0.536   1.948  15.561 -1.0658 -1.0908 -0.1935
19985TIP3    H281447   0.422   1.990  15.652  0.1232 -0.3138  0.9551
19986TIP3   OH281448   3.394   1.883   1.036 -0.2964  0.5856 -0.0781
19986TIP3    H181449   3.489   1.882   1.046 -0.0695 -0.8636 -2.2072
19986TIP3    H281450   3.376   1.960   0.982 -0.2280  0.2130 -0.6331
19987TIP3   OH281451   1.612   0.206  15.173 -0.1292  0.6062  0.2973
19987TIP3    H181452   1.582   0.263  15.244  1.2037 -1.4454  2.6281
19987TIP3    H281453   1.641   0.266  15.104 -2.6123  2.6510  0.9642
19988TIP3   OH281454   5.005   3.500  14.930  0.5636  0.2253  0.6537
19988TIP3    H181455   4.963   3.462  14.854  0.1468  3.2267 -0.6982
19988TIP3    H281456   4.978   3.444  15.003  0.4366 -2.3021 -1.2781
19989TIP3   OH281457   0.700   5.425   0.577 -0.4645 -0.0861 -0.3816
19989TIP3    H181458   0.636   5.472   0.630 -0.1665 -0.7292  0.5655
19989TIP3    H281459   0.761   5.493   0.548 -1.5949  0.5362 -1.3384
19990TIP3   OH281460   4.648   6.685   4.369  0.7620  0.2289  0.0851
19990TIP3    H181461   4.632   6.758   4.309  0.4985  0.8500  0.9003
19990TIP3    H281462   4.593   6.614   4.336  2.0434 -0.0552 -1.5058
19991TIP3   OH281463   2.348   5.464   1.143 -0.5807 -0.2314  0.5370
19991TIP3    H181464   2.284   5.503   1.204  0.5188  0.8102  1.0379
19991TIP3    H281465   2.343   5.518   1.065 -0.7657 -0.5293  0.3443
19992TIP3   OH281466   6.391   1.775  16.384 -0.1310  0.4122  0.0034
19992TIP3    H181467   6.319   1.719  16.354 -0.4204  0.5527  0.4487
19992TIP3    H281468   6.453   1.714  16.424 -0.6350  0.4530  0.8561
19993TIP3   OH281469   5.479   6.450  12.918 -0.0404  0.0951 -0.5711
19993TIP3    H181470   5.488   6.355  12.925  1.1651  0.0711 -2.0214
19993TIP3    H281471   5.443   6.464  12.830  0.9601  1.0101 -0.8514
19994TIP3   OH281472   0.845   1.612  12.030 -0.6002 -0.0945 -0.5338
19994TIP3    H181473   0.904   1.686  12.041 -2.0296  0.7893  1.6041
19994TIP3    H281474   0.770   1.648  11.981 -0.2027 -0.7589 -1.6556
19995TIP3   OH281475   2.711   6.133   4.359  1.0007  0.4969  0.2992
19995TIP3    H181476   2.644   6.192   4.323 -0.0383 -1.1513 -0.5220
19995TIP3    H281477   2.785   6.140   4.299 -0.1500 -1.0803 -1.3683
19996TIP3   OH281478   1.549   0.561  11.849 -0.3296 -0.2702  0.2137
19996TIP3    H181479   1.579   0.607  11.928 -0.1761 -1.5525  0.9216
19996TIP3    H281480   1.573   0.470  11.865 -2.2742 -0.8953 -0.3714
19997TIP3   OH281481   1.467   0.239   2.212 -0.0491  0.0352 -0.2818
19997TIP3    H181482   1.532   0.214   2.146  1.1644  1.4718  0.3314
19997TIP3    H281483   1.503   0.207   2.295 -0.6189 -0.0330 -0.0556
19998TIP3   OH281484   4.139   2.051   2.157  0.1406 -0.3445 -0.6072
19998TIP3    H181485   4.193   2.112   2.105  0.7723 -0.9177 -0.6238
19998TIP3    H281486   4.054   2.050   2.112 -0.4190  1.8050  0.3332
19999TIP3   OH281487   5.365   0.730  11.469  0.0475 -0.4844 -0.0600
19999TIP3    H181488   5.448   0.715  11.424  0.0705 -1.7217  0.3812
19999TIP3    H281489   5.370   0.674  11.547 -1.1912 -0.5435 -0.0207
20000TIP3   OH281490   6.646   4.580  12.234  0.2041 -0.2900 -0.1918
20000TIP3    H181491   6.640   4.558  12.141  1.0522  1.0976 -0.5920
20000TIP3    H281492   6.731   4.622  12.243 -0.4655  0.8487  0.9454
20001TIP3   OH281493   0.269   0.128  16.269 -0.0448 -0.0907 -0.3903
20001TIP3    H181494   0.235   0.141  16.181 -1.1258  0.0297  0.0405
20001TIP3    H281495   0.196   0.149  16.327  0.4714 -0.7559  0.5215
20002TIP3   OH281496   5.564   2.481   4.452  0.0191 -0.2819 -0.1935
20002TIP3    H181497   5.641   2.528   4.484 -0.9256  0.4395  1.1168
20002TIP3    H281498   5.515   2.547   4.402  0.4504 -0.8513 -1.3823
20003TIP3   OH281499   6.253   3.494   4.212  0.8735 -0.0314 -0.1048
20003TIP3    H181500   6.244   3.568   4.151  0.6827  0.0158 -0.0183
20003TIP3    H281501   6.293   3.532   4.290  0.2660  0.0863  0.1478
20004TIP3   OH281502   2.388   0.684  16.441  0.0958  0.4259  0.3745
20004TIP3    H181503   2.316   0.643  16.394  0.5138 -0.5032  0.5236
20004TIP3    H281504   2.398   0.631  16.520  0.4445  1.0094  0.7255
20005TIP3   OH281505   0.151   6.596  11.352  0.0754 -0.2379 -0.3838
20005TIP3    H181506   0.211   6.521  11.350 -1.4706 -1.5210  0.3625
20005TIP3    H281507   0.199   6.664  11.400  0.3805 -1.7457  1.4935
20006TIP3   OH281508   1.296   4.952   4.741  0.3458  0.0109 -0.3466
20006TIP3    H181509   1.361   4.980   4.805  1.1367  1.1880 -1.6409
20006TIP3    H281510   1.347   4.921   4.666 -0.5654  0.8776 -1.3446
20007TIP3   OH281511   1.377   4.695   4.503 -0.3128  0.3685  0.2442
20007TIP3    H181512   1.410   4.780   4.532 -1.8639  0.3969  1.9638
20007TIP3    H281513   1.436   4.631   4.544 -0.2154  0.5335  0.3617
20008TIP3   OH281514   0.382   0.033   2.915 -0.2856 -0.0913 -0.1887
20008TIP3    H181515   0.289   0.014   2.904 -0.2213 -0.1438 -0.6508
20008TIP3    H281516   0.424  -0.053   2.916 -0.1602 -0.0365 -0.7376
20009TIP3   OH281517   4.154   6.614   2.581 -0.2917 -0.0364  0.2094
20009TIP3    H181518   4.228   6.564   2.615 -1.1660 -1.4625  0.0659
20009TIP3    H281519   4.109   6.553   2.523 -0.8079  1.2590 -0.7626
20010TIP3   OH281520   0.302   5.583  13.188  0.0970 -0.0680  0.4756
20010TIP3    H181521   0.207   5.593  13.185  0.1025  0.7696  2.3165
20010TIP3    H281522   0.324   5.538  13.107 -1.8025  0.2798 -0.2599
20011TIP3   OH281523   0.662   1.828   4.080 -0.5751 -0.2989 -0.2196
20011TIP3    H181524   0.725   1.899   4.091 -0.7107 -0.1419 -0.4629
20011TIP3    H281525   0.648   1.822   3.986  0.9832 -1.9971 -0.3982
20012TIP3   OH281526   4.848   4.500  12.055 -0.1627 -0.1897  0.3415
20012TIP3    H181527   4.935   4.517  12.020 -1.1704 -1.6305 -3.0675
20012TIP3    H281528   4.802   4.584  12.046  0.7290  0.4809  1.8404
20013TIP3   OH281529   2.842   1.425   5.041  0.1985 -0.2696 -0.2376
20013TIP3    H181530   2.843   1.489   5.112 -1.4229  0.0940 -0.5178
20013TIP3    H281531   2.896   1.466   4.972  0.4183  0.1145  0.1594
20014TIP3   OH281532   4.620   2.170  11.011  0.0169  0.6577 -0.6960
20014TIP3    H181533   4.552   2.218  10.963 -1.4284 -0.5067  0.1225
20014TIP3    H281534   4.685   2.146  10.945 -2.0876 -1.2040 -2.1719
20015TIP3   OH281535   5.083   4.500   2.080  0.5960 -0.8070  0.1104
20015TIP3    H181536   5.128   4.446   2.015 -2.6524 -0.9224 -2.1749
20015TIP3    H281537   5.028   4.438   2.128 -1.9851  0.1821 -1.4957
20016TIP3   OH281538   5.379   2.160  14.833 -0.1283  0.5194  0.0906
20016TIP3    H181539   5.450   2.186  14.891 -1.1980 -1.5084  2.4228
20016TIP3    H281540   5.418   2.093  14.776 -0.1767 -0.8320  1.5850
20017TIP3   OH281541   0.338   5.074   2.918  0.1479 -0.4737  0.0073
20017TIP3    H181542   0.252   5.107   2.944  0.1132 -0.6223  0.0839
20017TIP3    H281543   0.398   5.111   2.982 -0.1248 -2.0272  1.2101
20018TIP3   OH281544   4.492   2.524  11.620  0.3835 -0.0272  0.0513
20018TIP3    H181545   4.454   2.438  11.603 -1.7939  0.4714  2.1082
20018TIP3    H281546   4.452   2.581  11.555 -0.1788 -0.0635  0.3650
20019TIP3   OH281547   2.709   2.604   4.018 -0.2475  0.4857  0.0502
20019TIP3    H181548   2.677   2.535   4.075  1.2277  0.6340  1.0858
20019TIP3    H281549   2.730   2.559   3.935  2.1667 -0.6272  1.2119
20020TIP3   OH281550   0.803   4.542  15.381  0.3056  0.0381 -0.0159
20020TIP3    H181551   0.889   4.516  15.346  0.7855  1.2682  0.2190
20020TIP3    H281552   0.783   4.474  15.445  1.3933  0.0705  0.3764
20021TIP3   OH281553   3.458   2.195  16.003 -0.1166 -0.1419 -0.4952
20021TIP3    H181554   3.498   2.206  16.090 -1.4143 -0.3094  0.1298
20021TIP3    H281555   3.386   2.133  16.018 -1.9298  1.7567 -1.1950
20022TIP3   OH281556   0.101   4.014   1.160 -0.0705 -0.4222 -0.3348
20022TIP3    H181557   0.070   4.055   1.240 -1.1367  0.3669 -1.1501
20022TIP3    H281558   0.120   4.087   1.101 -1.1508 -1.0587 -1.4881
20023TIP3   OH281559   2.587   6.676  15.868  0.1292  0.6658 -0.3123
20023TIP3    H181560   2.531   6.615  15.916  1.3691  0.1443  0.4892
20023TIP3    H281561   2.584   6.757  15.920  0.4359  0.5120 -0.0549
20024TIP3   OH281562   1.569   4.671   0.332  0.2674 -0.1201 -0.5918
20024TIP3    H181563   1.609   4.677   0.419  0.6849  0.4200 -0.8161
20024TIP3    H281564   1.492   4.728   0.338  0.9979  0.9206 -0.9532
20025TIP3   OH281565   3.992   4.937   1.853  0.4076 -0.3227 -0.3541
20025TIP3    H181566   3.939   4.869   1.895  0.6458 -0.9682 -1.0776
20025TIP3    H281567   3.936   5.014   1.852 -0.7456 -1.1425 -1.5839
20026TIP3   OH281568   2.348   5.590  15.994  0.4049  0.1708 -0.6576
20026TIP3    H181569   2.367   5.630  16.080 -2.0224  0.8532 -0.4101
20026TIP3    H281570   2.398   5.508  15.995 -0.1946 -0.2255  1.7483
20027TIP3   OH281571   6.415   0.342   3.608  0.7857  0.0009 -0.1204
20027TIP3    H181572   6.392   0.410   3.672  1.3677  1.2547 -1.2141
20027TIP3    H281573   6.496   0.304   3.643  0.4607 -0.1360  0.4977
20028TIP3   OH281574   1.932   5.231   2.088  0.2118  0.0516  0.6992
20028TIP3    H181575   1.873   5.261   2.019  0.0060 -1.6403  0.1202
20028TIP3    H281576   1.984   5.162   2.047  0.3704 -0.6940  2.1122
20029TIP3   OH281577   3.318   5.454   5.630  0.3459 -0.1516 -0.4283
20029TIP3    H181578   3.323   5.496   5.716 -0.2966  1.8326 -1.3432
20029TIP3    H281579   3.267   5.374   5.646 -2.9672  2.0295  0.3828
20030TIP3   OH281580   2.078   4.480   2.413  0.1227 -0.5854 -0.0777
20030TIP3    H181581   2.053   4.492   2.321 -0.0508  0.9573  0.1643
20030TIP3    H281582   2.067   4.386   2.428 -0.5961 -0.7337 -1.4172
20031TIP3   OH281583   6.043   3.950  11.339  0.2523  0.2713  0.0263
20031TIP3    H181584   6.042   3.913  11.251 -1.1052  0.3103  0.0224
20031TIP3    H281585   6.117   4.010  11.339  0.6693 -0.2386 -0.8795
20032TIP3   OH281586   0.113   2.207  14.549  0.0754  0.6188 -0.2640
20032TIP3    H181587   0.181   2.254  14.499 -1.1870  2.4354 -0.3394
20032TIP3    H281588   0.120   2.244  14.638  0.8306 -1.0080  0.3836
20033TIP3   OH281589   0.219   4.740   0.579  0.1838  0.3297 -0.8445
20033TIP3    H181590   0.149   4.800   0.606 -1.4456 -1.8174 -0.1933
20033TIP3    H281591   0.217   4.743   0.483 -1.4594 -0.4137 -0.8559
20034TIP3   OH281592   4.200   0.366   0.405 -0.6990  0.6875  0.4536
20034TIP3    H181593   4.180   0.290   0.459  0.7345 -0.3323 -0.3834
20034TIP3    H281594   4.295   0.364   0.397 -0.5567  3.2074  1.2919
20035TIP3   OH281595   3.401   5.479  13.102  0.1408  0.2451 -0.0589
20035TIP3    H181596   3.451   5.550  13.142  1.3306 -0.6698  0.0971
20035TIP3    H281597   3.443   5.465  13.017 -0.1431 -0.2240 -0.1213
20036TIP3   OH281598   3.914   4.904  11.515 -0.6793 -0.2839  0.1295
20036TIP3    H181599   3.953   4.890  11.428  0.3844  0.9432  0.3980
20036TIP3    H281600   3.922   4.998  11.530 -1.7363 -0.3513  1.1525
20037TIP3   OH281601   2.423   4.718   2.237  0.3696  0.1637  0.1109
20037TIP3    H181602   2.447   4.791   2.179  1.6328 -1.1123 -1.0190
20037TIP3    H281603   2.383   4.653   2.179  1.7780 -1.1930  0.6022
20038TIP3   OH281604   1.479   1.924   2.548 -0.4588 -0.3395 -1.1052
20038TIP3    H181605   1.541   1.993   2.572  0.2017 -1.1154 -0.5347
20038TIP3    H281606   1.393   1.964   2.560 -0.0668  1.0059 -2.6747
20039TIP3   OH281607   4.531   1.553  16.330 -0.0277 -0.2095 -0.4638
20039TIP3    H181608   4.548   1.493  16.258  0.2778  0.2650 -0.7902
20039TIP3    H281609   4.611   1.604  16.338 -0.2536  0.0918 -0.1313
20040TIP3   OH281610   3.750   0.157  16.246  0.0156  0.0316  0.3078
20040TIP3    H181611   3.675   0.170  16.188 -0.5359 -0.5429  0.8789
20040TIP3    H281612   3.712   0.121  16.326  0.8572  0.1250  0.7511
20041TIP3   OH281613   5.068   5.721   0.859 -0.0606 -0.1684 -0.1153
20041TIP3    H181614   5.046   5.777   0.786  0.4010 -0.1280 -0.2259
20041TIP3    H281615   4.986   5.676   0.881 -0.1544 -0.3242 -0.7782
20042TIP3   OH281616   1.665   3.388  16.549 -0.2710  0.6716 -0.1709
20042TIP3    H181617   1.731   3.382  16.480  2.5134  0.1790  2.4731
20042TIP3    H281618   1.668   3.479  16.578 -0.0422  0.4048  0.6447
20043TIP3   OH281619   0.953   5.694  16.437  0.7066  0.4800 -0.0555
20043TIP3    H181620   0.914   5.659  16.517 -1.7406 -0.4105 -1.5775
20043TIP3    H281621   0.966   5.787  16.456  0.7104  0.1657  1.5770
20044TIP3   OH281622   1.352   3.939  11.476  0.3143  0.2336  1.0795
20044TIP3    H181623   1.444   3.944  11.448 -0.6889  0.8190 -2.3298
20044TIP3    H281624   1.341   3.849  11.505  1.3993 -0.4730 -0.6275
20045TIP3   OH281625   3.414   0.811  17.115  0.3909 -0.1719  0.6991
20045TIP3    H181626   3.427   0.856  17.032  2.3933 -2.8846 -0.5547
20045TIP3    H281627   3.450   0.871  17.181 -2.2470  2.4985 -0.1842
20046TIP3   OH281628   2.335   4.585  10.530 -0.6378 -0.2587 -0.1730
20046TIP3    H181629   2.380   4.511  10.491 -1.4027 -1.4718  1.1978
20046TIP3    H281630   2.243   4.558  10.535 -1.1699  1.3483 -0.9967
20047TIP3   OH281631   3.255   0.594  13.462 -0.3917  0.0694  0.0713
20047TIP3    H181632   3.170   0.553  13.444 -0.4347  0.4467 -0.6013
20047TIP3    H281633   3.238   0.650  13.539 -0.4483 -0.7765  0.6831
20048TIP3   OH281634   5.893   5.168  15.243  0.1522 -0.1351  0.2835
20048TIP3    H181635   5.864   5.214  15.322  0.9163 -1.9464  1.6612
20048TIP3    H281636   5.986   5.151  15.259  1.1127  2.1487 -2.3539
20049TIP3   OH281637   0.613   4.132  15.293  0.3868  0.3927  0.9011
20049TIP3    H181638   0.625   4.042  15.324  0.5165  0.6361  1.5578
20049TIP3    H281639   0.673   4.184  15.346  0.9315  0.7594 -0.0491
20050TIP3   OH281640   3.190   0.222   5.718  0.6248  0.2829 -0.4233
20050TIP3    H181641   3.264   0.168   5.689  0.2232  0.7521 -2.4100
20050TIP3    H281642   3.188   0.212   5.813 -0.3685 -4.4171 -0.8528
20051TIP3   OH281643   4.271   3.543  14.171  0.0143 -0.8043  0.3520
20051TIP3    H181644   4.187   3.552  14.215  0.4446  0.4220  0.9644
20051TIP3    H281645   4.272   3.454  14.136 -1.5922 -0.7725  0.2131
20052TIP3   OH281646   0.279   1.271   2.055 -0.1981 -0.4407  0.1943
20052TIP3    H181647   0.198   1.321   2.069 -0.3422 -0.3215 -0.9479
20052TIP3    H281648   0.264   1.188   2.100 -0.6075 -0.0848  0.7254
20053TIP3   OH281649   5.753   6.059  15.594  0.4847  0.5287  0.1324
20053TIP3    H181650   5.764   6.143  15.638 -2.8296  0.7802  0.6600
20053TIP3    H281651   5.797   5.996  15.651  0.9046  1.5829  0.9931
20054TIP3   OH281652   5.078   0.577  17.097  0.2400  0.3201 -0.6544
20054TIP3    H181653   5.120   0.659  17.122  1.4869 -0.2012 -1.0136
20054TIP3    H281654   5.007   0.604  17.038  1.7653  1.0258 -2.2151
20055TIP3   OH281655   4.496   0.735   4.037 -0.0488 -0.0376  0.0706
20055TIP3    H181656   4.581   0.741   3.993  0.1568  0.8881  0.6017
20055TIP3    H281657   4.509   0.667   4.103  0.9901  1.7477  1.7450
20056TIP3   OH281658   5.188   3.392   0.412 -0.5573  0.1163 -0.1869
20056TIP3    H181659   5.220   3.375   0.323 -0.6835  3.0670 -0.8390
20056TIP3    H281660   5.245   3.462   0.445 -2.4904  1.2250  0.8774
20057TIP3   OH281661   2.941   3.351  16.673  0.4221 -0.4084 -0.1119
20057TIP3    H181662   2.979   3.378  16.757 -1.0352  0.0526  0.4239
20057TIP3    H281663   3.011   3.365  16.610  0.9173  1.1162  0.7344
20058TIP3   OH281664   0.169   0.626  15.283 -0.4423  0.7455  0.1057
20058TIP3    H181665   0.172   0.657  15.374 -1.3894 -0.0776  0.4203
20058TIP3    H281666   0.151   0.532  15.290 -0.5758  0.6892 -0.9356
20059TIP3   OH281667   0.873   0.359   3.878  0.2989  0.1704 -0.4829
20059TIP3    H181668   0.942   0.387   3.818  1.5753 -0.6904  0.5745
20059TIP3    H281669   0.898   0.396   3.963 -0.9725  0.5393 -0.2469
20060TIP3   OH281670   4.138   1.482   0.613 -0.2133  0.9139 -0.1925
20060TIP3    H181671   4.072   1.413   0.616  0.0075  0.6532 -1.1170
20060TIP3    H281672   4.183   1.476   0.697 -0.8652  0.5905  0.1281
20061TIP3   OH281673   6.520   6.233   0.944  0.0010  0.0996  0.0885
20061TIP3    H181674   6.555   6.150   0.974  0.4715 -0.3407 -1.6318
20061TIP3    H281675   6.586   6.266   0.882 -1.4094  0.4787 -1.2450
20062TIP3   OH281676   6.122   0.265   3.695 -0.1902 -0.3243 -0.2828
20062TIP3    H181677   6.095   0.262   3.603 -0.7551 -0.8024 -0.1030
20062TIP3    H281678   6.151   0.355   3.709  0.9569 -0.5349 -1.2277
20063TIP3   OH281679   4.601   3.515  16.016 -0.4859 -0.3082 -0.3897
20063TIP3    H181680   4.516   3.513  15.972 -0.2272 -0.8442 -0.8760
20063TIP3    H281681   4.581   3.495  16.107 -1.5382  4.8182  0.6634
20064TIP3   OH281682   5.520   2.146  11.565  0.1249 -0.4270 -0.2960
20064TIP3    H181683   5.498   2.056  11.539  3.0516 -0.4195 -3.1444
20064TIP3    H281684   5.602   2.137  11.615  1.4169  0.7587 -2.1397
20065TIP3   OH281685   1.895   1.321   4.966  0.5371  0.1651  0.0319
20065TIP3    H181686   1.837   1.365   5.029  2.7407  1.6167  1.1239
20065TIP3    H281687   1.885   1.228   4.985  0.5590  0.5449  2.0389
20066TIP3   OH281688   4.485   2.342   6.536  0.2995 -0.1100  0.0531
20066TIP3    H181689   4.396   2.358   6.567  0.7319 -0.2906  1.4162
20066TIP3    H281690   4.516   2.428   6.506 -0.1889  0.0239 -0.0732
20067TIP3   OH281691   5.579   2.165   1.769 -0.1218  0.2525 -0.6860
20067TIP3    H181692   5.484   2.164   1.781 -0.1194  0.8133 -0.6246
20067TIP3    H281693   5.606   2.076   1.793 -0.6102  0.1337 -0.5558
20068TIP3   OH281694   6.345   2.537  13.100 -0.4408 -0.3881  0.0227
20068TIP3    H181695   6.433   2.499  13.105  0.5728  1.6309 -1.6295
20068TIP3    H281696   6.312   2.508  13.014 -0.3741  0.9077 -0.4556
20069TIP3   OH281697   4.414   4.191   0.550 -0.0407 -0.2530 -0.1167
20069TIP3    H181698   4.458   4.262   0.596 -0.8455  0.4237 -0.3700
20069TIP3    H281699   4.450   4.111   0.588  1.7719  0.2723 -0.6736
20070TIP3   OH281700   6.786   5.402  11.220 -0.0590  0.1787  0.5421
20070TIP3    H181701   6.840   5.385  11.143 -1.9858 -0.4445 -0.7125
20070TIP3    H281702   6.821   5.344  11.287  0.2045 -0.9522 -0.5523
20071TIP3   OH281703   0.388   2.417  11.402  0.3114  0.4873 -0.4281
20071TIP3    H181704   0.408   2.337  11.451  0.3144  0.5548 -0.3191
20071TIP3    H281705   0.330   2.466  11.460  1.0171  0.9681 -0.1187
20072TIP3   OH281706   1.087   0.833   2.294 -0.3551 -0.1468  0.1614
20072TIP3    H181707   1.092   0.835   2.390 -1.3437 -0.7252  0.2361
20072TIP3    H281708   0.994   0.846   2.275  0.1171  1.9182 -0.7890
20073TIP3   OH281709   1.034   5.493   4.552  0.7943 -0.1657 -0.0319
20073TIP3    H181710   0.945   5.474   4.523  0.2383  1.8933  0.2483
20073TIP3    H281711   1.031   5.584   4.582  2.1505 -1.1221  3.3223
20074TIP3   OH281712   0.526   6.096  12.062 -0.2860 -0.1112 -0.2572
20074TIP3    H181713   0.462   6.162  12.089  1.0035  0.4772  1.4367
20074TIP3    H281714   0.474   6.016  12.052 -0.9572 -0.3052  3.7464
20075TIP3   OH281715   2.737   1.788   3.909 -0.0506 -0.5283  0.0146
20075TIP3    H181716   2.700   1.834   3.834  1.2938 -1.0874 -1.0084
20075TIP3    H281717   2.824   1.826   3.920 -0.2968 -0.3412  1.3995
20076TIP3   OH281718   5.071   3.781   0.193  0.2422 -0.6407  0.3100
20076TIP3    H181719   5.011   3.823   0.132 -0.3688 -1.3459  0.4148
20076TIP3    H281720   5.061   3.828   0.275 -0.6320 -1.1545  0.5008
20077TIP3   OH281721   0.745   1.528   2.940 -0.2289 -0.1952 -0.1236
20077TIP3    H181722   0.786   1.445   2.964  0.1458 -0.1735 -0.6891
20077TIP3    H281723   0.699   1.509   2.858 -1.8319 -0.3757  0.7932
20078TIP3   OH281724   2.729   3.564  15.363 -0.3503 -0.4349 -0.6562
20078TIP3    H181725   2.721   3.595  15.453  3.7789 -0.5993 -0.1533
20078TIP3    H281726   2.687   3.478  15.363 -0.2289 -0.4991  1.1365
20079TIP3   OH281727   0.127   2.293  15.758  0.2854 -0.3609  0.5088
20079TIP3    H181728   0.087   2.379  15.774  0.4780 -0.3387  0.8882
20079TIP3    H281729   0.071   2.232  15.807  0.1615 -0.4474  0.2569
20080TIP3   OH281730   4.585   5.509  15.518  0.4083  0.1735  0.1286
20080TIP3    H181731   4.569   5.512  15.612  1.7958 -3.2123  0.5426
20080TIP3    H281732   4.675   5.539  15.508  1.0623 -1.6624  0.1927
20081TIP3   OH281733   2.239   5.168   2.051 -0.2411 -0.4501 -0.2100
20081TIP3    H181734   2.215   5.090   2.102  0.8291 -0.2080  0.6926
20081TIP3    H281735   2.200   5.153   1.965  0.4334 -2.2638 -0.2399
20082TIP3   OH281736   5.382   3.078   3.151 -0.2723 -0.3976 -0.2511
20082TIP3    H181737   5.429   3.158   3.174  1.3815 -1.7475  1.1840
20082TIP3    H281738   5.397   3.019   3.225 -1.1726 -2.1549 -1.4336
20083TIP3   OH281739   2.437   4.154  13.909  0.5516  0.0507  0.5923
20083TIP3    H181740   2.437   4.059  13.916  0.9984  0.0607  0.7522
20083TIP3    H281741   2.350   4.176  13.874  0.6683 -0.4510 -0.0157
20084TIP3   OH281742   5.576   5.562  15.060  0.1527 -0.5913  0.0672
20084TIP3    H181743   5.557   5.647  15.100  0.7398  0.0624 -1.0366
20084TIP3    H281744   5.568   5.577  14.966 -0.6204 -1.9797 -0.0938
20085TIP3   OH281745   4.839   3.327   1.031  0.2593 -0.2846 -0.1340
20085TIP3    H181746   4.797   3.312   0.946 -0.7445 -0.9567  0.4781
20085TIP3    H281747   4.859   3.421   1.031 -2.2425  0.2807  0.0228
20086TIP3   OH281748   2.003   3.614   4.637  0.1132  0.1547  0.4969
20086TIP3    H181749   2.031   3.534   4.682 -0.0388  0.2651  0.7886
20086TIP3    H281750   2.007   3.592   4.544 -0.9190 -0.5304  0.6047
20087TIP3   OH281751   4.822   3.566   0.618 -0.1903  0.8479 -0.3822
20087TIP3    H181752   4.911   3.598   0.605 -0.0155  1.9709  3.0973
20087TIP3    H281753   4.833   3.484   0.668 -1.1337  2.0932  1.9515
20088TIP3   OH281754   0.751   6.810  14.424  0.4479 -0.2616  0.6373
20088TIP3    H181755   0.689   6.766  14.482  1.0993 -2.1370 -0.0426
20088TIP3    H281756   0.788   6.881  14.476  0.1684 -1.1982  2.1203
20089TIP3   OH281757   4.589   1.050  15.598 -0.0093 -0.3977 -0.3687
20089TIP3    H181758   4.608   1.065  15.690 -0.4052  2.6028 -0.7419
20089TIP3    H281759   4.606   1.134  15.555  0.8048 -1.9024 -3.1434
20090TIP3   OH281760   2.519   1.464   1.605  0.2689  0.7457  0.1046
20090TIP3    H181761   2.463   1.499   1.536  1.7348 -1.2218 -2.1685
20090TIP3    H281762   2.583   1.534   1.621 -0.5648  1.5312  0.0381
20091TIP3   OH281763   1.798   6.600   1.774 -0.9669 -0.0247 -0.1546
20091TIP3    H181764   1.794   6.547   1.695 -0.5453 -0.9213  0.4288
20091TIP3    H281765   1.787   6.690   1.743  1.0471 -0.2123 -1.4412
20092TIP3   OH281766   1.743   2.237  13.712 -0.1502  0.2729  0.0460
20092TIP3    H181767   1.765   2.322  13.748  0.0794  0.6679 -0.9949
20092TIP3    H281768   1.801   2.176  13.757  1.7074  1.0385 -1.2356
20093TIP3   OH281769   2.388   0.870  13.759 -0.0359  0.3435  0.3009
20093TIP3    H181770   2.343   0.954  13.758 -1.1549 -0.2423 -0.4769
20093TIP3    H281771   2.471   0.887  13.803  1.0004  2.5003 -2.3357
20094TIP3   OH281772   2.639   0.269  12.493 -0.0832 -0.6055 -0.0841
20094TIP3    H181773   2.700   0.324  12.444  0.2133 -0.6494  0.2418
20094TIP3    H281774   2.557   0.274  12.443 -0.1411  0.3770  0.1083
20095TIP3   OH281775   5.438   4.253  14.298 -0.1219 -0.2281  0.1736
20095TIP3    H181776   5.448   4.161  14.325  0.4265  0.0926  1.0549
20095TIP3    H281777   5.489   4.259  14.217  1.4880 -0.2313  1.1535
20096TIP3   OH281778   4.122   1.446  15.574 -0.0698  0.0952 -0.4645
20096TIP3    H181779   4.089   1.517  15.630  1.4528 -1.7113  2.8749
20096TIP3    H281780   4.137   1.488  15.489 -2.0948  3.0473  0.5168
20097TIP3   OH281781   3.178   5.169   4.835 -0.5085  0.2455 -0.3147
20097TIP3    H181782   3.170   5.130   4.922  0.9564  0.5325 -0.0365
20097TIP3    H281783   3.161   5.262   4.848 -3.2476 -0.1399 -0.8535
20098TIP3   OH281784   0.741   3.380   1.876 -0.4674 -0.0332 -0.2131
20098TIP3    H181785   0.803   3.358   1.947 -0.9968  1.3144  0.6780
20098TIP3    H281786   0.655   3.358   1.913 -0.7615  0.8653 -0.3741
20099TIP3   OH281787   0.281   5.243   2.443  0.5231 -0.0301 -0.1977
20099TIP3    H181788   0.305   5.319   2.496  0.4917  0.0643 -0.3200
20099TIP3    H281789   0.287   5.273   2.353 -0.7583  0.2057 -0.2152
20100TIP3   OH281790   2.976   6.624  13.240 -0.0967  0.0065  0.6512
20100TIP3    H181791   2.972   6.711  13.201 -2.5489 -1.1586 -1.9469
20100TIP3    H281792   3.064   6.592  13.219 -0.7296  0.1255 -2.5585
20101TIP3   OH281793   2.481   5.504   3.513  0.0236 -0.0662  0.2739
20101TIP3    H181794   2.401   5.453   3.525 -0.6149  1.2805  2.0395
20101TIP3    H281795   2.547   5.457   3.563  0.9204 -2.3475 -2.8971
20102TIP3   OH281796   3.472   4.987   5.451  0.0536 -0.2716  0.5794
20102TIP3    H181797   3.454   5.049   5.522  0.7120 -1.6068  1.9515
20102TIP3    H281798   3.456   5.036   5.371  5.5085  3.3992  1.4488
20103TIP3   OH281799   6.711   4.479  13.494 -0.0618  0.5249 -0.3805
20103TIP3    H181800   6.756   4.414  13.440  1.5570  0.5368  0.9317
20103TIP3    H281801   6.696   4.553  13.435  1.4491  0.4333 -0.8817
20104TIP3   OH281802   6.543   6.782  16.613 -0.2884 -0.4260  0.5965
20104TIP3    H181803   6.537   6.731  16.532  1.5369 -0.2989  0.3638
20104TIP3    H281804   6.454   6.779  16.650 -1.6527  1.1380 -2.3651
20105TIP3   OH281805   2.239   0.352   3.970 -0.5442  0.6300 -0.3477
20105TIP3    H181806   2.284   0.312   4.045 -0.4633 -0.4368 -0.9473
20105TIP3    H281807   2.149   0.320   3.977 -0.1983 -0.6541 -1.4974
20106TIP3   OH281808   6.038   0.612  15.719  0.2586  0.4658 -0.2742
20106TIP3    H181809   6.100   0.573  15.657  0.9261 -0.0535  0.7168
20106TIP3    H281810   5.995   0.682  15.668  2.5861  1.7123 -0.5991
20107TIP3   OH281811   2.572   2.103   6.554  0.2147 -0.2004  0.1925
20107TIP3    H181812   2.616   2.158   6.619 -0.4906  1.6587 -0.8695
20107TIP3    H281813   2.480   2.129   6.558  0.5931  2.0373 -3.5432
20108TIP3   OH281814   1.935   6.443  14.264  0.1897  0.3194 -0.4591
20108TIP3    H181815   1.890   6.359  14.252  0.8512  0.0750 -1.2510
20108TIP3    H281816   1.964   6.441  14.356 -1.1238  0.3495 -0.0290
20109TIP3   OH281817   4.250   1.459   4.671 -0.1495 -0.5627  0.2449
20109TIP3    H181818   4.204   1.481   4.590  2.8322 -2.1717 -1.9996
20109TIP3    H281819   4.326   1.518   4.672 -0.5192 -0.0995  2.2235
20110TIP3   OH281820   0.673   1.498  11.254 -0.0058 -0.0264 -0.4705
20110TIP3    H181821   0.647   1.539  11.172  0.3274  2.8939  0.8367
20110TIP3    H281822   0.603   1.435  11.272 -1.4329  1.1725 -1.6634
20111TIP3   OH281823   2.859   4.616   3.980  0.2579 -0.0950 -0.1186
20111TIP3    H181824   2.789   4.590   3.920  0.5399 -0.9833 -0.0585
20111TIP3    H281825   2.850   4.557   4.055  0.7376  0.1453  0.1328
20112TIP3   OH281826   4.725   3.698   0.355  0.1590  0.5809  0.2358
20112TIP3    H181827   4.764   3.639   0.420  1.0647  0.5321 -0.3368
20112TIP3    H281828   4.732   3.785   0.394  3.2920  0.9413 -0.9225
20113TIP3   OH281829   2.132   1.321  13.555 -0.2120 -0.0297 -0.1830
20113TIP3    H181830   2.040   1.302  13.570  0.2239 -3.4354 -1.3973
20113TIP3    H281831   2.152   1.282  13.470  2.8525 -1.2217  1.0022
20114TIP3   OH281832   4.625   2.100   0.542 -0.8533  0.1614 -0.5788
20114TIP3    H181833   4.534   2.069   0.542 -0.9452  0.2949  2.4495
20114TIP3    H281834   4.676   2.022   0.518 -1.4309 -1.2555  2.5554
20115TIP3   OH281835   1.632   3.108  14.687 -0.2408  0.8856  0.4677
20115TIP3    H181836   1.694   3.151  14.627 -2.3190  1.3575 -1.4056
20115TIP3    H281837   1.561   3.171  14.698 -3.4320 -1.9587 -2.4372
20116TIP3   OH281838   0.624   6.131   4.476  0.0446 -0.5552 -0.5742
20116TIP3    H181839   0.664   6.123   4.562 -0.1260  0.6013 -0.3758
20116TIP3    H281840   0.531   6.114   4.491  0.0114 -0.3305 -0.5352
20117TIP3   OH281841   5.288   2.746   5.692 -0.0117 -0.3305 -0.5682
20117TIP3    H181842   5.305   2.662   5.734 -1.8863  0.1836  1.3021
20117TIP3    H281843   5.215   2.783   5.741  0.6460  2.3013 -1.4862
20118TIP3   OH281844   4.041   6.423  17.157 -0.5290 -0.6579  0.2614
20118TIP3    H181845   3.978   6.388  17.220  2.1049 -2.5027  1.9531
20118TIP3    H281846   4.081   6.498  17.201 -0.1166 -0.7145 -0.0156
20119TIP3   OH281847   5.506   4.307  13.258  0.2786 -0.1159  0.0663
20119TIP3    H181848   5.516   4.399  13.235 -0.3741 -0.5191 -1.8763
20119TIP3    H281849   5.594   4.270  13.249  0.3046  0.0460 -0.3247
20120TIP3   OH281850   4.311   3.995  11.898  0.1400  0.2375 -0.2249
20120TIP3    H181851   4.327   4.089  11.900 -0.6134  0.4061 -1.5832
20120TIP3    H281852   4.345   3.967  11.812 -1.4751 -0.3750 -0.6805
20121TIP3   OH281853   3.333   6.023  12.859 -0.3948  0.2143 -0.5482
20121TIP3    H181854   3.290   5.942  12.885  0.2801 -0.1366 -0.5101
20121TIP3    H281855   3.356   6.067  12.941 -2.1093  1.1783 -0.5640
20122TIP3   OH281856   6.496   4.243   3.878 -0.2130  0.4078  0.0541
20122TIP3    H181857   6.544   4.325   3.870  0.0146  0.4013  1.2724
20122TIP3    H281858   6.563   4.175   3.873 -0.3080  0.3305 -0.1523
20123TIP3   OH281859   4.867   0.867   6.135 -0.1202 -0.5265 -0.1818
20123TIP3    H181860   4.918   0.795   6.172  2.1523  1.2004  0.1743
20123TIP3    H281861   4.782   0.829   6.115  1.0413 -3.3038 -0.0115
20124TIP3   OH281862   5.691   5.320  10.988 -0.0841 -0.5025 -0.1788
20124TIP3    H181863   5.706   5.409  10.956  0.2398 -0.5544 -0.1705
20124TIP3    H281864   5.758   5.267  10.945 -0.2562 -0.7380 -0.1587
20125TIP3   OH281865   5.996   5.889   1.294  0.1161  0.0521  0.5677
20125TIP3    H181866   6.002   5.798   1.265 -1.5612 -0.8526  2.8656
20125TIP3    H281867   6.069   5.899   1.355  0.3711  0.2822  0.2238
20126TIP3   OH281868   4.722   5.045   4.736 -0.2778  0.2477  0.4114
20126TIP3    H181869   4.668   4.968   4.721 -1.5379  1.0421  0.8055
20126TIP3    H281870   4.764   5.062   4.651 -1.7972  0.4872 -0.3158
20127TIP3   OH281871   2.907   3.342  11.648 -0.8814 -0.4429 -0.5969
20127TIP3    H181872   2.878   3.253  11.670 -1.9585 -0.2362 -1.1333
20127TIP3    H281873   2.998   3.346  11.678 -0.6160 -1.9470 -1.1676
20128TIP3   OH281874   0.356   5.243   0.792 -0.1645 -0.7538 -0.2174
20128TIP3    H181875   0.400   5.175   0.741 -1.2625 -2.1207  0.6085
20128TIP3    H281876   0.264   5.234   0.769 -0.3541  0.2550  0.1264
20129TIP3   OH281877   3.186   2.221  14.350 -0.3212 -0.1360 -0.3393
20129TIP3    H181878   3.224   2.308  14.360 -1.7389  0.4395  0.1856
20129TIP3    H281879   3.186   2.205  14.256  2.0550 -0.5499 -0.2992
20130TIP3   OH281880   1.853   5.951  11.610  0.5163 -0.1171 -0.4565
20130TIP3    H181881   1.818   5.913  11.529  1.2548 -0.8591 -0.4307
20130TIP3    H281882   1.939   5.985  11.584  1.6312 -2.1690  0.4781
20131TIP3   OH281883   3.224   4.204  10.462  0.3386 -0.4467 -0.1099
20131TIP3    H181884   3.298   4.205  10.524  2.3412  0.4266 -2.4226
20131TIP3    H281885   3.176   4.284  10.482 -1.5391 -2.2741  3.1246
20132TIP3   OH281886   6.686   4.737   2.103  0.0364 -0.3380 -0.5408
20132TIP3    H181887   6.602   4.721   2.146  0.4567  0.8162  0.7254
20132TIP3    H281888   6.693   4.832   2.097  0.6736 -0.4520 -1.8078
20133TIP3   OH281889   5.106   4.344   2.987 -0.0844  0.0222  0.1804
20133TIP3    H181890   5.082   4.282   2.918 -1.8934 -0.3068  1.0854
20133TIP3    H281891   5.172   4.298   3.039 -0.4726 -0.6373  0.0884
20134TIP3   OH281892   1.390   5.381   1.798 -0.4803 -0.3452 -0.4780
20134TIP3    H181893   1.388   5.334   1.881 -1.6488 -1.0672 -0.9065
20134TIP3    H281894   1.466   5.439   1.805 -0.5974 -0.3691  1.1070
20135TIP3   OH281895   5.269   3.612  16.557  0.0939 -0.4494  0.0618
20135TIP3    H181896   5.341   3.618  16.494  0.1834 -1.1268  0.0898
20135TIP3    H281897   5.308   3.573  16.635 -0.1504 -0.1749  0.3217
20136TIP3   OH281898   1.308   1.626  17.015 -0.0753 -0.0790 -0.1845
20136TIP3    H181899   1.270   1.630  17.102 -0.8732 -2.7913 -0.3437
20136TIP3    H281900   1.306   1.533  16.992  0.3371  0.5456 -3.0028
20137TIP3   OH281901   3.805   5.044  17.066  0.1494 -0.2185  0.3771
20137TIP3    H181902   3.765   5.093  16.995  1.2692 -0.7731 -0.6734
20137TIP3    H281903   3.816   5.107  17.137 -2.1754  0.0262  0.5409
20138TIP3   OH281904   3.415   2.193  11.494  0.5343  0.0878 -0.1717
20138TIP3    H181905   3.483   2.132  11.524 -0.5626 -1.4992 -0.8304
20138TIP3    H281906   3.354   2.199  11.568  0.4072  0.0171 -0.2701
20139TIP3   OH281907   6.572   5.813   5.358  0.0210  0.1348 -0.1634
20139TIP3    H181908   6.539   5.879   5.297  0.2596  0.7631  0.3712
20139TIP3    H281909   6.514   5.737   5.346  0.2837  0.1303 -1.4012
20140TIP3   OH281910   6.210   0.118   4.761  0.0891  0.5906  0.2625
20140TIP3    H181911   6.195   0.050   4.827 -0.1503 -0.2701 -0.6619
20140TIP3    H281912   6.297   0.097   4.725 -1.2408 -1.0402 -2.1220
20141TIP3   OH281913   2.971   4.200   2.965 -0.1786  0.3470  0.0160
20141TIP3    H181914   2.965   4.247   2.882 -0.8613 -0.2479 -0.2727
20141TIP3    H281915   2.882   4.201   3.000  0.4033  1.9682  1.5091
20142TIP3   OH281916   1.022   3.498   1.450  0.1831  0.0035  0.2106
20142TIP3    H181917   0.945   3.448   1.476  0.5052 -0.1989  0.7826
20142TIP3    H281918   1.087   3.479   1.518  0.9118 -0.2496 -0.5463
20143TIP3   OH281919   3.787   5.564  16.607  0.0316  0.3510  0.0783
20143TIP3    H181920   3.783   5.642  16.662  1.7506  0.5540 -0.0586
20143TIP3    H281921   3.792   5.598  16.517  0.9627  0.0971  0.0298
20144TIP3   OH281922   5.386   6.813   0.445  0.0335  0.9434 -0.2784
20144TIP3    H181923   5.391   6.804   0.540 -0.2468  3.7021  0.0288
20144TIP3    H281924   5.431   6.895   0.426 -2.5518  1.9934 -2.1932
20145TIP3   OH281925   5.660   4.874   4.595  0.1520 -0.4470 -0.4357
20145TIP3    H181926   5.610   4.824   4.659 -1.2194  1.7485  0.2658
20145TIP3    H281927   5.747   4.834   4.596 -0.7792 -2.5158  0.3910
20146TIP3   OH281928   5.845   2.315   5.925  0.1625  0.0304  0.5147
20146TIP3    H181929   5.774   2.302   5.988  2.5281 -0.0444  3.2374
20146TIP3    H281930   5.898   2.385   5.961  1.9277 -0.4228 -1.0716
20147TIP3   OH281931   1.503   0.662  15.584  0.2805 -0.0232  0.4494
20147TIP3    H181932   1.444   0.687  15.513 -0.1216  1.4817  1.2693
20147TIP3    H281933   1.589   0.693  15.556  0.5429 -1.5018 -0.3962
20148TIP3   OH281934   3.948   3.453   0.295  0.1110  0.6199  0.2807
20148TIP3    H181935   4.040   3.463   0.318  0.3444  0.3204 -0.5111
20148TIP3    H281936   3.936   3.509   0.218  0.0307 -0.5928 -0.6113
20149TIP3   OH281937   2.144   1.149   3.124 -0.7775 -0.0914 -0.2052
20149TIP3    H181938   2.191   1.107   3.196  0.0759 -0.5386 -1.0270
20149TIP3    H281939   2.054   1.115   3.132 -0.9869  0.7702  1.3611
20150TIP3   OH281940   4.094   5.600  13.663  0.4046 -0.4508 -0.1027
20150TIP3    H181941   4.179   5.587  13.706  0.3689 -0.7457 -0.1162
20150TIP3    H281942   4.111   5.577  13.572  0.7470  1.2151 -0.4714
20151TIP3   OH281943   6.043   5.689  12.452  0.3541  0.0304 -0.2114
20151TIP3    H181944   6.138   5.694  12.457  0.3321 -0.8085  1.7048
20151TIP3    H281945   6.016   5.776  12.423  1.6517  0.6871  0.4865
20152TIP3   OH281946   3.806   4.084  15.751 -0.5286  0.2142  0.6521
20152TIP3    H181947   3.714   4.059  15.758 -0.5229 -0.0690 -0.1172
20152TIP3    H281948   3.853   4.009  15.787 -0.5695 -0.1436 -0.0218
20153TIP3   OH281949   2.124   5.602   2.130 -0.1948  0.6014  0.2700
20153TIP3    H181950   2.199   5.660   2.122  0.1397  0.0512 -0.5592
20153TIP3    H281951   2.161   5.517   2.152 -0.6616  0.6038  1.0973
20154TIP3   OH281952   1.472   1.850   0.389 -0.1802 -0.2595  0.0492
20154TIP3    H181953   1.453   1.759   0.413  0.3779 -0.8788 -1.7779
20154TIP3    H281954   1.397   1.876   0.335 -1.1900  0.9539  2.0062
20155TIP3   OH281955   4.100   4.057   1.242 -0.0212  0.3933  0.3074
20155TIP3    H181956   4.121   4.007   1.321  0.3611 -0.7534 -0.5153
20155TIP3    H281957   4.017   4.099   1.262 -0.1390 -0.2391  1.1628
20156TIP3   OH281958   2.324   0.159   2.396 -0.2408 -0.1314 -0.1380
20156TIP3    H181959   2.249   0.188   2.448  1.4531  0.5615  1.9530
20156TIP3    H281960   2.322   0.064   2.403 -3.1517 -0.4026 -3.2930
20157TIP3   OH281961   0.766   0.123   5.774  0.0805  0.1574  0.1151
20157TIP3    H181962   0.847   0.170   5.756  1.0329 -1.6935 -0.6076
20157TIP3    H281963   0.772   0.098   5.866 -0.0917  0.7859  0.3013
20158TIP3   OH281964   2.677   3.275  15.371  0.0155  0.5065 -0.3528
20158TIP3    H181965   2.675   3.182  15.392 -0.4927  0.3536 -1.0729
20158TIP3    H281966   2.592   3.292  15.330 -0.6764  1.6702  1.4528
20159TIP3   OH281967   4.409   3.459   0.059 -0.4674 -0.0660 -0.2817
20159TIP3    H181968   4.329   3.478   0.009 -0.8051  0.5787  0.5085
20159TIP3    H281969   4.480   3.475  -0.003 -0.7880  2.6853  0.0294
20160TIP3   OH281970   2.865   2.069  11.430 -0.1711  0.2223 -0.3971
20160TIP3    H181971   2.833   2.119  11.505 -0.3832 -0.1485 -0.2444
20160TIP3    H281972   2.957   2.094  11.423 -0.0255 -0.1096  0.2853
20161TIP3   OH281973   2.847   6.475   3.539 -0.5713  0.6750  0.6359
20161TIP3    H181974   2.802   6.522   3.469  0.5905  0.2944 -0.3802
20161TIP3    H281975   2.866   6.389   3.501 -0.1168  0.3956  1.4951
20162TIP3   OH281976   0.644   5.365   2.612  0.1161 -0.0102 -0.1358
20162TIP3    H181977   0.635   5.270   2.602  1.3086 -0.1512 -0.0174
20162TIP3    H281978   0.677   5.377   2.701  0.2998  0.4963 -0.2670
20163TIP3   OH281979   4.432   4.231   2.183  0.6103 -0.3876  0.0211
20163TIP3    H181980   4.385   4.308   2.218 -1.0477 -1.8497  1.0932
20163TIP3    H281981   4.482   4.199   2.258  1.2022 -0.4207 -0.3937
20164TIP3   OH281982   6.598   0.850   1.336 -0.1741 -0.0140  0.5514
20164TIP3    H181983   6.689   0.854   1.365 -0.7229  1.0442  2.1594
20164TIP3    H281984   6.556   0.790   1.398 -0.3082 -1.6002 -1.0005
20165TIP3   OH281985   3.861   1.956  14.198 -0.3614  0.3103 -0.5809
20165TIP3    H181986   3.827   2.045  14.192  0.4310  0.6173 -0.5955
20165TIP3    H281987   3.783   1.900  14.202 -0.8602  0.9827 -0.8727
20166TIP3   OH281988   1.745   0.365   1.122  0.2115 -0.7848  0.1649
20166TIP3    H181989   1.727   0.302   1.053  0.9290 -0.0600 -0.6973
20166TIP3    H281990   1.676   0.350   1.187 -0.4935 -1.4518 -0.7197
20167TIP3   OH281991   2.601   6.794  15.457  0.5499  0.0754 -0.2127
20167TIP3    H181992   2.622   6.832  15.542 -1.8324  1.1079 -0.0570
20167TIP3    H281993   2.660   6.719  15.449  2.0345  1.0211  1.5473
20168TIP3   OH281994   2.463   4.027  14.484 -0.0679 -0.0443 -0.2331
20168TIP3    H181995   2.400   3.958  14.464 -0.7989 -0.4451  3.1303
20168TIP3    H281996   2.452   4.090  14.413 -1.3966 -2.0093 -1.8522
20169TIP3   OH281997   5.803   0.181  15.063  0.0259 -0.2823 -0.1319
20169TIP3    H181998   5.818   0.182  15.157 -0.5987 -1.1067 -0.0159
20169TIP3    H281999   5.721   0.133  15.052  0.6282 -1.0994 -1.1703
20170TIP3   OH282000   5.172   1.226  15.266  0.0057  0.6717 -0.4309
20170TIP3    H182001   5.077   1.232  15.270  0.0481  0.6755  0.6471
20170TIP3    H282002   5.203   1.275  15.342  0.8826  1.0718 -1.0361
20171TIP3   OH282003   6.436   0.862   5.263 -0.7710 -0.0255  0.0830
20171TIP3    H182004   6.445   0.806   5.340 -1.0767  0.0124  0.1444
20171TIP3    H282005   6.342   0.870   5.249 -0.7965  2.1408  1.3030
20172TIP3   OH282006   3.139   0.634   2.853 -0.2637 -0.3110 -0.4085
20172TIP3    H182007   3.158   0.698   2.784 -1.3246  1.5886  1.0027
20172TIP3    H282008   3.044   0.642   2.866 -0.1852 -1.2131  0.7187
20173TIP3   OH282009   0.665   1.895   5.541  0.0908 -0.1633  0.4116
20173TIP3    H182010   0.694   1.937   5.622 -0.1179  1.4532 -0.3354
20173TIP3    H282011   0.746   1.859   5.504  0.1375 -1.2119  1.4841
20174TIP3   OH282012   0.309   5.852  13.265  0.3149  0.1916  0.2029
20174TIP3    H182013   0.234   5.879  13.319  2.0889  2.1100  1.7774
20174TIP3    H282014   0.301   5.757  13.259 -1.2792  0.1906  1.8138
20175TIP3   OH282015   1.606   2.331   3.374  0.3201  0.3152  0.0649
20175TIP3    H182016   1.650   2.268   3.317  0.5885  1.1529 -0.6732
20175TIP3    H282017   1.666   2.341   3.448 -0.2214 -1.0850  0.7104
20176TIP3   OH282018   4.244   5.492   3.072 -0.2202 -0.3998  0.4954
20176TIP3    H182019   4.333   5.493   3.106  0.2883 -0.9586 -0.7996
20176TIP3    H282020   4.236   5.408   3.026 -1.2422 -0.1330  0.1625
20177TIP3   OH282021   4.355   2.450  13.326 -0.9496  0.2136 -0.0310
20177TIP3    H182022   4.336   2.356  13.318 -1.8358  0.2899  0.9455
20177TIP3    H282023   4.384   2.460  13.417  1.4715  0.5198 -0.8099
20178TIP3   OH282024   6.470   3.113  13.084  0.2762  0.4769 -0.1673
20178TIP3    H182025   6.399   3.100  13.022 -0.4958  2.2644  0.3146
20178TIP3    H282026   6.542   3.149  13.032  0.4601 -0.2994 -0.4533
20179TIP3   OH282027   0.452   3.603  13.229 -0.8607 -0.3686 -0.1575
20179TIP3    H182028   0.481   3.694  13.243 -0.5482 -0.3174 -1.1312
20179TIP3    H282029   0.416   3.602  13.141  2.3099 -1.9746 -1.5293
20180TIP3   OH282030   5.952   0.542   2.945 -0.1219 -0.1482  0.2562
20180TIP3    H182031   5.927   0.632   2.925 -0.7617  0.2044  2.5220
20180TIP3    H282032   5.871   0.492   2.933 -0.1013 -0.1972  0.3211
20181TIP3   OH282033   2.723   3.976  17.189  0.4987 -0.1256 -0.2700
20181TIP3    H182034   2.780   4.019  17.253 -0.1012  0.1201  0.1141
20181TIP3    H282035   2.761   3.996  17.104  0.3344  1.0091 -0.0802
20182TIP3   OH282036   1.760   2.929  16.291 -0.2874  0.6474  0.1285
20182TIP3    H182037   1.796   2.882  16.216  1.5765  1.3067  0.5601
20182TIP3    H282038   1.681   2.881  16.315 -0.0503 -0.4715 -1.2904
20183TIP3   OH282039   2.760   2.091   5.864 -0.0622  0.1829  0.1704
20183TIP3    H182040   2.736   2.141   5.942  1.8750  0.5538  0.5779
20183TIP3    H282041   2.708   2.011   5.869 -0.8622  0.7509  1.1915
20184TIP3   OH282042   4.345   2.536   4.049  0.6354 -0.3790  0.1673
20184TIP3    H182043   4.358   2.552   3.955  2.4735 -0.1847  0.4419
20184TIP3    H282044   4.380   2.615   4.091  1.6280 -1.3058  1.1064
20185TIP3   OH282045   6.506   4.794  13.228  0.2073 -0.7662 -0.2736
20185TIP3    H182046   6.534   4.707  13.199  0.6395 -0.6045 -0.3489
20185TIP3    H282047   6.416   4.802  13.198  0.2495 -1.0891 -0.4885
20186TIP3   OH282048   3.377   4.317  15.834 -0.6530 -0.0047 -0.4915
20186TIP3    H182049   3.458   4.290  15.790 -0.3314  0.4073 -0.1720
20186TIP3    H282050   3.326   4.361  15.766 -1.0363 -1.1346 -0.9313
20187TIP3   OH282051   0.981   6.126   2.568  0.2566  0.0272 -0.2719
20187TIP3    H182052   1.021   6.202   2.526 -1.9766  2.3887  1.6951
20187TIP3    H282053   0.891   6.126   2.535 -0.7902  0.4016  2.4416
20188TIP3   OH282054   3.194   4.865   1.552 -0.0966 -0.2806 -0.1522
20188TIP3    H182055   3.127   4.851   1.618 -1.3707  0.0087 -1.3738
20188TIP3    H282056   3.275   4.837   1.595 -0.5125  2.1613  2.3789
20189TIP3   OH282057   4.896   2.728  11.782  0.6657  1.1518  0.3958
20189TIP3    H182058   4.873   2.702  11.872  0.3593  2.2579  0.6474
20189TIP3    H282059   4.909   2.645  11.736 -0.2464  0.5527  1.1875
20190TIP3   OH282060   3.991   4.336   3.578 -0.5674  0.0702  0.1277
20190TIP3    H182061   3.911   4.305   3.536  0.7861 -0.8394 -1.8779
20190TIP3    H282062   3.999   4.427   3.550 -0.6052 -0.0046 -0.1301
20191TIP3   OH282063   5.235   4.802  12.327  0.0850 -0.0028 -0.0186
20191TIP3    H182064   5.250   4.858  12.251  1.6916 -0.9238 -0.3857
20191TIP3    H282065   5.145   4.822  12.353 -1.3793 -1.4687 -3.6707
20192TIP3   OH282066   5.858   6.324  14.579 -0.7614 -0.0053 -0.4635
20192TIP3    H182067   5.890   6.385  14.513 -1.4756  1.8909  0.9081
20192TIP3    H282068   5.934   6.305  14.633 -0.6993  0.1992 -0.4790
20193TIP3   OH282069   0.459   0.277   2.200 -0.0385  0.8870  0.2569
20193TIP3    H182070   0.427   0.188   2.181 -0.6377  1.3183 -0.8476
20193TIP3    H282071   0.467   0.318   2.114  2.4642  1.1679  0.6111
20194TIP3   OH282072   4.394   0.343  17.174  0.0111  0.0337  0.1087
20194TIP3    H182073   4.417   0.305  17.089  0.4199 -2.1575  1.1729
20194TIP3    H282074   4.438   0.428  17.175 -0.9170  0.5993 -2.3219
20195TIP3   OH282075   4.986   1.253   1.395 -0.1540  0.2088  0.4867
20195TIP3    H182076   4.957   1.228   1.483  0.3363  1.1833  0.9382
20195TIP3    H282077   5.082   1.253   1.402 -0.1282  1.8928  0.4284
20196TIP3   OH282078   1.947   4.775   2.151 -0.5647 -0.4531  0.2010
20196TIP3    H182079   1.889   4.783   2.075  0.6108 -0.1039 -0.6629
20196TIP3    H282080   1.987   4.689   2.142 -1.3650 -0.9273  1.1040
20197TIP3   OH282081   0.156   4.478  13.199  0.2125  0.0974 -0.7732
20197TIP3    H182082   0.118   4.534  13.267  0.5251 -0.4342 -0.1527
20197TIP3    H282083   0.214   4.536  13.150 -2.0719  1.1433 -2.3196
20198TIP3   OH282084   4.169   3.289   4.075 -0.2324  0.9615 -0.4519
20198TIP3    H182085   4.195   3.257   4.161  0.3558  1.8993 -0.2757
20198TIP3    H282086   4.130   3.375   4.091 -0.9362  0.7654 -1.0278
20199TIP3   OH282087   3.641   1.791  14.228  0.1650 -0.3657  0.1258
20199TIP3    H182088   3.654   1.700  14.254  2.3778  0.2103  1.1097
20199TIP3    H282089   3.644   1.789  14.132  0.3735 -1.3036  0.1487
20200TIP3   OH282090   4.811   2.007   1.226  0.1189 -0.5001 -0.0570
20200TIP3    H182091   4.767   2.089   1.249 -1.9577 -1.8230  0.8741
20200TIP3    H282092   4.748   1.961   1.170  1.0164 -1.6970 -0.0975
20201TIP3   OH282093   0.194   4.751  16.010  0.3910 -0.3016  0.2915
20201TIP3    H182094   0.209   4.760  15.916 -0.5890  1.4364  0.2765
20201TIP3    H282095   0.248   4.819  16.050  0.2539 -0.5604  0.9336
20202TIP3   OH282096   3.458   0.285  13.173 -0.2791  0.7001 -0.0781
20202TIP3    H182097   3.411   0.242  13.245 -3.8128  1.9747 -1.5096
20202TIP3    H282098   3.550   0.287  13.202 -1.0710 -1.7817  2.8980
20203TIP3   OH282099   0.751   5.660   3.148 -0.2677 -0.0406 -0.4965
20203TIP3    H182100   0.690   5.693   3.083 -0.0950  1.7326  0.2059
20203TIP3    H282101   0.699   5.652   3.228 -0.3691 -1.7564 -0.7116
20204TIP3   OH282102   5.349   3.649   0.633 -0.2313  0.2336  0.2392
20204TIP3    H182103   5.412   3.577   0.641  0.3410  0.7553  0.5683
20204TIP3    H282104   5.352   3.674   0.541  0.5222  0.6663  0.3731
20205TIP3   OH282105   4.122   5.954   2.358  0.1355  0.0033 -0.0701
20205TIP3    H182106   4.143   6.046   2.344  1.4258 -0.3323 -0.3979
20205TIP3    H282107   4.079   5.927   2.276 -1.1942  0.5687  0.4238
20206TIP3   OH282108   3.095   0.870   4.496  0.1583 -0.2230  0.1413
20206TIP3    H182109   3.094   0.833   4.407 -0.0108 -1.6537  0.7228
20206TIP3    H282110   3.126   0.959   4.484 -0.7884 -0.0847 -1.4799
20207TIP3   OH282111   3.725   3.495  11.919  0.3174  0.1849 -0.0780
20207TIP3    H182112   3.724   3.572  11.975  2.7291  0.1308  0.0617
20207TIP3    H282113   3.634   3.463  11.921 -1.4398  4.5342 -2.3499
20208TIP3   OH282114   3.368   1.246  17.121 -0.1752 -0.4582 -0.3383
20208TIP3    H182115   3.398   1.305  17.051  0.2218  0.9396  0.9692
20208TIP3    H282116   3.279   1.223  17.096 -0.3120  0.6496 -0.9113
20209TIP3   OH282117   4.137   3.702  11.673  0.0517  0.4065  0.0913
20209TIP3    H182118   4.085   3.654  11.738  0.2373 -1.6453 -1.2405
20209TIP3    H282119   4.084   3.698  11.593  2.1261 -1.5609 -1.2437
20210TIP3   OH282120   2.936   3.751   1.800  0.7439  0.5472  0.0019
20210TIP3    H182121   2.997   3.683   1.774  0.7964  0.3275  0.6820
20210TIP3    H282122   2.932   3.810   1.725  2.1039  0.7905  0.1256
20211TIP3   OH282123   0.831   5.809   5.986 -0.7437 -0.0878  0.5381
20211TIP3    H182124   0.807   5.721   6.016 -1.3155  0.0230  0.4239
20211TIP3    H282125   0.859   5.796   5.895  2.5375 -0.6592  1.5722
20212TIP3   OH282126   5.364   5.567  10.750 -0.1336  0.3627  0.0787
20212TIP3    H182127   5.391   5.476  10.733  1.3038  0.4725  1.6424
20212TIP3    H282128   5.359   5.607  10.663  0.1884 -0.9514 -0.5569
20213TIP3   OH282129   5.199   1.737  16.997  0.4701  0.4468 -0.1070
20213TIP3    H182130   5.171   1.810  16.942 -1.2768 -0.0798  0.0643
20213TIP3    H282131   5.255   1.778  17.064  2.8989  1.0519 -2.4095
20214TIP3   OH282132   0.814   4.894   3.254 -0.2163  0.0922 -0.7177
20214TIP3    H182133   0.857   4.967   3.299 -2.7771  1.8548 -1.0482
20214TIP3    H282134   0.832   4.910   3.162 -0.9346  0.4291 -0.8030
20215TIP3   OH282135   0.728   5.777  13.460  0.1172 -0.6114  0.0340
20215TIP3    H182136   0.664   5.848  13.452 -0.4628 -0.8357  2.3151
20215TIP3    H282137   0.698   5.711  13.398  0.3573  0.8770 -1.7305
20216TIP3   OH282138   5.208   5.908  17.027 -0.0388 -0.1432 -0.2225
20216TIP3    H182139   5.303   5.898  17.040 -0.1510 -1.8902 -0.5993
20216TIP3    H282140   5.175   5.939  17.111  1.1891  2.8555 -0.8108
20217TIP3   OH282141   6.405   4.420  14.061  0.1679 -0.2236 -0.0598
20217TIP3    H182142   6.490   4.442  14.023 -0.0124 -0.8046 -0.8022
20217TIP3    H282143   6.420   4.339  14.109 -0.1709 -0.8440 -0.9740
20218TIP3   OH282144   3.598   6.174  16.298 -0.1193  0.0210  0.5340
20218TIP3    H182145   3.629   6.130  16.377 -0.7762  2.2147  2.0618
20218TIP3    H282146   3.669   6.233  16.274 -0.7763  0.9192  0.7539
20219TIP3   OH282147   4.692   0.575   2.839 -0.4619  0.3629  0.0790
20219TIP3    H182148   4.714   0.546   2.751 -2.2254  0.9241 -0.5535
20219TIP3    H282149   4.614   0.525   2.862  0.5737 -0.5628  1.7547
20220TIP3   OH282150   0.538   6.757  15.303 -0.1093 -0.8495 -0.3044
20220TIP3    H182151   0.568   6.680  15.255  2.4490  0.4229 -0.8629
20220TIP3    H282152   0.466   6.725  15.357 -1.8540 -2.7247 -3.5913
20221TIP3   OH282153   3.600   4.552  16.807 -0.5418  0.1580 -0.0161
20221TIP3    H182154   3.680   4.500  16.811 -0.7968 -0.3314 -1.2411
20221TIP3    H282155   3.592   4.577  16.715  0.1461  3.2493  0.6967
20222TIP3   OH282156   5.984   5.053  16.039  0.1667  0.5335  0.2591
20222TIP3    H182157   5.892   5.041  16.063  0.1074 -1.3165 -0.8184
20222TIP3    H282158   5.980   5.092  15.952  0.4091 -0.7035 -0.3030
20223TIP3   OH282159   2.445   5.832   5.499 -0.7350  0.0608 -0.4040
20223TIP3    H182160   2.446   5.738   5.483 -1.8010 -0.1065  0.3900
20223TIP3    H282161   2.535   5.854   5.522 -1.0780 -1.3613  2.5674
20224TIP3   OH282162   3.338   1.534   4.092  0.1826  0.5129  0.3436
20224TIP3    H182163   3.335   1.455   4.037 -1.0034 -0.6551  2.0274
20224TIP3    H282164   3.431   1.548   4.108  0.3611 -1.2883  1.0393
20225TIP3   OH282165   6.383   2.565  10.837  0.2764  0.2091  0.7060
20225TIP3    H182166   6.456   2.538  10.781  0.1774  2.6625 -0.6411
20225TIP3    H282167   6.344   2.640  10.793 -1.7080  0.3263  2.5406
20226TIP3   OH282168   5.890   0.735  16.755 -0.1430  0.8786  0.2008
20226TIP3    H182169   5.919   0.696  16.837 -0.5799 -0.5495 -0.3215
20226TIP3    H282170   5.970   0.762  16.711  0.0833  1.8609  1.1824
20227TIP3   OH282171   2.669   1.096   5.936 -0.2029  0.8340  0.3794
20227TIP3    H182172   2.710   1.096   5.849 -1.0111 -1.8857 -0.0632
20227TIP3    H282173   2.742   1.096   5.998  0.4580 -0.2373 -0.3656
20228TIP3   OH282174   3.089   4.435   5.846 -0.0442 -0.1620  0.1084
20228TIP3    H182175   3.020   4.368   5.844 -0.3743  0.1784  0.1090
20228TIP3    H282176   3.050   4.508   5.893 -1.0425  1.5224 -3.1612
20229TIP3   OH282177   3.575   4.298   5.857  0.5248  0.1619  0.5669
20229TIP3    H182178   3.623   4.357   5.915 -2.3938  1.5236  1.7142
20229TIP3    H282179   3.585   4.212   5.897 -0.8219  0.9717  2.7098
20230TIP3   OH282180   0.839   1.150  14.975 -0.6321 -0.2815  0.2336
20230TIP3    H182181   0.813   1.220  15.036  0.9739  0.8932 -0.3743
20230TIP3    H282182   0.817   1.184  14.889  1.1078 -0.0513 -0.1476
20231TIP3   OH282183   4.129   4.120   0.174  0.1768  0.3019  0.5850
20231TIP3    H182184   4.214   4.157   0.147 -0.3089  1.3237  0.4296
20231TIP3    H282185   4.098   4.179   0.242 -0.9546  0.5849 -0.1766
20232TIP3   OH282186   5.818   4.889  13.439 -0.1158 -0.1524 -0.2327
20232TIP3    H182187   5.790   4.808  13.482 -0.0666  0.3893  0.8481
20232TIP3    H282188   5.899   4.866  13.394  1.2166 -0.1198  2.0800
20233TIP3   OH282189   6.221   2.150  12.167 -0.3061  0.0599  0.1940
20233TIP3    H182190   6.127   2.162  12.177 -0.7788 -2.0418 -1.2710
20233TIP3    H282191   6.249   2.219  12.106 -0.9183  0.5815  0.5057
20234TIP3   OH282192   5.049   6.624  14.559  0.1250  0.3564  0.1222
20234TIP3    H182193   4.983   6.601  14.494  0.8866  0.0066 -0.5330
20234TIP3    H282194   5.125   6.572  14.535  0.4599  0.3240  1.2140
20235TIP3   OH282195   4.928   3.025  11.165  0.1580  0.8091 -0.1282
20235TIP3    H182196   5.005   3.075  11.140  1.1654 -0.4690  0.3863
20235TIP3    H282197   4.958   2.934  11.170 -1.0326  0.4831  1.4741
20236TIP3   OH282198   1.841   2.025  16.311 -0.4761 -0.0125  0.8277
20236TIP3    H182199   1.776   2.095  16.311 -0.5031  0.0053 -1.4819
20236TIP3    H282200   1.924   2.068  16.333 -0.1516  1.1274 -2.4592
20237TIP3   OH282201   0.128   5.728   1.262 -0.7162  0.1545  0.0876
20237TIP3    H182202   0.101   5.675   1.337  1.5946 -2.9241 -1.1893
20237TIP3    H282203   0.223   5.719   1.259 -0.6085  1.7183 -2.1468
20238TIP3   OH282204   4.633   5.843  16.902 -0.5036 -0.1804 -0.6653
20238TIP3    H182205   4.602   5.837  16.992 -1.6833  1.0121 -0.9812
20238TIP3    H282206   4.559   5.815  16.849 -0.0511 -0.1922 -1.2986
20239TIP3   OH282207   2.672   5.677  11.660  0.2757  1.0284  0.4448
20239TIP3    H182208   2.732   5.670  11.734  1.4630  0.9283 -0.5127
20239TIP3    H282209   2.653   5.770  11.653  1.1476  1.1819  0.1049
20240TIP3   OH282210   3.427   5.871   2.216 -0.3297 -0.5529  0.4716
20240TIP3    H182211   3.418   5.821   2.297 -0.9786 -0.3302  0.5394
20240TIP3    H282212   3.366   5.829   2.155  1.6218 -1.9997 -0.5444
20241TIP3   OH282213   5.235   2.506  12.711 -0.6748 -0.2685 -0.1042
20241TIP3    H182214   5.324   2.475  12.721 -1.0802 -0.6442  2.8044
20241TIP3    H282215   5.214   2.491  12.619  1.8135 -1.3234 -0.5283
20242TIP3   OH282216   6.449   2.403  13.839 -0.2381  0.0594  0.1613
20242TIP3    H182217   6.540   2.429  13.852  0.0989 -0.5342 -0.9724
20242TIP3    H282218   6.403   2.485  13.821 -0.0251  0.4197  1.2333
20243TIP3   OH282219   5.917   5.777  12.931  0.1811  0.1264  0.1984
20243TIP3    H182220   5.982   5.846  12.917 -0.8902  1.3965  1.2889
20243TIP3    H282221   5.845   5.821  12.976 -0.7229 -1.6247  0.5124
20244TIP3   OH282222   1.227   2.051   4.836  0.0793 -0.6310 -0.1485
20244TIP3    H182223   1.139   2.050   4.798 -0.8135 -0.5798  1.8588
20244TIP3    H282224   1.267   1.970   4.805 -0.8189 -0.8449 -0.7790
20245TIP3   OH282225   2.511   4.994  13.140  0.0994 -0.6555  0.2323
20245TIP3    H182226   2.538   4.955  13.057 -1.1825 -1.4498  0.1628
20245TIP3    H282227   2.538   4.931  13.206  1.3098  0.0769  0.4428
20246TIP3   OH282228   3.237   3.649  17.269 -0.2244  0.1644 -0.3817
20246TIP3    H182229   3.253   3.556  17.254  1.2037  0.2537  0.5266
20246TIP3    H282230   3.324   3.688  17.275 -0.7908  1.9557 -3.0156
20247TIP3   OH282231   3.700   0.144  16.768 -0.0254  0.4709  0.2410
20247TIP3    H182232   3.793   0.154  16.788 -0.0442  1.5337 -0.1494
20247TIP3    H282233   3.680   0.220  16.713 -0.9269 -0.2022 -0.3649
20248TIP3   OH282234   5.147   6.341  14.518  0.2271  0.0091 -0.0796
20248TIP3    H182235   5.180   6.400  14.450  0.3995  0.5467  0.4676
20248TIP3    H282236   5.154   6.254  14.479 -1.4694  0.4566 -1.4840
20249TIP3   OH282237   3.619   5.114   0.574 -0.0646 -0.5489  0.2846
20249TIP3    H182238   3.672   5.180   0.617 -0.4469  0.7729 -1.2330
20249TIP3    H282239   3.681   5.063   0.522  0.3080 -1.7538  1.8761
20250TIP3   OH282240   3.047   6.613   3.330  0.6643  0.4639  0.0861
20250TIP3    H182241   3.102   6.587   3.404  0.8423 -0.0356 -0.2238
20250TIP3    H282242   3.051   6.709   3.330  1.8543  0.4273 -0.1735
20251TIP3   OH282243   0.320   0.142  10.849  0.2974 -0.4085  0.2161
20251TIP3    H182244   0.320   0.080  10.776  2.0083  0.2081 -0.3164
20251TIP3    H282245   0.249   0.202  10.829 -0.0606 -0.9947 -0.2936
20252LIG      S82246   3.620   3.313  16.639  0.0161  0.4287  0.3705
20252LIG     N182247   3.131   3.379  16.465 -0.1480  0.2432  0.2301
20252LIG     N282248   3.428   3.463  16.479  0.1575 -0.4993  0.3177
20252LIG     N382249   2.743   3.393  16.164 -0.1997  0.3202  0.5328
20252LIG     C182250   3.140   3.527  16.480  0.2376 -0.1708 -0.4856
20252LIG     C282251   3.222   3.586  16.368  0.0159  0.8909 -0.3072
20252LIG     C382252   3.370   3.528  16.355  0.6356  0.1233  0.5976
20252LIG     C482253   3.373   3.341  16.538 -0.9870 -0.1213  0.5629
20252LIG     C582254   3.240   3.296  16.510  1.3883 -0.2326  0.2578
20252LIG     C682255   3.062   3.326  16.349  0.1303 -0.0918 -0.1994
20252LIG     C782256   2.919   3.371  16.330 -0.2172  0.1791 -0.3649
20252LIG     C882257   3.490   3.545  16.580 -0.4451 -0.1874 -0.0240
20252LIG     C982258   3.461   3.251  16.601 -0.1385 -0.3296 -0.2233
20252LIG    C1082259   3.200   3.164  16.560  0.3725  0.6835 -0.6023
20252LIG    C1182260   2.873   3.344  16.190  0.5656 -0.2439  0.0287
20252LIG    C1282261   3.590   3.484  16.663 -0.4004 -0.7303  0.0062
20252LIG    C1382262   3.417   3.123  16.643 -0.2060 -0.8697 -0.1960
20252LIG    C1482263   3.286   3.084  16.628  0.2706 -0.4783  0.5833
20252LIG    C1582264   3.460   3.683  16.597  0.2484  0.1001 -0.5205
20252LIG    C1682265   3.660   3.563  16.760 -0.1831  0.2939 -0.9345
20252LIG    C1782266   3.530   3.755  16.702  0.2618 -0.1162 -0.5293
20252LIG    C1882267   3.625   3.693  16.780 -0.0114  0.6947  0.0839
20252LIG    C1982268   2.630   3.325  16.214 -0.0508 -0.6852 -0.2827
20252LIG    C2082269   2.734   3.534  16.174  0.4543 -0.1315 -0.1763
20252LIG     H182270   3.182   3.544  16.582 -2.6503 -1.4473  0.9898
20252LIG     H282271   3.039   3.572  16.491 -0.7691 -1.2389 -4.6071
20252LIG     H382272   3.230   3.696  16.385  0.8294  0.8606 -0.4731
20252LIG     H482273   3.178   3.578  16.267 -1.9520  0.7158  0.5379
20252LIG     H582274   3.365   3.447  16.279  0.9183 -0.1966  0.9197
20252LIG     H682275   3.441   3.597  16.303  0.0065  0.0148 -0.4238
20252LIG     H782276   3.072   3.217  16.327 -0.7245 -0.0004 -1.1159
20252LIG     H882277   3.115   3.362  16.258 -0.4329 -0.3131 -0.6192
20252LIG     H982278   2.907   3.479  16.356  1.5632 -0.0945  1.7655
20252LIG    H1082279   2.864   3.318  16.411 -1.0378  1.5530 -0.0020
20252LIG    H1182280   3.097   3.129  16.556  0.8143 -0.5241 -1.7895
20252LIG    H1282281   2.947   3.384  16.117  0.6215 -1.3348 -0.5182
20252LIG    H1382282   2.859   3.235  16.178 -1.8058  0.1044 -0.8388
20252LIG    H1482283   3.482   3.055  16.695  0.5611  0.7006  0.9386
20252LIG    H1582284   3.256   2.994  16.680 -0.9776  0.2427  1.1604
20252LIG    H1682285   3.391   3.733  16.531  1.6319  2.7188 -0.0632
20252LIG    H1782286   3.751   3.529  16.806  0.7892  0.5190 -2.6686
20252LIG    H1882287   3.513   3.860  16.720  1.5580 -0.2390  1.6656
20252LIG    H1982288   3.683   3.759  16.843  2.5030 -0.7407 -0.6374
20252LIG    H2082289   2.587   3.387  16.295  1.7719  0.5159 -0.1894
20252LIG    H2182290   2.659   3.223  16.246  0.2468  0.0473  1.8311
20252LIG    H2282291   2.555   3.305  16.134  0.6428 -1.5768 -0.7194
20252LIG    H2382292   2.832   3.586  16.163  0.1290  0.2575 -1.3588
20252LIG    H2482293   2.710   3.559  16.279 -1.6258 -1.8334 -0.2126
20252LIG    H2582294   2.657   3.580  16.108  0.0384 -0.1873  0.2681
   6.82013   6.82013  17.29240
